
107010  0.0000000e+00
  64.6990776  62.4093533  47.3815632  64.4552898  62.3076439  46.4067173
  65.4096508  63.1270695  47.3900223  63.8398170  62.6526737  47.8533316
  65.2760172  61.1707258  47.9927635  64.5889235  60.3631926  47.7399969
  66.6345406  60.8347988  47.3862886  67.4178553  61.5595579  47.6082039
  67.0515537  59.9507093  47.8685665  66.5722513  60.6862164  45.8822584
  65.5476379  60.3495169  45.3323936  67.5626707  61.1271811  45.0886250
  67.5945807  60.8212805  44.1265965  68.4465265  61.4733934  45.4336405
  65.3304768  61.4073801  49.4798613  65.3072929  62.4986839  49.9339581
  65.3474808  60.3289461  50.2884340  65.2248859  59.4472647  49.8112440
  65.6098461  60.3009081  51.7276859  64.8395681  60.8620262  52.2567606
  65.3491163  58.8800001  52.2473669  66.1852503  58.2687759  51.9076872
  65.4973412  58.9489508  53.3250427  63.9654303  58.2170296  51.8309546
  63.7474203  58.3018160  50.7663488  64.0816498  56.7297173  52.1958208
  63.2905102  56.1169243  51.7637396  65.0654554  56.3332510  51.9447327
  64.1075182  56.6675711  53.2837391  62.8010225  58.7596703  52.6848364
  61.8567848  58.3260298  52.3554754  63.0580473  58.6942863  53.7420797
  62.6211023  59.8218822  52.5191832  67.0039606  60.7821512  52.2029877
  67.9963493  60.4976892  51.5238476  66.9689226  61.3292503  53.3985710
  66.0693645  61.3692999  53.8560534  68.1759501  61.3240767  54.2413998
  68.9507437  61.7451620  53.6007071  68.0773640  62.1688032  55.4851198
  69.0816402  62.2529697  55.9003925  67.6789379  63.1469345  55.2156544
  67.1944761  61.6151857  56.4229393  66.3294506  61.9454718  56.1694956
  68.6544323  59.9127150  54.5359039  67.9029989  58.9512062  54.5195913
  69.9682188  59.7179937  54.9557018  71.0744476  60.6441975  54.6597528
  71.0074520  61.4020205  55.4403448  70.8991623  61.0590219  53.6671352
  72.3791933  59.9232674  54.8649120  73.1421566  60.5846453  55.2754927
  72.6865149  59.5079374  53.9051437  72.0514488  58.8004684  55.7782841
  72.2710133  59.1099501  56.8001032  72.6103210  57.8825951  55.5958939
  70.5517960  58.5952139  55.6195307  70.4380989  57.7048492  55.0011253
  69.7682810  58.2216263  56.9226885  69.5165730  57.0839357  57.3030996
  69.3520069  59.2508984  57.7037668  69.5970106  60.2113581  57.5098848
  68.6764479  59.0488100  58.9221525  69.3088388  58.4249353  59.5537901
  68.4417295  60.4171371  59.6151924  69.4314098  60.8404493  59.7867918
  67.8188181  61.0723162  59.0062380  67.7116871  60.2685452  60.9776735
  66.7463589  59.7773695  60.8552790  68.4749031  59.3496609  61.9623852
  68.0501556  59.4513321  62.9610634  68.3330727  58.3290958  61.6068125
  69.5402336  59.5796919  61.9783783  67.4088049  61.5722561  61.7235422
  66.7785072  62.2325182  61.1278248  66.9303799  61.4328861  62.6929665
  68.2473421  62.2430754  61.9105148  67.2886229  58.2477093  58.6779547
  66.8322945  57.3732185  59.4343996  66.5331697  58.6513329  57.6436806
  66.9301462  59.3751049  57.0617342  65.2172232  58.0999231  57.2599077
  64.7789288  57.8913498  58.2358646  64.4052601  59.1043615  56.4652443
  65.0104761  59.3887043  55.6044579  63.4789228  58.5684919  56.2582684
  63.9604759  60.4189253  57.2354031  63.0146599  60.2664852  57.7553034
  64.7231340  60.6232405  57.9868746  63.8281775  61.6446781  56.2537527
  63.0242109  62.5217962  56.6177320  64.4919825  61.8086481  55.2017546
  65.3565788  56.7842817  56.4600611  64.5069075  55.9261370  56.5297985
  66.4611816  56.6613293  55.7405329  67.1996975  57.3381805  55.8692360
  67.0145416  55.3880930  55.2514458  66.1752176  54.8943233  54.7617245
  68.2186031  55.5079937  54.2269421  69.1220903  55.8600140  54.7248268
  68.3521700  54.5596504  53.7064600  67.8637934  56.4720106  53.2947779
  67.7475834  57.3162031  53.7368584  67.1730232  54.3768501  56.3527822
  66.5702677  53.3187771  56.2120199  67.8139830  54.7142887  57.4951410
  68.3967018  55.5360699  57.4228954  67.9588270  53.8794565  58.6642265
  68.3504438  52.9031897  58.3784866  68.9642382  54.5614576  59.5817757
  69.9042940  54.8141956  59.0913439  68.4431744  55.4919720  59.8070192
  69.1449547  53.9142179  61.0009575  68.1783581  53.5168076  61.3105631
  69.8446417  52.6146507  60.7688618  69.4310522  51.9991970  59.9699497
  70.9168816  52.7083492  60.5967569  69.7798681  52.1305799  61.7433262
  69.8202515  54.7408867  62.0813799  70.5271626  54.1301346  62.6429558
  70.4014540  55.5107832  61.5738726  69.0965605  55.1257229  62.7999067
  66.5957212  53.6558580  59.3660927  66.2449074  52.4957466  59.5273447
  65.8708429  54.6919155  59.7946358  66.2059164  55.6265068  59.6092415
  64.5137262  54.6219587  60.3538465  64.6018362  54.2037821  61.3565731
  64.0098810  56.1053276  60.4168749  64.7298431  56.8237829  60.8087587
  63.6800385  56.3964128  59.4195843  63.1595278  56.1441565  61.0976791
  63.5634756  53.7537432  59.5901489  62.9212379  52.9394531  60.2455568
  63.5560274  53.7874699  58.2550812  64.0976620  54.4923592  57.7756357
  62.8586054  52.7059889  57.5449085  61.8412447  52.5974035  57.9207897
  62.8526640  53.1259203  56.0539198  62.1894121  53.9767694  55.8981800
  63.8553953  53.4720945  55.8033276  62.5094128  52.1512175  54.9742460
  63.3696938  51.7363596  54.0325928  64.4061899  52.0037842  53.8892174
  62.7189589  50.9879684  53.1083059  63.1174040  50.5796480  52.2748709
  61.3902330  50.9683704  53.3255768  60.2930689  50.6724501  52.5052500
  60.3907013  50.1774263  51.5503550  58.9805841  50.8877850  53.0174971
  58.1863451  50.4304409  52.4461603  58.8796854  51.5232992  54.2753935
  57.9026604  51.7480469  54.6770382  59.9922991  51.9499826  55.0478888
  59.8945522  52.4972057  55.9738445  61.2639856  51.6728258  54.5553112
  63.3964491  51.2500334  57.6412249  62.6288509  50.3880405  58.0869198
  64.6699524  50.9440184  57.3627186  65.2337694  51.7465353  57.1215105
  65.3642702  49.6469355  57.6212597  64.9150467  48.9745665  56.8903494
  66.8265295  49.8747683  57.2568512  67.2435951  50.5919361  57.9638433
  67.3201418  48.9374685  57.5135803  67.1334410  50.1370430  55.7229137
  67.1266079  49.1568899  55.2461004  66.3228464  50.6837988  55.2411509
  68.4390306  50.9606552  55.6919432  69.2271566  51.0099840  56.6337395
  68.6695957  51.4987850  54.5184469  69.5814848  51.9143295  54.3924189
  68.0539179  51.3978481  53.7241840  65.2380228  49.2453718  59.0703297
  65.1470327  48.0703831  59.2931986  65.2276516  50.0980186  60.0990534
  65.5273676  51.0469007  59.9261570  64.9158812  49.7128916  61.5321970
  65.4677296  48.7836647  61.6739464  65.3341579  50.8746052  62.4723244
  65.0732708  51.8383741  62.0350742  64.6374989  50.8219051  63.8777733
  65.0342607  51.6254282  64.4982767  63.5527134  50.9094191  63.9385128
  64.7612858  49.8042154  64.2480326  66.8424034  50.9334898  62.5477886
  67.3723793  51.2365770  61.6448116  67.0254517  51.7994833  63.1839132
  67.3926210  50.1194096  63.0196285  63.4738016  49.2788935  61.7180347
  63.2302952  48.2591677  62.2588253  62.4850273  50.0507021  61.3054514
  62.6555920  50.9394932  60.8570528  60.9886026  49.6624184  61.4370728
  60.9976816  49.2420816  62.4427223  60.1051807  50.9256268  61.5308714
  60.5980921  51.6812325  62.1425867  59.9314117  51.1640930  60.4815674
  58.7476492  50.5086803  62.2663021  57.9825068  51.2123489  61.9384050
  58.5021210  49.5141888  61.8937492  59.0194035  50.5154848  63.7777376
  60.0841379  50.6450605  63.9717531  58.4742069  51.3843250  64.1464949
  58.5770988  49.2090893  64.4808149  58.4468508  48.3474207  63.8260937
  59.2538500  48.8914442  65.2740431  57.1917343  49.5084667  65.0617456
  56.5846825  49.9066687  64.3595839  56.6624784  48.6716604  65.2611113
  57.2399712  50.2151299  65.7817459  60.6446075  48.4020948  60.5343437
  60.1561546  47.4232674  61.0969114  60.9748650  48.4184170  59.2883062
  61.3958597  49.2590666  58.9192867  60.8989143  47.2426271  58.4717655
  59.8654604  46.9426966  58.2981873  61.5793324  47.4642611  57.0838976
  62.5062180  48.0109453  57.2574568  61.7961931  46.5694666  56.5004492
  60.6456423  48.5792923  55.9715652  59.4567108  47.9942894  56.1422110
  61.4590502  45.9916973  59.2224932  60.7695627  44.9503660  59.3223810
  62.7081442  46.0580158  59.7656202  63.1973171  46.9118547  59.5380783
  63.2691479  44.9776173  60.5043650  63.1203747  44.1368771  59.8267794
  64.7807693  45.2647972  60.7068443  65.2178240  45.7099152  59.8130035
  64.9928522  46.1033630  61.3701200  65.6103563  44.0592861  61.1772776
  65.5120516  43.8076687  62.2332716  65.2767754  42.8034878  60.3486013
  64.9540997  43.0985117  59.3501377  66.1083555  42.1001959  60.3044224
  64.5033550  42.2271061  60.8562422  67.1391726  44.4089317  60.9037924
  67.3629761  44.8496056  59.9322844  67.4710751  45.1707554  61.6091681
  67.7229786  43.4900045  60.9571600  62.5378799  44.6360779  61.8175697
  62.2319794  43.4297991  61.9880199  62.1566772  45.6199074  62.6549435
  62.4165058  46.5464926  62.3482990  61.3777161  45.5094719  63.9204264
  61.8695354  44.7554159  64.5349264  61.3762379  46.8831968  64.6537924
  60.8607960  47.5966263  64.0108013  60.6938791  46.7537308  65.4938698
  62.6770592  47.5127316  65.1894140  63.4492064  47.4864864  64.4205189
  62.4220037  48.9198399  65.7445145  61.6914034  48.9245987  66.5534019
  63.3860016  49.1943407  66.1728287  62.1811533  49.6859837  65.0075483
  63.1747484  46.6278887  66.2929440  62.3647451  46.5475559  67.0178938
  63.4333801  45.5917501  66.0747004  64.0703297  47.0299673  66.7666149
  59.9716425  45.0457001  63.7930679  59.4404554  44.3623304  64.6874905
  59.3737555  45.2553797  62.6739311  59.7920227  45.9347343  62.0545530
  58.2139826  44.4252872  62.2020864  57.4253559  44.5829439  62.9378223
  57.7059555  45.0383711  60.8698702  57.9859304  46.0858393  60.7579327
  58.1291771  44.4967556  60.0239182  56.2255907  44.8671913  60.7926750
  56.0641718  43.7893152  60.7776880  55.7227278  45.3213596  61.6464663
  55.6536627  45.4482222  59.5361376  54.5728827  45.5226803  59.6564341
  55.9922791  46.4787531  59.4291019  56.0431051  44.6213102  58.2360029
  57.1111441  44.4050026  58.2607746  55.5289650  43.6603546  58.2178640
  55.7856178  45.3647566  56.9876146  54.8251677  45.6125927  56.7972946
  56.3031054  46.2270737  57.0809650  56.1732149  44.9892378  56.1338854
  58.3945036  42.9474974  62.0237780  57.4609232  42.1697092  62.1138859
  59.5960855  42.4200392  61.6631937  60.3981256  43.0242348  61.5546513
  59.8688459  40.9870815  61.4615440  58.9691162  40.3746843  61.5211916
  60.4489708  40.7995129  60.0137568  61.2775135  41.4978838  59.8958826
  60.8047438  39.7730994  59.9243212  59.3700504  40.9310722  58.9686775
  58.5129547  39.8197579  58.7913799  58.5498285  38.9707923  59.4579363
  57.5419188  39.8168898  57.7226686  57.0172596  38.9164376  57.4392653
  57.4505377  40.9327602  56.8761253  56.5887356  40.9096289  55.8371735
  56.7058897  41.7864656  55.4642963  58.2621670  42.0878935  57.0998859
  58.1536961  42.9365587  56.4407825  59.2167139  42.0318127  58.1016493
  59.8994637  42.8685427  58.1135893  60.7959270  40.2813530  62.5138187
  60.8066702  39.0417051  62.7107477  61.4701414  41.0738802  63.3620644
  61.2999725  42.0668364  63.2901001  62.2116232  40.6254530  64.5722771
  62.5857592  39.6283364  64.3401575  63.5157967  41.4588261  64.9728775
  64.1777754  41.6295624  64.1239166  63.2639074  42.4261332  65.4075813
  64.2448378  40.8331299  65.9660816  63.6254549  40.7219982  66.6910744
  61.2204742  40.5618286  65.7422161  61.3021040  41.3216496  66.7055035
  60.3083563  39.5729113  65.7017803  60.4087496  38.8213754  65.0345373
  59.0117598  39.5841670  66.4666176  58.6534166  40.5937958  66.6674757
  57.8862238  38.8017488  65.7868528  56.9646406  38.8550353  66.3664627
  57.3806477  39.2443728  64.4274664  58.1971550  39.3095326  63.7083244
  56.6695881  38.5150170  64.0394783  56.9036531  40.2225780  64.4882488
  58.2220459  37.4572587  65.4662991  57.3973942  36.9807649  65.3458595
  59.2597294  38.9532709  67.8327942  58.3288622  38.6528897  68.6070919
  60.5015039  38.9636588  68.3245754  61.2556934  39.0711856  67.6614523
  60.7846832  39.4879818  69.7268915  60.2566528  38.7391400  70.3172493
  62.2493887  39.5186448  70.0824213  62.3185396  40.0395584  71.0373926
  62.9287243  38.0996060  70.2694893  64.0099287  38.1676126  70.1491833
  62.5493097  37.7138424  71.2157154  62.6893568  37.4260139  69.4466448
  62.9511499  40.3332520  69.1657734  63.6799383  40.7514381  69.6300888
  60.0906086  40.8293152  70.0269604  59.5566320  41.0293913  71.1002302
  60.0130224  41.7412186  69.1032028  60.5052710  41.5083265  68.2525826
  59.3713379  43.1033945  69.1306162  59.8472261  43.6642981  69.9349928
  59.6033382  43.8538790  67.8399992  60.6278419  43.7393999  67.4858999
  58.7965488  43.5499716  67.1730471  59.5011616  45.3947735  67.9590750
  58.5819244  46.2643290  67.5055981  57.6888323  45.9243917  67.0023727
  58.8409281  47.6238775  67.8595686  58.1121349  48.3174515  67.7706337
  60.0201797  47.7100658  68.5048008  60.7773447  48.7900162  69.0446234
  60.3776550  49.7933102  69.0375042  62.0091486  48.5465050  69.6501684
  62.6653957  49.3470144  69.9582624  62.3938417  47.1816015  69.7535467
  63.4213400  47.0280361  70.0486135  61.6493702  46.1114931  69.2847347
  62.0250130  45.0996447  69.3229198  60.4315662  46.3226748  68.6706495
  57.9442310  43.0094957  69.7023535  57.2499466  42.0378733  69.4070673
  57.5312853  44.0549326  70.4026651  58.1832743  44.8095942  70.5623579
  56.1658049  44.2641354  71.0000563  55.3864384  43.6413002  70.5610180
  56.0434198  43.9146566  72.4852657  56.7730379  44.4884777  73.0566597
  55.0467014  44.1026688  72.8844070  56.3945055  42.4068499  72.6927614
  55.9684086  41.7955875  71.8972111  57.4594212  42.2208023  72.5533342
  55.9104347  41.6710758  73.9977932  56.8107986  41.5764046  74.6048212
  55.4572201  42.3728704  74.6979284  55.0789642  40.4620886  73.7400103
  54.4819593  40.4244900  74.6511984  54.3678951  40.5969381  72.9249668
  55.9321213  39.2542577  73.4859467  55.3426933  38.4378481  73.4075069
  56.4464378  39.3966293  72.6284409  56.5687704  39.0679049  74.2475653
  55.5995417  45.6677151  70.7486391  55.6803417  46.5904665  71.5964937
  55.0217819  45.9166145  69.5667458  54.7068596  44.9539995  68.5130024
  53.7265348  44.5117807  68.6905098  55.5450249  44.2732906  68.3639908
  54.5048094  45.7977247  67.2777319  53.8898373  45.3499365  66.4970922
  55.4312944  46.1489630  66.8234682  53.7653637  47.0135450  67.8497839
  52.7429152  46.6613722  67.9864454  53.8687325  47.8299093  67.1349669
  54.4370270  47.2572708  69.2092419  55.2213621  47.9613829  68.9314842
  53.4299135  47.9349279  70.1575565  52.5553989  47.2603941  70.6862307
  53.4959984  49.2942381  70.2214622  54.3622398  49.6120691  69.8107195
  52.7074242  50.2526426  70.9987068  52.7402687  49.9483538  72.0448589
  53.3524036  51.6752863  70.8468819  54.3524027  51.7255402  71.2776613
  53.4902143  51.9410276  69.7987890  52.5186634  52.8579903  71.4942360
  51.5950489  52.8633595  70.9154415  52.2809076  52.7844238  73.0132437
  51.5677881  53.5751438  73.2463360  51.8222618  51.8230820  73.2446957
  53.2140541  52.7985811  73.5763884  53.2322025  54.1869783  71.1974716
  53.1652403  54.4556999  70.1432419  52.8176880  54.9971390  71.7973995
  54.2752934  54.1170549  71.5059996  51.2300873  50.2413988  70.6096363
  50.7795525  50.2443933  69.4430304  50.4167175  50.3446960  71.6777325
  50.8355951  50.3528833  72.5967407  48.9374399  50.2231073  71.5833998
  48.7491703  49.2506790  71.1283827  48.4566832  50.0405216  73.0043411
  48.9106560  49.2122412  73.5483646  48.6113262  50.9399319  73.6003685
  46.9259834  49.6955013  73.0316830  46.0790443  50.3710175  72.4812937
  46.5846062  48.6852980  73.7171268  45.6269073  48.3647823  73.7034798
  47.2886705  48.1611443  74.2167854  48.2693815  51.3497448  70.7007170
  48.3959055  52.5279331  71.1358690  47.5345850  51.0406399  69.6415186
  47.4203157  49.7000122  69.0538502  46.6698265  49.1431618  69.6149111
  48.3336258  49.1146803  68.9473104  46.8275928  49.8534393  67.6571751
  46.1587095  49.0530729  67.3407650  47.6294041  49.8967791  66.9200706
  46.1019325  51.2232256  67.7079678  45.1067162  51.0954666  68.1337929
  46.1882305  51.7157078  66.7394066  46.8956852  52.0391035  68.7066603
  47.6430321  52.6095676  68.1551647  46.1413240  53.1108618  69.4676304
  46.0013580  54.2515993  68.9686584  45.5110312  52.8064775  70.6192350
  45.5736303  51.8492699  70.9353542  44.6912003  53.7369728  71.4319849
  44.3807983  54.5028687  70.7212400  43.4834146  52.8704548  71.9015169
  43.9487791  51.8923140  72.0230818  43.0059147  53.3159971  72.7742004
  42.4676037  52.9190445  70.7475042  41.6406059  53.8066053  70.5769587
  42.4184418  51.9868183  69.8345470  41.6274595  51.9467878  69.2077780
  42.9786777  51.1552429  69.9558401  45.3955269  54.3877649  72.6168108
  44.7315073  54.8834324  73.5447311  46.7275953  54.4542742  72.5543451
  47.2122383  54.1241217  71.7320204  47.5141096  54.8903084  73.6877632
  47.2933054  54.3043995  74.5799875  48.9952326  54.6857500  73.3696508
  49.2459202  53.7020779  72.9726028  49.3212748  55.4295444  72.6426268
  49.7334099  54.9764204  74.5679474  49.7666454  54.1855574  75.1111126
  47.2100449  56.3557720  74.0088892  47.1407127  57.1907663  73.1040621
  47.0061159  56.6610956  75.3047848  47.1355343  55.9590054  76.0192204
  46.9386530  58.0067825  75.8333826  46.1241961  58.6030006  75.4219389
  46.7578697  57.9927349  77.3307657  46.5757179  59.0120029  77.6713753
  45.9886503  57.2556734  77.5613260  47.9591417  57.5695992  78.0963564
  48.2921648  56.3009882  78.3952904  47.7565002  55.3769445  78.2352638
  49.4463253  56.3297701  79.1452932  49.8014641  55.4636908  79.5246124
  49.8465538  57.5944662  79.4254971  50.9767532  58.0611038  80.1419258
  51.7334175  57.4220181  80.5725574  51.0337305  59.4894934  80.1716709
  51.8059254  60.0120449  80.7166958  50.0390959  60.3746414  79.6889067
  50.1470041  61.4191008  79.9416256  48.9942884  59.8549318  78.9550877
  48.3129501  60.4835796  78.4010267  48.8752174  58.4363604  78.8019514
  48.2016754  58.7841845  75.4464102  48.1237030  60.0033331  75.2337933
  49.3988848  58.2051611  75.2679157  49.4745827  57.2294903  75.5177975
  50.6137133  58.8054132  74.7589254  50.8309650  59.5792198  75.4952240
  51.6961336  57.7584839  74.8302174  51.4605904  56.8622637  74.2562675
  52.6190138  58.2242250  74.4845533  52.1009922  57.5065899  76.3084936
  51.3011312  57.1034098  76.9295979  53.0331945  56.2363195  76.4094257
  53.8873386  56.4185619  75.7572556  53.3912420  56.1442137  77.4348164
  52.5159359  55.3436518  76.0577250  52.8055668  58.7574816  76.9397783
  53.5528135  59.1244936  76.2362003  52.0215893  59.3879032  77.3593616
  53.2263041  58.4147024  77.8850746  50.4575300  59.4675827  73.3618212
  51.0496759  60.5104876  73.1248569  49.7274017  58.7966871  72.3768759
  49.3720055  57.8585052  72.4935150  49.3603945  59.4681025  71.1041832
  50.2957916  59.8721790  70.7170773  48.6246157  58.5751486  70.0723124
  47.7323008  58.1671429  70.5470753  48.1884050  59.1342831  69.2445469
  49.4017744  57.4254227  69.5045090  50.4026222  57.6354980  68.6101961
  50.5838680  58.6445904  68.2706594  51.1136961  56.5784216  68.0717611
  51.8665981  56.7498827  67.3166847  50.9861565  55.2411318  68.4371376
  51.7680693  54.2831182  67.8836250  51.8240166  54.5094728  66.9523716
  49.9161482  54.9860620  69.3614912  49.7126532  53.9681864  69.6596813
  49.0745401  56.0972595  69.8236084  48.2428885  55.8228064  70.4556084
  48.4194660  60.6466246  71.3769150  48.6713409  61.7151070  70.7258177
  47.3785591  60.5048609  72.2045612  47.1177483  59.5894432  72.5423241
  46.5660572  61.7618608  72.5547695  46.1537886  62.1263027  71.6138554
  45.3719425  61.3958979  73.4471607  45.7666016  60.9465647  74.3584538
  44.7884369  62.3049307  73.5930252  44.4673872  60.3543425  72.8132772
  43.9658546  60.4115486  71.5364838  43.1544256  59.3314934  71.4432669
  42.5022078  59.1691113  70.5979013  43.2290411  58.5701370  72.5412416
  42.7444792  57.6947975  72.6794100  44.1234875  59.2201567  73.3945847
  44.3374157  58.9459610  74.4170618  47.2904778  62.8544235  73.3606148
  46.9178915  64.0194702  73.3017969  48.2506037  62.4811840  74.1825056
  48.4282494  61.4882135  74.2329979  49.2626524  63.3493328  74.8224878
  48.8220453  64.0558624  75.5258989  50.1370049  62.4900293  75.7412386
  50.7588243  61.8594694  75.1057625  50.7051420  63.1793976  76.3658190
  49.4907379  61.8498373  76.3417292  50.0384855  64.2257547  73.8546324
  50.8233833  65.0160503  74.4201565  50.1686859  63.8202715  72.5938082
  49.6372843  62.9927969  72.3636007  50.9722471  64.4724512  71.4567804
  50.6302309  63.8324642  70.6434298  50.4203558  65.9411955  71.1231470
  50.8861589  66.7158461  71.7322922  50.9229326  66.2278175  70.1993704
  48.9093065  66.1836720  71.1873817  48.6543179  66.0117340  72.2330952
  48.6197186  67.2185612  71.0050678  48.1010580  65.2784729  70.1296520
  48.3089590  64.2356014  70.3690243  47.0621443  65.5924892  70.2303839
  48.4584284  65.6302595  68.6990261  48.1767702  66.6609955  68.4837055
  49.5129490  65.4572010  68.4842396  47.7425671  64.7038364  67.7717638
  47.7468634  65.0921726  66.8394136  48.1651545  63.7874746  67.8142214
  46.7629623  64.6488142  68.0114555  52.4729872  64.3255138  71.6102934
  53.1802940  65.0180578  70.8944798  52.9332829  63.4483147  72.4623775
  52.2804308  62.8864336  72.9897976  54.3319607  63.0921507  72.6097250
  54.9109221  64.0091944  72.7189541  54.5189476  62.2432280  73.9158344
  53.9344454  61.3272572  73.8294649  55.5843449  62.0138693  73.9362144
  54.1270876  63.0512190  75.1819849  53.1169796  63.4583187  75.1366377
  54.2539978  62.2266293  76.4668703  53.6401892  61.3497782  76.2607718
  55.2711773  61.9262362  76.7182827  53.7671852  62.7410269  77.2954226
  55.1059055  64.1460466  75.4957056  56.1101103  63.7273026  75.5614662
  55.1430655  64.8601055  74.6729994  54.9725103  64.7279596  76.4076757
  54.8663139  62.2471571  71.4359283  56.0562992  62.1615028  71.1623955
  53.8858175  61.7513609  70.6146526  52.9444981  62.0485973  70.8283472
  54.1796398  60.8866930  69.4652700  55.2249575  60.9336567  69.1599751
  53.9385128  59.4556999  69.9505806  52.8748941  59.2345715  69.8615789
  54.4834852  58.8073444  69.2644691  54.3835068  59.0034676  71.4207840
  54.0973043  59.7468090  72.1648455  53.6672544  57.7885151  71.8437147
  54.0788937  57.5215578  72.8170538  52.6131582  58.0068493  72.0149279
  53.8271189  56.9703388  71.1414766  55.8748627  58.8787985  71.5986252
  56.1677885  58.9054966  72.6481915  56.2673855  57.9580545  71.1670494
  56.2840271  59.7501087  71.0872507  53.2496786  61.3165712  68.3921862
  52.1030664  61.6881561  68.6802959  53.7332964  61.3227892  67.1770620
  54.7157097  61.1579561  67.0103455  52.8147840  61.6577148  66.0374308
  51.7999363  61.3213015  66.2495947  52.7538729  63.1952477  65.7756472
  52.5582314  63.7708902  66.6803360  53.7564278  63.5251045  65.5032873
  51.7685890  63.6781836  64.7573805  51.2381506  62.8510094  64.0002394
  51.6076469  64.9118757  64.6184635  53.3032227  60.8731461  64.7517443
  54.2079115  61.3366079  64.0490723  52.6508856  59.8191166  64.3584776
  51.9197655  58.9329195  65.2334452  50.8932590  59.2276239  65.4514694
  52.5242186  58.8193941  66.1333609  51.7179680  57.5817347  64.6100903
  50.6987286  57.2259235  64.7605848  52.4263811  56.8534327  65.0048351
  52.0800877  57.7630997  63.1633282  51.1583614  57.8883982  62.5951481
  52.5754166  56.8621731  62.8012848  52.9514837  59.0553570  63.1358624
  53.9918518  58.7706661  63.2929993  52.8401184  59.7552681  61.7341518
  52.7963734  59.0477037  60.7308531  52.6274204  61.0670137  61.6724014
  52.5119305  61.5721321  62.5393581  52.9661655  61.8593121  60.4904556
  52.6725340  61.2757730  59.6178913  52.1233940  63.1275034  60.6274796
  52.3681259  63.7680149  59.7801590  51.0901642  62.7996826  60.7417679
  52.5370884  63.7904835  61.7821360  52.2099972  63.3093548  62.5457621
  54.5254898  62.3026609  60.4772902  54.9361181  63.3372211  59.9222231
  55.4238701  61.5613985  61.0846472  55.1312065  60.6641197  61.4442873
  56.8614054  61.8767500  61.2053490  57.1785164  62.4619246  60.3421497
  57.2284889  62.6206398  62.5077677  58.3149195  62.6980448  62.5499249
  56.5471458  64.0353155  62.6381588  56.9502068  64.5752716  63.4949541
  56.7971754  64.6133518  61.7485189  55.4655361  63.9556885  62.7471447
  56.8227863  61.8771267  63.5992956  55.9453535  61.5533686  63.3827400
  57.6092386  60.5623722  61.1357450  57.1202183  59.5268011  61.6077042
  58.8875675  60.5708885  60.6887484  59.6335173  61.7500162  60.1155281
  59.6328640  62.5069618  60.8998346  59.1557121  61.9180584  59.1503525
  61.0175657  61.2759256  59.8251772  61.6706371  61.5916252  60.6387711
  61.3380098  61.6447020  58.8507986  60.8988810  59.7540426  59.8987532
  61.8493652  59.2789268  60.1415396  60.5864096  59.3853521  58.9217472
  59.7724724  59.4184208  60.9000492  59.2387152  58.4872007  60.7102108
  60.2523756  59.3978262  62.3064327  60.4117584  58.3177757  62.8998804
  60.4129505  60.5238724  62.9843616  60.2556992  61.3772917  62.4675894
  60.8101034  60.6916475  64.3838453  61.8154430  60.2964640  64.5295334
  61.0059834  62.2067595  64.6023464  60.0902939  62.7933073  64.5276690
  61.4990854  62.4384499  66.0538816  61.5362692  63.5225677  66.1606550
  60.6831837  62.0920944  66.6882610  62.4351406  61.9220781  66.2666273
  62.2056389  62.7524471  63.7586021  61.9399548  62.5924587  62.7136517
  62.3321772  63.7692690  64.1302967  63.0977488  62.1619749  63.9673853
  59.9248028  59.8907042  65.3807688  60.5303478  59.4272041  66.3890076
  58.6090326  59.6708727  65.1523352  58.2074118  60.0677347  64.3148947
  57.7613020  58.7107372  65.9873629  57.6429129  59.1651440  66.9710302
  56.3037205  58.6841011  65.4992533  55.8665514  59.5778561  65.9444380
  56.3598204  58.6793900  64.4107056  55.5491829  57.5297785  66.0837078
  55.1713467  57.3383188  67.4088621  54.5694828  56.1066151  67.4008608
  54.0936184  55.5946398  68.2241774  54.3840170  55.6392097  66.1373043
  53.9855814  54.7593737  65.8419466  55.0517511  56.5332222  65.3133726
  55.0983953  56.4993000  64.2349100  58.3910036  57.2775602  66.2114620
  58.3387995  56.7577553  67.3360443  58.8089895  56.5934896  65.1265717
  58.7677765  57.0881462  64.2469597  59.4662905  55.2415466  65.1540136
  58.8188028  54.4752216  65.5801630  59.8068380  54.8533964  63.7450743
  60.0153446  55.7441616  63.1524897  61.0270739  53.9359426  63.5896206
  61.8895149  54.2647314  64.1694403  60.7022429  52.9376888  63.8829947
  61.2352943  53.9060116  62.5201130  58.5458326  54.2278433  63.0970097
  58.8335800  53.8797712  62.1049738  58.1274700  53.4309530  63.7118626
  57.3627186  55.1439762  62.7105522  56.9562769  55.6198311  63.6030054
  57.7671766  55.9316444  62.0748711  56.4522743  54.7547293  62.2548389
  60.7156372  55.4602575  66.0538912  60.9389353  54.7021580  67.0255947
  61.5048265  56.4729548  65.7565832  61.0570431  57.1575928  65.1642466
  62.7405548  56.7815208  66.5588093  63.4021854  55.9153652  66.5473843
  63.5551453  57.9219770  65.8745289  63.0483913  58.8566780  66.1146069
  64.4796896  57.9914188  66.4476776  64.0000010  57.8588963  64.3463993
  63.1295919  57.6191807  63.7356329  64.5935392  59.1769028  63.7276411
  65.4545116  59.5765305  64.2634916  64.6923399  59.0259314  62.6526785
  63.8214397  59.9290800  63.8894558  64.9988031  56.7052221  64.0591478
  65.3730631  56.6146564  63.0394268  65.8369827  56.9484043  64.7121572
  64.5639181  55.8069229  64.4973707  62.4228668  56.9231701  68.0773115
  63.2201290  56.4309692  68.8857746  61.3047695  57.6124048  68.4311438
  60.7634068  58.1073523  67.7368402  60.7960653  57.7786493  69.8245049
  61.6211128  58.1288147  70.4448128  59.7549868  58.8860416  69.8551702
  58.9303827  58.7750483  69.1510344  59.3514204  58.9444828  70.8660221
  60.3393412  60.3172064  69.6316147  61.0390377  60.5739832  70.4269743
  60.9801865  60.4301596  68.7571669  59.2286777  61.4148569  69.7244167
  58.3447456  61.0769558  69.1834927  58.8228321  61.3823700  70.7355213
  59.6917582  62.8069305  69.3747663  60.5653620  62.8627539  68.8709736
  58.9609194  63.9283133  69.4470978  57.7973652  64.0714788  69.9334145
  57.3334122  63.3026600  70.3957653  57.3267269  64.9587154  69.8266125
  59.5655346  64.9920511  69.0168858  60.5335808  64.9494982  68.7319613
  59.1348410  65.8888578  69.1910696  60.1487589  56.4335442  70.3389549
  60.3869629  56.1344099  71.5174723  59.4252253  55.7016945  69.5551348
  59.1892004  56.0540438  68.6384869  58.9291191  54.3683243  70.0244617
  58.1853628  54.4700384  70.8147669  58.2582474  53.6572933  68.8141203
  57.3213577  54.1796637  68.6205482  58.9188910  53.7683010  67.9542780
  57.9774380  52.1738291  69.0094376  58.8572407  51.6808462  69.4229746
  57.0989466  52.1212339  69.6525526  57.6201296  51.3042021  67.7690887
  57.5940371  51.8020105  66.5780020  57.3144245  50.0911999  67.8964996
  60.0946426  53.5443544  70.6096458  59.8521805  53.0276346  71.6883993
  61.2846375  53.4280300  69.9787521  61.4321280  53.8623047  69.0788889
  62.4705219  52.8324461  70.5988169  62.1229029  51.8456411  70.9045553
  63.6739349  52.5847626  69.6170282  64.3258047  53.4581470  69.5978069
  64.7419024  51.6363382  70.2664757  64.3954182  50.6030416  70.2479458
  65.6062412  51.7604256  69.6140718  64.9100399  52.0448256  71.2629557
  63.2649183  52.1557570  68.1794596  63.4955359  51.1122417  67.9649973
  62.2358131  52.4634790  67.9941273  63.9860106  52.9484224  67.1340466
  63.7084579  54.0023708  67.1181488  65.0729561  52.8747129  67.1689510
  63.7036324  52.5360298  66.1653900  62.9722738  53.7030745  71.7381382
  63.2500267  53.2655621  72.8323507  63.2817459  54.9949980  71.4388704
  63.0210781  55.3139830  70.5166960  64.1301203  55.8374643  72.2693014
  65.1416922  55.4456043  72.3754644  64.3087673  56.6984415  71.6251707
  63.5395193  56.2864494  73.6255407  64.2514467  56.4627075  74.6260262
  62.2396898  56.1612844  73.7666893  61.8040609  55.9276485  72.8859234
  61.5136909  56.4051914  74.9574089  62.1169519  56.9258642  75.7011032
  60.2531672  57.2292757  74.6943188  59.5895576  56.6989756  74.0113068
  59.6627569  57.4421883  75.5854893  60.4361343  58.5371447  73.9493275
  60.9057474  58.3591557  72.9819155  59.1181231  59.2591381  73.6596394
  58.7086630  59.6306086  74.5990276  59.3322563  60.0005054  72.8898144
  58.5561562  58.4450912  73.2017899  61.2962198  59.5009756  74.7380447
  61.3597107  60.4574680  74.2192078  60.9898853  59.5192242  75.7839584
  62.3124504  59.1206837  74.8417282  60.9635925  55.0829315  75.6079340
  60.3428125  55.1218367  76.6576624  61.3548279  53.9343929  75.0940752
  61.8915939  54.0295935  74.2438269  61.0415459  52.5269556  75.5079174
  61.6313124  51.9513083  74.7945452  61.6346645  52.2808981  76.8980598
  61.1453247  52.8674650  77.6756096  61.4536619  51.2264919  77.1067858
  63.1947565  52.4910164  76.9497156  63.7353373  51.9883823  76.1476946
  63.4100056  53.5595417  76.9540739  63.8380289  51.9975519  78.2572842
  63.8853359  50.9091425  78.2924175  64.8891640  52.2635460  78.1456518
  63.3134365  52.5889301  79.4797802  62.8477287  52.0043325  80.1590919
  63.4373569  53.8340282  79.9518394  64.0391111  54.8458815  79.3290615
  64.4722223  54.6436882  78.4393215  64.2281151  55.6807041  79.8652077
  62.9929781  54.1020966  81.1361122  62.7289915  53.3363152  81.7394257
  63.3001804  54.9523497  81.5864372  59.5812845  52.1830320  75.3955412
  59.0565205  51.4943743  76.2412500  58.9101315  52.6320124  74.2814255
  59.4409323  53.0583525  73.5353804  57.5060320  52.2906446  74.0850210
  57.0996332  52.2111940  75.0933027  56.8134308  53.4951210  73.4233093
  57.1730518  53.5459995  72.3956013  55.7421303  53.2961893  73.4523344
  57.0798683  54.8373604  74.1430044  58.1121731  54.9990559  74.4533396
  56.7221975  55.9684229  73.2541180  56.6204643  56.9577122  73.7002897
  57.3743248  55.9219074  72.3819542  55.6955099  55.7783651  72.9412508
  56.2496853  54.8660755  75.4322481  56.7245865  54.1573858  76.1107302
  56.3874769  55.8120680  75.9559011  55.2147341  54.6289062  75.1858139
  57.1289730  50.9807587  73.3371353  55.9979200  50.5676746  73.3107281
  58.1627226  50.3939962  72.7755260  59.0267849  50.9085417  72.8690004
  58.2138109  48.9632940  72.3392773  57.4664831  48.5253811  73.0009699
  57.8083992  48.7951469  70.8327055  58.5932302  49.3250990  70.2929878
  57.8422689  47.7218390  70.6457138  56.5728426  49.3117666  70.4684162
  56.6559839  49.4884443  69.5284843  59.6638155  48.3968115  72.5871849
  60.6874514  49.0477705  72.6096869  59.7921658  47.0617008  72.5735235
  58.9533663  46.4992428  72.5606775  60.9837055  46.3639069  73.0440235
  61.8627262  46.9113159  72.7037525  61.1217499  46.3037014  74.5740938
  62.0213842  45.7755041  74.8899412  61.2769270  47.2827387  75.0274324
  59.9117994  45.6516790  75.2228069  58.6015892  46.2520742  75.4788828
  57.8037643  45.2894354  76.0037708  56.8030405  45.4157495  76.3897753
  58.4829187  44.1307974  76.0368204  58.1693792  43.2419682  76.3998318
  59.7270155  44.3015814  75.4415894  60.4506826  43.5088062  75.3223753
  61.0206842  44.9321604  72.5742769  59.9978209  44.2710781  72.2180223
  62.2374201  44.3967390  72.5736094  62.9281712  44.9848938  73.0175018
  62.5619507  43.0250311  72.3197556  61.8339682  42.7620125  71.5523148
  63.9995909  42.9929876  71.8349504  64.6701002  43.4606743  72.5559187
  64.1118860  43.5251284  70.8903265  64.7542763  41.3267612  71.6791296
  62.2603416  42.1838188  73.5885668  62.8813028  42.3480320  74.6323681
  61.4019156  41.2038469  73.3787727  60.7375574  41.3325262  72.6289892
  61.0036421  40.1153564  74.3116331  60.6779861  40.5996466  75.2322388
  59.8502588  39.2815137  73.8568783  60.0795174  38.8164186  72.8981161
  59.6269226  38.5317874  74.6159124  58.7136936  40.1172209  73.5727358
  58.9462280  40.6182671  72.7875710  62.1231985  39.1247010  74.5688200
  61.7869663  38.1678414  75.2664566  63.3005619  39.4156122  74.0323639
  63.3274460  40.2757454  73.5036421  64.4876051  38.6097622  74.4437456
  64.2888927  37.6936889  75.0000048  65.1448727  38.0368495  73.1908560
  64.5339060  37.2308969  72.7843332  65.2227163  38.7483954  72.3688221
  66.6033888  37.5105834  73.4910250  67.0640182  36.4508629  74.3219137
  68.4058094  36.5668106  74.3697834  69.0727377  35.9469533  74.9506330
  68.8361073  37.5786948  73.6170530  69.7848606  37.9102111  73.5167456
  67.6845741  38.1891108  73.1504393  67.6518583  39.1063118  72.5811625
  65.3461933  39.3936586  75.3915787  65.7047606  38.9376283  76.4757252
  65.8651781  40.4830933  74.9418163  65.8395433  40.5811596  73.9369106
  66.8359566  41.2920952  75.5291224  67.7639484  40.8091640  75.8352423
  67.2811270  42.2932720  74.5305729  67.7461052  43.1110382  75.0811720
  66.4065933  42.6652241  73.9967680  68.3730555  41.5704584  73.2709360
  66.4117575  41.8292809  76.8858337  67.2460461  42.0005274  77.7905560
  65.1544762  42.2716951  76.9832897  64.5449638  42.1438789  76.1881447
  64.5445395  42.8260803  78.2247448  65.2325630  42.5527334  79.0247536
  64.3128061  44.3237734  78.3212614  63.6104584  44.6026278  79.1067886
  65.6471491  45.0411463  78.5801220  65.4938602  46.1199379  78.5516882
  66.0040903  44.7844553  79.5775223  66.3924789  44.8148584  77.8176355
  63.6839294  44.9250841  77.0371342  63.6378193  46.0111570  77.1173143
  64.3531609  44.6708107  76.2152004  62.7178240  44.5233440  76.7316055
  63.3001423  42.0172262  78.5755825  62.2142410  42.4836254  78.2793665
  63.4138393  40.7791185  79.0360928  64.6212292  40.0559330  79.3104029
  65.1157379  40.3988934  80.2192211  65.3243113  40.1727915  78.4857130
  64.2160463  38.5881639  79.5160532  64.8500013  38.1203580  80.2692890
  64.1653252  38.0112004  78.5926676  62.8807068  38.7340164  80.2045536
  62.9688072  38.9535546  81.2685776  62.2628546  37.8401995  80.1181602
  62.2514963  39.9232244  79.4863081  61.6486359  39.5027494  78.6814070
  61.1706495  40.5658627  80.4180813  60.0060463  40.1289034  80.3819656
  61.6001940  41.5139341  81.2066078  62.5846004  41.7396736  81.1966705
  60.7807970  42.1181870  82.2769165  59.7435951  41.7952776  82.1872711
  61.2632799  41.5423059  83.6099911  60.7563972  41.9154692  84.4998932
  61.2481689  40.4526091  83.6307812  62.7401876  41.8622255  83.8243103
  63.3258581  41.0592222  83.3767796  62.9812193  42.8344679  83.3944988
  63.1597281  41.8987083  85.2925682  62.5246763  42.5235224  85.9205914
  63.0800676  40.8502436  85.5797482  64.6080065  42.4101543  85.1778221
  65.2154589  41.8912458  84.4363117  64.5658493  43.4921074  85.0525188
  65.2801323  42.1596050  86.4728355  66.2547112  42.1599007  86.2077045
  65.1340866  42.8426313  87.2023869  65.1872015  41.2592936  86.9210529
  60.8244419  43.6277103  82.3439026  60.9250975  44.2613649  83.4008503
  60.7965899  44.2380667  81.1319542  60.6951714  43.6683559  80.3041553
  60.6648588  45.7197189  81.0565567  61.5260410  46.1324453  81.5820312
  60.7629156  46.1641788  79.5081615  61.5723419  45.5477190  79.1171217
  59.7611380  46.0059929  79.1087723  61.3127041  47.5628471  79.3994713
  60.7705402  48.2903433  80.0035477  62.7679300  47.7230453  79.8576641
  63.4131050  47.1764803  79.1698313  62.8885698  48.8057137  79.8205662
  62.9328060  47.3980618  80.8849430  61.3846302  48.0429363  77.8974581
  61.1445332  49.1027260  77.9829073  62.3707485  47.9765844  77.4378204
  60.7078600  47.4740744  77.2599030  59.4250679  46.2463379  81.7685223
  58.3184385  45.7883930  81.5505219  59.6676493  47.2819614  82.5484562
  60.6247377  47.5980520  82.6130867  58.6832666  48.0747652  83.3492470
  58.4422493  47.2921515  84.0686321  59.3301582  49.3361235  83.9655876
  59.6138811  50.0438070  83.1866169  58.5484314  49.8804569  84.4953918
  60.5358648  49.0651608  84.9020386  60.7516623  49.9660921  85.4763699
  60.2762747  48.2027149  85.5159569  61.9087553  48.8084030  84.1853714
  62.5800323  47.8035736  84.4271851  62.2607994  49.6120262  83.2696056
  57.3730898  48.4743071  82.5158501  57.4528027  49.0594482  81.4737225
  56.2120008  48.0202055  83.0054760  55.8345127  47.1222305  84.0951633
  55.6533909  47.8250217  84.9084187  56.5801573  46.3728666  84.3608093
  54.4916105  46.4527225  83.5802269  54.0516996  46.0988617  84.5126247
  54.7629976  45.6788158  82.8622246  53.8060331  47.6476336  82.9728508
  53.5286570  48.4096766  83.7011719  52.9891920  47.4222565  82.2872257
  54.9602413  48.4127235  82.3031807  55.0964355  47.9510736  81.3252163
  54.7238588  49.8807430  82.0486164  55.0654984  50.6820726  82.9145622
  54.2424393  50.3109741  80.8763599  54.0719891  49.6496820  80.1322269
  53.9995098  51.7228794  80.5807114  54.8860693  52.3142481  80.8096313
  53.7367392  51.8208218  79.0258503  52.8127575  51.2849140  78.8086939
  53.4092426  53.2719135  78.6562729  52.6173735  53.6332130  79.3124056
  54.2597628  53.9440441  78.7701559  52.9379368  53.3101463  77.6741791
  54.9627876  51.4898157  78.1830931  55.7950497  52.1091747  78.5175133
  55.3590107  50.5169964  78.4741783  54.6977806  51.4014196  76.6283464
  55.5303907  50.8737421  76.1631489  53.7964106  50.8168173  76.4442825
  54.5838356  52.4487734  76.3487625  52.8172302  52.2492266  81.3934803
  51.7953587  51.5394878  81.3221741  52.7845955  53.3355284  82.2010612
  53.8423967  54.2998981  82.2944069  54.4354296  54.3784475  81.3832283
  54.4173336  54.0438843  83.1843567  53.1449795  55.5902100  82.6380348
  52.8080130  56.1160946  81.7447281  53.8070202  56.2696123  83.1748867
  52.0449972  55.1953697  83.5551643  51.1692762  55.8421898  83.6083889
  52.4911880  54.9949598  84.5292568  51.6483545  53.8647270  82.9450130
  51.4317369  53.2966995  83.8497353  50.3645372  53.9651108  82.1933842
  50.3814936  54.2828321  80.9775829  49.2518187  53.5844326  82.7635574
  49.3529701  53.1880426  83.6870003  47.9155254  53.3973885  82.1411705
  47.9924917  52.7701187  81.2530804  46.9976997  52.7380466  83.1477833
  47.1189594  53.2020187  84.1266346  46.0189390  53.0089903  82.7519226
  47.1989536  51.2478971  83.3396053  46.3151789  50.9768581  83.9171696
  47.1359491  50.8965158  82.3097229  48.5127592  50.8806801  84.0650749
  48.7425613  51.2377596  85.2463341  49.3588209  50.2363777  83.4080887
  47.3517990  54.7317266  81.7081547  46.7000628  54.7877598  80.6376362
  47.4362516  55.7641459  82.5549889  47.9268169  55.6174326  83.4255695
  46.8237162  57.0796204  82.3314476  47.1333790  57.5070143  81.3777447
  45.2775288  56.9534254  82.1825886  45.0492573  56.3425636  81.3091850
  44.8152208  56.7297459  83.1440163  44.5163298  58.1881475  81.9198418
  44.1063166  59.1407919  82.8239822  44.1122437  58.9728975  83.8908386
  43.6189365  60.2341700  82.1210289  43.2315540  61.0189533  82.6251507
  43.5747576  60.0117207  80.7859421  43.1991005  60.7444000  79.7099209
  42.9063892  61.7743731  79.8509169  43.2300091  60.2674007  78.4379768
  42.8331947  60.8550739  77.6233721  43.5927725  58.9332962  78.2537031
  43.5225201  58.5297346  77.2544050  44.1085148  58.1575727  79.3512726
  44.3749428  57.1203613  79.2112398  44.1484880  58.6884594  80.6254864
  47.1176052  57.9655266  83.5633659  46.8933010  57.6253939  84.7299767
  47.4638414  59.2475796  83.4108829  47.4668694  59.9559069  82.2074223
  46.6162157  59.7513819  81.5573025  48.3952475  59.7681332  81.6680241
  47.4425936  61.4286423  82.6063919  46.4091301  61.7189074  82.7956104
  47.7361536  62.1127367  81.8101883  48.2942247  61.4237690  83.8054943
  48.0066490  62.3046875  84.3794155  49.3526983  61.4184761  83.5452843
  47.8810644  60.1524496  84.4907379  48.7543631  59.7756290  85.0231457
  46.7641163  60.4309559  85.4992771  45.5808258  60.6589222  85.0622654
  46.9999886  60.4237270  86.8005657  48.2738972  59.9017715  87.3753548
  49.1378975  60.5332041  87.1682644  48.5214329  58.9172935  86.9783306
  48.0426455  59.8797512  88.8902950  48.6270189  60.7166338  89.2726994
  48.4737301  58.9928770  89.3547535  46.5947294  60.0971746  89.1097164
  46.3256598  60.7882547  89.9085331  46.0506105  59.1914415  89.3774605
  45.9917307  60.6945229  87.8410149  45.1078081  60.1106358  87.5843906
  45.6692934  62.2052526  87.8964710  46.3976669  63.0724955  87.3781490
  44.5542145  62.5553131  88.5820866  44.0116930  61.8424511  89.0485573
  43.9799976  63.9108562  88.6449814  44.0631342  64.2845154  87.6244164
  42.6545572  63.8256454  89.3154526  42.8703594  63.3746386  90.2840137
  42.3025656  64.8350954  89.5280743  41.6150236  62.9597950  88.6137295
  42.0305300  61.9666672  88.4429836  40.3267336  62.6785374  89.3822289
  39.7621036  63.5586262  89.6900272  39.6141672  62.0697260  88.8257217
  40.3962851  62.1606731  90.3388214  41.1911201  63.5736990  87.2879219
  42.0600510  63.8670015  86.6988277  40.5448246  62.8697300  86.7636681
  40.6317806  64.4948912  87.4511433  44.9555492  64.9655962  89.3315697
  44.9062252  66.1555576  89.1164684  45.9354973  64.4990826  90.0551510
  45.8527517  63.5156250  90.2697945  47.1270370  65.2137327  90.5453300
  46.8088436  66.1274910  91.0472298  47.7766228  64.4287205  91.6607285
  48.0408525  63.3989573  91.4201641  48.7458277  64.8331547  91.9525719
  47.2267580  64.4517040  92.6015854  48.1574297  65.7112408  89.3962479
  49.0741491  66.4788628  89.6320152  48.0753326  65.0828838  88.2223797
  47.4912167  64.2589903  88.2332039  48.9260960  65.2875042  87.0444775
  49.4851494  66.2009954  87.2472000  49.9361086  64.1451645  87.0482540
  50.4752302  64.0531731  87.9911137  49.5051098  63.1450462  87.0023727
  50.8926344  64.2765093  86.1092949  51.4885187  64.9531031  86.4390564
  48.2119370  65.4021263  85.6814861  48.8596487  65.7454491  84.6744061
  46.8737030  65.4288912  85.7071400  46.4196062  65.3106499  86.6015148
  45.9941053  66.0910559  84.6851349  46.4305258  67.0357800  84.3608952
  45.9599924  65.2019978  83.4685135  45.3363800  65.7126570  82.7347374
  46.9654036  65.0837135  83.0644608  45.1255989  63.6218929  83.9193058
  45.9295559  63.1917858  84.8958015  44.5452309  66.3705254  85.2262974
  44.1800070  66.0163546  86.3166809  43.7194920  67.1232653  84.4179535
  44.1589975  67.5172663  83.5983753  42.3913288  67.4499178  84.8406982
  42.3214006  67.2852039  85.9159088  42.1682024  68.4982014  84.6421528
  41.2917328  66.5894318  84.1993332  40.1994658  67.0609665  83.9686298
  41.6368580  65.3609324  83.9053917  42.5977516  65.0909662  84.0599728
  40.8522558  64.5544958  82.9112148  39.8434544  64.9639845  82.9635239
  41.4191675  64.6440792  81.4357185  42.4944019  64.4652939  81.4339161
  40.8474016  63.6524725  80.3841782  41.3852739  63.7891436  79.4460344
  40.9336662  62.6135063  80.7023048  39.7873616  63.8725758  80.2577496
  41.1918545  66.0878897  81.0390663  40.1281023  66.2980795  80.9279156
  41.5651608  66.7763996  81.7971516  41.5774488  66.1707020  80.0229168
  40.8287144  63.0327463  83.4265232  41.8779755  62.3796129  83.4920597
  39.6729779  62.3967934  83.6278725  38.3241439  62.9681301  83.5757446
  38.0866003  63.3339882  82.5768280  38.3352470  63.8828135  84.1684818
  37.3330212  61.9429636  84.0241051  36.7509842  61.5131474  83.2088757
  36.6330814  62.4458265  84.6914196  38.2541966  60.9064960  84.7002125
  37.6961136  59.9836397  84.5421791  38.4014940  61.0924530  85.7640839
  39.6224737  60.9758472  83.9894009  40.3940392  60.6999350  84.7081852
  39.6095252  60.0212097  82.7952671  39.1612267  60.4214430  81.7756748
  40.0681543  58.7586212  82.9263687  40.8069277  58.1584120  83.9869976
  40.2602386  58.2099152  84.9285793  41.7467165  58.7023211  84.0822220
  41.0470438  56.7073250  83.6817551  40.2502203  56.2386036  84.2592239
  42.0471001  56.3555431  83.9352131  40.7126665  56.5924644  82.1827126
  40.1209259  55.6888580  82.0362854  41.5661240  56.6105509  81.5049362
  39.8961926  57.8759670  81.8587685  40.2820826  58.2213211  80.8996487
  38.4341955  57.4197054  81.6626263  37.8298593  56.9969702  82.6502323
  37.9917002  57.2010279  80.4202175  38.6464167  57.4614573  79.6965933
  36.7344475  56.4641571  80.0288868  36.5705466  56.6166878  78.9621258
  36.9966221  55.0170088  80.3604412  37.3546791  54.7552967  81.3561344
  36.0228968  54.5362043  80.2667046  37.9113793  54.3486118  79.3362856
  37.5008488  54.2530537  77.9747343  36.5744710  54.6585846  77.5955629
  38.3094907  53.5899401  77.0093822  37.9428673  53.3970165  76.0120058
  39.4652915  52.8803682  77.4356318  40.0726700  52.3157883  76.7437220
  39.8439026  52.9604244  78.7759209  40.7724619  52.4612570  79.0104675
  39.0971184  53.6646271  79.7178459  39.2963791  53.5258436  80.7701969
  35.5095148  57.1328020  80.7933903  34.5363855  56.4133978  81.1331940
  35.5208302  58.4724236  80.9790039  36.2961984  58.9836788  80.5821133
  34.3852448  59.1886663  81.6144562  33.4224701  58.7913132  81.2930870
  34.5519829  58.9916945  83.1849098  34.2647815  57.9588366  83.3819485
  35.6024146  59.1921568  83.3958817  33.7868166  59.8449945  84.1671848
  34.0546036  59.4062138  85.1283646  34.1884637  60.8556938  84.0946388
  32.2443986  59.8246765  84.1051674  31.6351748  58.7893152  83.8038254
  31.6079235  60.9635639  84.4302177  30.6403661  61.0922241  84.1706467
  32.1451139  61.8187714  84.4423485  34.4746089  60.6606960  81.2477112
  35.4934216  61.1917257  80.7896709  33.3287978  61.3639498  81.2796974
  32.4646068  60.8510208  81.3805771  33.2512069  62.8413486  81.1736965
  33.7911749  63.1625795  80.2829933  31.8089366  63.2928991  80.8568192
  31.6280484  62.9281950  79.8456907  31.1683536  62.9413223  81.6656113
  31.7271709  64.8134136  80.7519531  32.0394468  65.0987530  81.7565250
  32.4369192  65.2347946  80.0400543  30.3029466  65.3433990  80.4470730
  29.7185969  65.0936079  81.3326454  30.2991581  66.4331484  80.4702568
  29.5445800  64.8047686  79.1764259  30.2176571  64.4677734  78.3880711
  29.0547061  63.9085484  79.5570993  28.5787487  65.7598877  78.6053085
  27.8846860  65.2359486  78.0916309  28.2550955  66.3378334  79.3677568
  28.9695430  66.3690519  77.9008150  33.8772893  63.6069822  82.3917103
  33.6549187  63.1185436  83.5194016  34.5301938  64.7566557  82.2304535
  35.1459455  65.3870010  81.0306168  34.6640420  66.3327932  80.7828999
  35.0921869  64.6957970  80.1895237  36.5820861  65.7563114  81.4183235
  37.0342016  66.4320564  80.6923294  37.2810125  64.9294186  81.5442371
  36.3651466  66.3088465  82.7895164  36.1231041  67.3692751  82.8602791
  37.2134352  66.2222099  83.4684849  35.2341652  65.4060793  83.3920670
  35.6814504  64.6088123  83.9857006  34.2690611  66.1659622  84.3129539
  34.0683126  67.3728180  84.2282772  33.7756634  65.4064751  85.3177547
  33.8792205  64.4025803  85.3573322  32.8752804  65.9398937  86.4184856
  32.3678374  66.8243217  86.0332680  31.8330359  64.9156809  86.7438698
  32.3909450  64.1468859  87.2784615  31.0880089  65.4082298  87.3687077
  31.0900736  64.3345928  85.5216789  31.6729379  63.7193441  84.8362255
  29.9441910  63.4140348  86.0447979  29.2375278  64.0084696  86.6239166
  29.3664980  62.9910231  85.2229500  30.3672338  62.6605940  86.7092133
  30.4439116  65.3245354  84.5021343  29.9660969  66.1960554  84.9496365
  31.2679839  65.7264519  83.9126682  29.8263168  64.7713041  83.7945938
  33.6562085  66.3897085  87.6841736  33.0742717  67.0953178  88.4759331
  34.9107122  65.9280586  87.8533459  35.1932430  65.1826859  87.2330952
  35.7485414  66.1801004  89.0173340  35.1820755  65.7966805  89.8659801
  36.9681931  65.3382540  88.9223862  36.7106414  64.2791510  88.9310265
  37.7579069  65.6401968  87.6702309  38.4531879  64.8182154  87.4998569
  37.1599102  65.6262827  86.7590141  38.3828378  66.5251541  87.7902985
  37.7862930  65.7500696  90.0158405  38.6338806  65.3104162  89.9163246
  36.1001348  67.6809740  89.1582775  36.4981914  68.4152079  88.2267475
  35.9545279  68.1655836  90.4078865  35.5395198  67.4691296  91.0102272
  35.8362961  69.5439720  90.8045864  34.8771691  69.9435329  90.4751587
  35.7502055  69.7199583  92.4157906  35.0253797  69.0787792  92.9174042
  36.7194676  69.6050596  92.9010105  35.4646277  71.0942984  92.6248932
  35.1819587  71.2256956  93.5328770  37.0177913  70.3758669  90.3229237
  38.1212449  70.0208092  90.5725861  36.7561841  71.4698887  89.5551586
  35.4732633  71.7523003  88.9333439  34.8160005  72.4429893  89.4616032
  34.9576998  70.8108664  88.7436104  35.7967067  72.5313282  87.6319504
  35.0827503  73.3307791  87.4338436  35.8390284  71.9464779  86.7131138
  37.2480631  73.1098557  87.8862381  37.1539688  74.1380548  88.2355976
  37.8046703  73.1168270  86.9490910  37.8679895  72.2158813  88.9713764
  38.4311581  71.4364815  88.4580803  38.7261438  72.9061747  89.9781513
  39.9697185  72.9290724  89.8989773  38.1554151  73.6555719  90.8640003
  37.1472859  73.6934280  90.9124470  38.9610744  74.5317411  91.7399406
  39.4586062  75.2281570  91.0649872  38.1448364  75.3850460  92.7173615
  38.6968613  76.0965300  93.3314896  37.3717690  75.9089279  92.1552086
  37.3929930  74.5704126  93.5714054  36.6668129  75.0807238  93.9372540
  40.0142288  73.6983442  92.5185108  41.0914135  74.2189121  92.6443291
  39.7596836  72.4584389  92.9784775  38.7823462  72.2037220  92.9731750
  40.5766869  71.4135838  93.5520554  41.0322809  71.8431139  94.4442558
  39.6982741  70.2494144  93.8429260  38.8210225  70.5203056  94.4304180
  39.2997050  69.8460388  92.9120541  40.4810715  69.2676640  94.7219944
  41.3903522  69.0022612  94.1826630  40.8241606  69.8475695  95.5787849
  39.6219921  68.1439924  95.2212048  40.2908707  67.6231050  95.9063148
  38.7432265  68.5520887  95.7205296  39.2636442  67.2870827  94.0867233
  39.4734192  67.5981331  93.1489944  38.7117863  66.0652351  94.1551399
  38.4347391  65.5220938  95.3280640  38.6894917  66.0462332  96.1529732
  37.9748797  64.6230459  95.3096581  38.4436607  65.3774261  93.1286240
  38.7846804  65.7161999  92.2403526  37.9658413  64.4879007  93.1517029
  41.7239904  70.9981108  92.5943661  42.9235220  70.9538603  92.9005146
  41.4298248  70.8275986  91.3054085  40.4567719  70.9646082  91.0719776
  42.3493576  70.7439089  90.1736927  43.0051517  69.8899937  90.3435707
  41.6337681  70.4102802  88.8116932  40.8716059  71.1736679  88.6553383
  42.2808409  70.5889320  87.9529190  40.9384108  69.0610456  88.5848141
  40.1583385  69.0208340  89.3450546  40.3407478  69.0126228  87.2241688
  41.0797358  69.1394567  86.4330196  39.7232175  68.1398630  87.0119286
  39.6435809  69.8263693  87.0244884  41.8462276  67.9013634  88.6590767
  42.6938391  68.0074930  87.9820347  42.3402262  67.7726364  89.6221447
  41.2434244  67.0013809  88.5375977  43.3117437  71.9457340  90.0509548
  44.5282078  71.9114065  89.8566437  42.7110386  73.1168985  90.0467968
  41.7082071  73.0621624  89.9398613  43.4802771  74.3535137  90.0280762
  44.0825605  74.2765427  89.1228485  42.5227737  75.5531359  89.7879124
  41.7046356  75.3837585  89.0878677  42.0725155  75.8165026  90.7449913
  43.3538055  76.6623449  89.5193005  43.8737488  76.4019442  88.7554646
  44.5061779  74.4494200  91.1348915  45.6486225  74.8040724  90.8647346
  44.0090752  74.3012333  92.4120331  43.0261564  74.0719795  92.4497223
  44.9050999  74.1537523  93.5870552  45.4152012  75.1065207  93.7289810
  44.0730190  73.6999941  94.7640228  43.0838251  74.1425180  94.6466827
  43.8709641  72.6383162  94.6222210  44.7144079  74.1013479  96.1297512
  45.7675982  73.8335943  96.0449409  44.6642160  75.1901436  96.1195850
  44.1367817  73.3510590  97.3369598  44.8362732  73.5334682  98.1527615
  43.2502985  73.8531733  97.7244186  43.9804459  71.9362211  97.0891190
  44.5778751  71.5536070  96.3702488  43.1025267  71.1667299  97.6604748
  42.4445295  71.5956163  98.6437893  42.6345539  72.4873209  99.0783596
  41.9374037  70.9219790  99.1997910  42.8089952  69.9953699  97.1413898
  43.2231712  69.7518301  96.2529945  42.0633125  69.4402552  97.5362396
  45.9824991  73.1443596  93.4409237  47.1087694  73.4820127  93.7356663
  45.6515265  71.8772554  93.1299496  44.6498632  71.7508507  93.1018639
  46.5290689  70.7041454  92.9584503  47.1608353  70.5966902  93.8401699
  45.7287741  69.3786049  92.7013874  44.9328995  69.5022440  91.9669533
  46.4684868  68.6431646  92.3850822  45.1315308  68.8374853  94.0102196
  44.8050213  67.6251888  94.0972519  44.9283600  69.5652819  95.0218678
  47.6574373  70.9818363  91.8958473  48.8337135  70.7034492  92.1880817
  47.2670078  71.5032434  90.7588196  46.3306093  71.8456793  90.5976105
  48.2030106  71.7515182  89.7090626  48.9213467  70.9328985  89.6648216
  47.5816202  71.9363213  88.3462524  46.9494390  72.8153038  88.2204056
  48.3729458  71.9622660  87.5970936  46.6719246  70.7490587  87.9975700
  45.7918596  70.7590532  86.8987465  45.1896000  69.5416307  86.9662380
  44.4340038  69.2040682  86.2723160  45.5825663  68.8371181  87.9870319
  45.2713537  67.9041481  88.2168293  46.5576649  69.5288563  88.6066628
  47.1386719  69.1607666  89.4393349  49.1435099  72.8983498  90.0401402
  50.2019262  73.0159187  89.4288254  48.8330364  73.7228060  91.0269642
  47.9867172  73.5519218  91.5510273  49.7733450  74.7764778  91.5793419
  50.2998686  75.1691723  90.7094765  48.8538265  75.8417749  92.1841621
  49.5923519  76.5801668  92.4963379  48.2684326  76.3050127  91.3899231
  48.2016802  75.4274178  92.9530048  50.9007025  74.2330933  92.5163746
  51.8491125  75.0254250  92.8294659  50.8543587  72.9708385  92.8664494
  50.0543737  72.4508762  92.5351524  51.9284058  72.2320557  93.6225796
  52.2696733  72.9567957  94.3617535  51.3307381  71.0213089  94.3940163
  52.1422482  70.7724857  95.0778580  50.0654078  71.2654686  95.2181911
  49.1611147  71.6304064  94.7311783  49.7842693  70.3623724  95.7599258
  50.3339767  71.9860315  95.9906960  51.0782719  70.0593519  93.4351730
  50.2693892  70.2481127  92.9538345  53.1112719  71.7328358  92.7234650
  54.0383673  71.0620213  93.2223797  53.0115747  71.9424200  91.4141941
  52.2854137  72.5790071  91.1183167  53.9528608  71.5076113  90.3668594
  54.5350170  70.6675625  90.7456875  53.1008291  71.0072899  89.2690086
  52.6197815  71.8290091  88.7384701  53.7313938  70.4792929  88.5536671
  51.9712496  69.9788713  89.5750046  51.2543726  70.4105902  90.2734470
  51.1961079  69.7141981  88.2438946  50.7530022  70.6082630  87.8052521
  51.8974638  69.4185686  87.4636459  50.4281092  68.9651060  88.4365845
  52.4245596  68.6715508  90.2188778  52.7873135  68.9787626  91.1997604
  51.5524006  68.0251122  90.3166103  53.3021259  68.2271338  89.7493553
  54.9068165  72.5621700  89.9630737  54.6024990  73.7446928  90.0778866
  56.1027956  72.1251631  89.5673847  56.3541603  71.1489677  89.5044327
  57.0985889  73.1110668  89.1930866  57.1134853  73.7756586  90.0569153
  58.5753393  72.5670624  89.0993118  59.2454767  73.4145260  88.9550114
  58.7880707  71.8955421  89.9311161  58.7084866  71.6263628  87.9367065
  58.4413671  70.4269075  88.0120277  59.1135025  72.1180201  86.8250847
  59.1471529  71.5416098  85.9963989  59.3629313  73.0967236  86.8199444
  56.6895866  73.9717484  87.9671383  55.8458996  73.5026789  87.1794605
  57.1758652  75.2181816  87.9369164  57.9655218  75.5109835  88.4944248
  56.6497612  76.1828756  86.9508553  55.6697559  76.5672207  87.2336578
  57.3764420  76.9928980  86.8883705  56.3291597  75.6886005  85.5395508
  55.1846313  75.7469893  85.1038551  57.3435974  75.0415611  84.8997211
  58.2739544  75.0461149  85.2928066  57.1869946  74.5533371  83.5650635
  56.6710281  75.3015995  82.9634190  58.6052179  74.3119574  82.9437160
  58.5595894  73.8720512  81.9474697  59.1732979  75.2422190  82.9408550
  59.0816736  73.6101389  83.6282253  56.3526297  73.2383108  83.5524940
  55.5500984  72.9649496  82.6406860  56.3563347  72.3974133  84.6128559
  56.9855118  72.5869513  85.3798676  55.3515387  71.2935781  84.7341824
  55.3351974  70.7051945  83.8167667  55.7401943  70.3449631  85.9652424
  56.8063021  70.1309204  85.8897209  55.4913282  71.0010767  86.7993164
  54.9142790  68.9915085  86.2127876  53.8664007  69.2598581  86.3470936
  54.9215508  67.9814863  85.0834179  54.3623590  68.4623337  84.2808056
  55.9200287  67.7854300  84.6926403  54.3885136  67.0510197  85.2788639
  55.4469633  68.2368326  87.4824524  55.5143976  68.8851976  88.3560467
  54.6946383  67.4657345  87.6483345  56.3556385  67.6909542  87.2286224
  53.8834286  71.8158817  84.8517895  53.0169439  71.0381317  84.4507885
  53.6246872  72.9495907  85.4808998  54.3511391  73.5712147  85.8064079
  52.3130322  73.5267782  85.5942726  51.6850519  72.7639723  86.0545540
  52.3696852  74.6711016  86.5348148  52.8972435  74.4016027  87.4497795
  52.9851103  75.3957415  86.0016537  51.0273504  75.3854036  86.8622780
  50.5095482  75.7771587  85.9867764  50.5014658  74.6370220  87.4551296
  51.2147236  76.6037321  87.8146839  52.3341322  77.1433306  87.9712200
  50.2686453  77.0873785  88.6085892  50.5436182  77.7569294  89.3130016
  49.3900347  76.5962982  88.6921787  51.8113995  73.8165045  84.1754341
  50.6723070  73.5066795  83.8742352  52.6536179  74.5162058  83.3766270
  53.5929346  74.7521162  83.6632061  52.4492407  74.7200251  81.9306183
  51.4767790  75.1970005  81.8084621  53.4269810  75.6421232  81.3205433
  54.4336987  75.2601528  81.4900112  53.3202267  75.8327723  80.2526665
  53.3880281  77.0995235  81.7842674  52.2733450  77.9046631  81.6567326
  51.3754177  77.4138260  81.3114643  52.3568869  79.2877054  82.0917416
  51.4887285  79.9237013  82.0010948  53.5246277  79.8721886  82.5757504
  53.5822105  80.9388447  82.7348709  54.6392632  79.0611887  82.6261044
  55.6156445  79.4350529  82.8968620  54.6045208  77.7133656  82.2029781
  55.4932356  77.1057367  82.2888947  52.3146057  73.4095097  81.1572456
  51.3879871  73.3073807  80.3592968  53.1296539  72.3495007  81.3364220
  53.9203930  72.4086094  81.9620037  52.9527998  71.1368084  80.5297565
  52.8774881  71.3307714  79.4598007  54.1420698  70.1135635  80.7194233
  54.1974878  69.9471569  81.7952156  53.9029789  69.1799212  80.2102566
  55.1172924  70.5674744  80.5433369  51.6799641  70.3910542  80.9235096
  50.8774233  70.0488758  80.0374794  51.3869333  70.2924633  82.2023392
  52.1372461  70.5661726  82.8205776  50.1014853  69.7290087  82.7451038
  50.0444746  68.6592007  82.5441837  49.9823999  69.8513889  84.2600155
  50.0187826  70.9034443  84.5427608  48.7304831  69.1088820  84.7172070
  48.8901281  68.0815983  84.3896484  48.6836052  69.2871237  85.7915115
  47.7814341  69.5109081  84.3625355  51.0940886  69.2554712  84.9334621
  51.8654776  69.8263264  84.9072170  48.8997889  70.2943945  82.0362854
  48.0099583  69.5835876  81.6568661  48.7869596  71.6217709  81.9415665
  49.5692730  72.1895695  82.2342968  47.6670265  72.3154163  81.2909985
  46.7999697  71.9291210  81.8268108  47.6706076  73.7698030  81.4564610
  48.3231068  73.9404964  82.3127460  48.0332232  74.3062115  80.5796146
  46.3408756  74.2852545  81.8711090  45.6052780  73.9644384  81.1334991
  46.0324574  73.7999344  82.7970982  46.2257195  75.7732821  82.0368481
  46.6493893  76.0975504  81.0863495  45.1965237  75.9888220  82.3239040
  47.1721125  76.2671137  83.1653690  46.6920900  75.9835005  84.1019821
  48.1797647  75.8687353  83.0469227  47.2872448  77.6672554  83.1621265
  46.3632774  78.0606079  83.2701015  47.7498245  77.9702044  84.0073109
  47.8150272  78.0252981  82.3789597  47.4939632  71.9207239  79.8611927
  46.5089178  71.2730360  79.5159817  48.4574175  72.1804523  79.0051460
  49.2193747  72.7893591  79.2673540  48.5259581  71.5018940  77.6583433
  47.7589941  71.9716024  77.0425177  49.8855686  71.9425392  76.9857645
  49.8918295  73.0306911  76.9226027  50.7704639  71.7042685  77.5759268
  50.2418423  71.2466478  75.6312323  51.2589359  71.5195847  75.3499222
  50.3683901  70.1726866  75.7679987  49.3622828  71.6944551  74.4409418
  48.2419205  72.2019434  74.6064186  49.8351812  71.5944004  73.2247400
  49.4850922  72.1504450  72.4576950  50.6090403  71.0033512  72.9565954
  48.1801319  70.0005388  77.6129436  47.3868847  69.5491982  76.7654371
  48.6923838  69.2213058  78.5410309  49.3682909  69.6168661  79.1788292
  48.3295488  67.8107929  78.6568117  48.5133123  67.2556543  77.7369452
  49.1307592  67.1297503  79.8356009  50.1682758  67.4634838  79.8189211
  48.7066174  67.3399305  80.8174515  49.0439129  65.6027269  79.7161913
  48.0076504  65.2648973  79.7276449  49.7787285  64.9402618  78.5118151
  49.2800903  65.2593994  77.5966072  50.8059931  65.3027391  78.4737253
  49.6932411  63.8556194  78.4459591  49.6588230  65.0457621  81.0067272
  49.2314243  65.5107594  81.8951035  49.5916891  63.9708662  80.8388042
  50.6914759  65.3833389  80.9185600  46.8485737  67.5497103  78.9448977
  46.2879419  66.7837620  78.1767845  46.2169313  68.1239223  79.9609995
  46.6877651  68.7954378  80.5504799  44.7434425  68.0753613  80.1710415
  44.4014692  67.0483494  80.2991104  44.3045092  68.9942169  81.2808323
  44.3121719  70.0585127  81.0456276  43.2828665  68.6772490  81.4902973
  45.0643969  68.6713552  82.4001408  44.9944687  69.5420504  82.7983856
  44.0015364  68.4812164  78.9663267  42.9607868  67.8307724  78.7292051
  44.3304682  69.6294737  78.3581495  45.1526213  70.1200914  78.6798143
  43.7927008  70.1394844  77.0214081  42.7158213  70.2679682  77.1305704
  44.4218588  71.4924860  76.6742325  45.5073833  71.3953638  76.6566563
  44.1332769  71.8171358  75.6745243  44.1261387  72.6949930  77.6239967
  43.0985594  73.0293655  77.4812460  44.4479036  72.4088860  78.6253500
  44.9379492  73.8800955  77.1816921  45.9989500  73.6631584  77.3054266
  44.7845268  74.0919256  76.1235332  44.5602560  75.1118517  77.8808403
  43.8320827  75.0231504  78.5751009  45.0149822  76.3834524  77.8248692
  45.8712435  76.7389154  76.9459677  46.1927795  75.9775829  76.3653708
  46.3519239  77.6222515  76.8523693  44.5821190  77.2643757  78.6735487
  43.9106512  76.9916201  79.3769932  45.0632238  78.1524277  78.6726522
  43.8293839  69.1746616  75.7646179  42.8482151  68.9149237  75.0869036
  44.9954319  68.5885620  75.5033207  45.8112669  68.8728809  76.0264635
  45.2236843  67.6086712  74.4649124  44.9284840  67.9985476  73.4907722
  46.6887379  67.3766756  74.1904449  46.7261791  66.4815283  73.5696316
  47.3501968  68.5474348  73.6092377  46.7284107  68.8454151  72.7650261
  47.4161911  69.3667650  74.3250895  48.3740854  68.3804369  73.2747746
  47.4676943  67.2119951  75.3758430  47.3876238  68.1122351  75.6995058
  44.5632839  66.2445927  74.8150492  43.8614225  65.7033396  73.9498806
  44.7151232  65.6983471  76.0219097  45.1004505  66.3866472  76.6526794
  44.0258551  64.4566250  76.4891720  44.2014217  63.6734962  75.7516146
  44.5180559  63.9908934  77.8909874  44.4784403  64.8952532  78.4981632
  43.8639164  63.2679796  78.3784246  45.9250498  63.4727716  77.8711462
  46.6449499  64.2533731  77.6251602  46.2849474  62.8462410  79.1926241
  45.6720495  61.9449472  79.1813135  47.3598671  62.6660967  79.1785812
  46.0423946  63.4314823  80.0796223  46.2050629  62.4041462  76.7721605
  46.1318111  62.9523087  75.8328819  47.1961451  62.0239592  77.0197868
  45.4512215  61.6176224  76.7374420  42.5289726  64.5593500  76.4320993
  41.8988991  63.5363913  76.2783575  42.0028448  65.7805395  76.5159321
  42.5941658  66.5454102  76.8081856  40.5345488  66.0329008  76.3787222
  40.0156927  65.5015278  77.1765518  40.1758242  67.4552107  76.7356014
  39.1035366  67.4042416  76.9245625  40.8457804  67.7986336  77.5238371
  40.3716612  68.2908297  75.6083584  41.3178778  68.4035969  75.4919434
  39.9505305  65.5994415  75.0543690  38.7322330  65.4696131  74.8923063
  40.8826256  65.3718853  74.0644884  41.8655920  65.4919672  74.2631388
  40.4076672  65.0423622  72.7127790  39.3816566  65.3903770  72.5932169
  41.3059378  65.8584738  71.6973925  42.3488140  65.5675220  71.8233347
  40.9980726  65.6168556  70.6800699  41.1407995  67.3692608  71.8608141
  40.1941442  67.7037621  71.4364910  41.1221552  67.7263737  72.8904867
  42.2628784  68.2368660  71.2306309  43.0760193  67.7999973  71.8103313
  42.2685575  67.9609013  70.1761580  41.7744923  69.6167564  71.4471960
  40.9273195  69.6638584  71.9950867  42.4560404  70.7507229  71.4700603
  43.7238741  70.6360197  71.0749626  44.0922308  69.7307158  70.8203316
  44.2496681  71.4519310  70.7958031  41.9360447  71.9671774  71.6336393
  40.9269810  72.0034742  71.6097116  42.4845171  72.7365971  71.2768841
  40.4122543  63.5071039  72.4972200  40.2193403  63.0249643  71.4321375
  40.6513977  62.7626610  73.5607672  40.8751059  63.1364298  74.4719982
  40.8973074  61.2907505  73.4487677  41.5121460  61.1096764  72.5671291
  41.6558266  60.7386971  74.7157145  41.7780924  59.6558762  74.7410536
  42.6342773  61.2061644  74.6052313  41.1941767  61.0665321  75.6471062
  39.6129179  60.4228401  73.3168364  38.8945031  60.2015877  74.3217182
  39.4253159  59.7807360  72.1318054  40.0413895  59.9920034  71.3598490
  38.3122873  58.8423443  71.8842316  37.8548312  58.6282301  72.8501463
  37.1604347  59.4300413  70.9573793  36.4529538  58.6128712  70.8166409
  36.3486695  60.4879189  71.6484833  35.4486370  60.5535746  71.0371447
  36.3088059  60.3544140  72.7295399  36.8721843  61.4436674  71.6243649
  37.5620580  59.9477720  69.7208261  37.9304934  59.2263508  69.2056417
  38.8294983  57.5595665  71.1812592  39.8505902  57.5674152  70.4720354
  38.1295133  56.4341640  71.3037872  36.9311380  56.1646652  72.0476246
  36.0924053  56.3423014  71.3745165  36.8147588  56.7796898  72.9399824
  36.9535089  54.6485758  72.4032021  35.9465885  54.2559052  72.5447083
  37.6390553  54.5608187  73.2460690  37.6472545  54.0507221  71.1779118
  36.9450498  53.8401794  70.3712606  38.2629585  53.2018757  71.4753485
  38.5568738  55.1936579  70.6443024  39.5823050  55.0676823  70.9917545
  38.5799217  55.1403236  69.0676022  37.7597094  55.7515764  68.3324671
  39.5109081  54.2749214  68.5639381  40.2142286  53.9219666  69.1970730
  39.6311402  53.8195372  67.1524811  38.7936378  54.2603970  66.6118002
  40.8752537  54.4157982  66.3316250  40.8638668  53.9091015  65.3666162
  40.5930042  55.9460163  66.2299299  40.6963634  56.4512396  67.1902227
  41.3660288  56.2628365  65.5298090  39.6690869  56.2354469  65.7292223
  42.1320677  54.1811848  67.0886469  42.0611858  54.4945002  68.1302357
  42.1417713  53.0927992  67.1472502  43.3814478  54.5891094  66.2230444
  44.3007231  54.1941786  66.6555595  43.3721352  54.2509365  65.1868725
  43.3838367  55.6718683  66.0976505  39.5094633  52.2433233  67.2212029
  40.0268507  51.6491222  68.1677008  38.9419103  51.5402794  66.1994219
  38.3863235  52.1389961  64.9675989  39.0875673  52.9125214  64.6545219
  37.3463297  52.4094915  65.1501989  38.3946419  51.0002708  63.9546776
  39.4067883  50.9651995  63.5516500  37.6782751  51.1167955  63.1414461
  38.0646968  49.7970867  64.8012877  38.4041667  48.8951349  64.2920303
  37.0079732  49.7690058  65.0670671  38.8689232  50.0819588  66.0925245
  38.3168769  49.6764231  66.9403982  40.2624512  49.3883610  66.0538864
  41.1788893  49.9742270  65.4711914  40.4868031  48.2017565  66.6899920
  39.7207975  47.7149248  67.1330833  41.7282104  47.4907303  66.8456936
  42.4210644  48.1603193  67.3553038  41.5740585  46.3571024  67.9021645
  40.9636974  46.6493559  68.7566519  40.9504938  45.6434679  67.3636580
  42.8972006  45.6128359  68.2475138  42.5699282  44.8021460  68.8984966
  43.3423281  45.2161741  67.3350286  43.8641691  46.5459347  68.9573622
  43.6625147  46.8002176  70.1868963  44.8044586  47.0463419  68.3159256
  42.5143909  47.0316267  65.5666351  41.8899584  46.6104555  64.5993423
  43.8086843  47.1774530  65.5934477  44.2609596  47.2937155  66.4890099
  44.6640015  46.7398739  64.5392895  44.0951109  46.7055130  63.6101580
  45.8066702  47.7616644  64.3068933  46.4627028  47.7785397  65.1772022
  46.4226723  47.2705698  63.5535860  45.4483128  49.1060734  63.7709904
  44.9798059  50.0413847  64.6660328  44.9280643  49.8101044  65.7197046
  44.6963310  51.4339447  64.2809439  44.2120981  52.0852184  64.9935198
  44.9441910  51.8042374  62.9410458  44.4287968  53.0007648  62.5248814
  44.7621584  53.2361031  61.6559267  45.4229927  50.7963657  62.0627117
  45.5602884  51.1083174  61.0379028  45.6320000  49.4766188  62.4480915
  45.9429502  48.7690163  61.6937637  45.1742840  45.3115606  64.8081398
  46.2391758  45.1301861  65.4128599  44.4739580  44.2980289  64.3780851
  43.7096262  44.5321512  63.7607574  44.8386002  42.9009199  64.7033453
  45.4766798  42.9886961  65.5826902  43.5200691  42.0536661  65.0015116
  42.9148054  42.0330334  64.0952444  43.8357925  41.0112143  65.0428438
  42.7222252  42.4469995  66.1765099  42.5854301  43.5235548  66.0744572
  41.3614225  41.7348671  66.0888386  40.6695509  42.3486948  66.6655827
  40.7440138  41.7887545  65.1921749  41.3578463  40.7327652  66.5176487
  43.3899927  42.0699787  67.5691700  44.4145203  42.4368286  67.6313496
  42.8809786  42.5601625  68.3990622  43.2563782  40.9924507  67.6649952
  45.8261538  42.3600101  63.6663485  45.5628729  41.2421656  63.1159830
  46.7857838  43.1276369  63.2506275  46.9147062  44.0727091  63.5827732
  47.6552486  42.8334475  62.0735884  47.6476336  41.7614794  61.8763018
  47.1926403  43.5537243  60.7898664  46.9365263  44.5715904  61.0838938
  47.9827881  43.7296963  60.0599384  46.0258007  42.7984190  60.1403475
  46.2706900  41.7753553  59.8549175  45.1828146  42.7318859  60.8281374
  45.7325029  43.5374117  58.8069391  45.7544422  44.6185207  58.9441299
  46.5823889  43.2628012  58.1821299  44.3520021  43.1690788  58.2719898
  43.6633730  43.5559654  59.0231323  44.1932535  43.6694574  57.3167324
  44.3363237  41.7154026  58.0887985  44.1273832  41.3110542  58.9904356
  43.6010790  41.4242458  57.4605131  45.2363539  41.3338137  57.8349543
  49.1983509  42.9936123  62.3501778  49.6560621  44.1288614  62.2954798
  49.8975372  41.8825245  62.7212286  49.4284582  40.9882832  62.7413225
  51.3251400  41.8221760  63.0436277  51.8278408  42.3501348  62.2332859
  51.6048002  42.5010157  64.4709873  51.2710857  43.5385942  64.4838476
  51.0334778  42.0285606  65.2700377  53.0476284  42.5369549  65.0261927
  53.2442093  43.3223724  65.7559729  53.3588505  41.5863085  65.4592228
  54.1206884  42.8304577  63.9312267  53.8763762  43.1769609  62.7818203
  55.3988171  42.7848482  64.2134666  56.0284090  42.7655697  63.4239435
  55.7088757  42.4748993  65.1233578  51.8870735  40.3935194  63.0429220
  51.2497711  39.4396043  63.5003948  53.0712795  40.1337862  62.5260687
  53.7547493  40.8421516  62.2998285  53.5780096  38.7250018  62.2448349
  52.7661467  38.1298065  61.8268347  54.8014593  38.8420773  61.3231277
  55.5442715  39.3634319  61.9268847  55.4263449  37.4509192  61.0849524
  54.6035624  36.7859530  60.8223677  56.2015343  37.4772716  60.3191280
  55.9355307  37.0571852  61.9646120  54.5747375  39.6042085  59.9783325
  55.3251553  39.2923975  59.2518711  53.5598373  39.3570495  59.6669006
  54.8246622  41.1093378  59.9086237  55.8577824  41.2978458  60.2005768
  54.6049643  41.5236282  58.9246511  54.1248131  41.5300179  60.6306601
  53.8317394  38.1069589  63.6623907  54.2153931  38.8522458  64.6292114
  53.5304642  36.8013287  63.8867140  53.0142117  35.8871794  62.9335546
  53.8167572  35.3874326  62.3910856  52.2902393  36.3067985  62.2350693
  52.3134041  34.7856879  63.7169075  52.3379040  33.8342595  63.1856060
  51.3215971  35.0762725  64.0632915  53.0410099  34.7366834  65.0189400
  53.8500357  34.0112758  64.9331427  52.3494625  34.4556618  65.8132267
  53.4822083  36.1906290  65.1803112  52.6860666  36.6042852  65.7992983
  54.7920895  36.2471104  65.9327269  55.8263826  36.3354087  65.2799320
  54.7002935  36.2371588  67.2280645  53.7595129  36.2749243  67.5935793
  55.9059334  36.2964392  68.0789614  56.3894320  37.2450781  67.8456926
  55.5191278  36.3977242  69.5575476  56.3777018  36.2844563  70.2194548
  55.0995111  37.3805261  69.7723055  54.5324469  35.4161119  69.9547005
  54.7323656  34.2125750  69.7523451  53.4529686  35.8118749  70.6765413
  53.0743742  34.9767447  71.1000109  53.4578276  36.7226863  71.1129904
  56.9089842  35.1543975  67.8570318  58.0739212  35.3578281  68.1317091
  56.4712906  33.9344716  67.5089312  55.4863930  33.8560271  67.2993422
  57.2585583  32.7561235  67.5406837  58.0624771  32.8833556  68.2656860
  56.3786221  31.6287994  68.0881166  55.4476881  31.5862727  67.5227308
  56.8450117  30.6494427  67.9811954  56.0959291  31.8171334  69.4282722
  55.4712296  32.5442910  69.4792175  57.9111624  32.5173163  66.1912584
  57.5689745  31.5793324  65.4681015  58.8399839  33.4984064  65.9927845
  58.8779306  34.2143464  66.7041826  59.7809267  33.6374831  64.9172688
  59.2517853  33.9359879  64.0122747  60.5836248  34.8897719  65.2704287
  59.8290634  35.6745648  65.2171230  60.8115435  34.8408055  66.3352108
  62.0263910  35.2467942  64.2372417  61.4149618  35.8081365  63.1903648
  60.6807423  32.3968720  64.5264149  60.9884501  31.5846920  65.3919983
  61.1320829  32.3343492  63.2756948  60.8713913  33.1268096  62.7063560
  62.0795012  31.2713838  62.7327824  61.8460131  30.3328896  63.2355881
  61.9209146  31.0392189  61.1817646  62.8460503  30.6028438  60.8051968
  60.9057474  29.8937988  61.0672998  60.8358526  29.6683860  60.0031567
  61.3118029  29.0360093  61.6034174  59.9198103  30.0616193  61.5007353
  61.3904381  32.1623850  60.3002453  62.0538473  33.0168223  60.4341364
  61.4372301  31.8246722  59.2649364  60.4172277  32.5858140  60.5485725
  63.4708548  31.4793706  63.2566547  64.2929316  30.5811357  63.1294775
  63.7555361  32.6891780  63.7339020  63.0794859  33.4371591  63.6740065
  65.1001596  33.0925798  64.1788006  65.6765270  32.1800995  64.3313980
  65.7116556  34.0388632  63.1193686  65.1817894  34.9913907  63.1255150
  66.7799044  34.2301583  63.2210970  65.5573606  33.4950328  61.8445158
  66.1793184  32.7684379  61.9271469  65.2952433  33.8412261  65.4678106
  64.3581676  33.9809060  66.2811232  66.5235662  34.3243814  65.7141399
  67.3251438  34.1220617  65.1339197  66.9484186  35.1997566  66.8393087
  66.4132738  34.8163486  67.7080584  68.0374002  35.1726842  66.8007755
  66.3580894  36.6545677  66.6420364  65.3929329  36.9046903  65.8862686
  66.9548225  37.5809121  67.3764801  67.7824354  37.3151183  67.8907871
  66.7142820  39.0339637  67.1960354  65.8572245  39.1047001  66.5262938
  66.1740780  39.6187353  68.5448933  65.3308678  38.9967847  68.8453484
  65.7157993  40.5978680  68.4056854  67.6013803  39.7290802  69.7174406
  67.8548670  39.7607803  66.5989351  69.0048456  39.2983079  66.6899681
  67.4689627  40.8260441  65.9197330  66.4666557  40.7969427  65.7987595
  68.2406473  41.6863871  65.0871944  68.9701033  41.0565758  64.5779467
  67.4150801  42.2711897  63.9335823  66.6404915  42.9109287  64.3564844
  68.0746651  42.7972889  63.2434607  66.5167046  40.8536005  63.1338835
  67.5512981  40.0087595  63.1614304  69.0443182  42.8015709  65.8670473
  69.6908379  43.5099745  65.1054335  68.9992189  42.9143333  67.1945572
  68.3516026  42.2856092  67.6477718  69.6711397  43.8698673  68.1274319
  69.1649151  44.8292685  68.0206919  69.4860172  43.3123350  69.5439482
  69.9538946  44.0251827  70.2229500  69.8269463  42.2797632  69.6191645
  67.6631927  43.4406805  69.8873997  71.1313343  44.1481113  67.7462244
  71.5571356  45.2906990  67.7810001  71.8499422  43.1392622  67.3758554
  71.4557123  42.2138357  67.4667645  73.2243919  43.2624292  66.7159939
  73.9030838  43.5735750  67.5101423  73.5303593  42.3210382  66.2596273
  73.2658863  44.2137241  65.5602312  74.0123796  45.1766205  65.4855537
  72.3891354  43.9562225  64.5918608  71.7819405  43.1511593  64.6491575
  72.3680258  44.6253204  63.2725668  73.4225321  44.6736431  63.0009365
  71.5718746  43.7955141  62.2534370  71.9587946  42.7825069  62.3639441
  70.4965734  43.7421560  62.4236774  71.7578220  44.1166258  60.8136415
  72.4598742  43.4546232  59.9342489  72.9433060  42.5363636  60.2334070
  72.3140860  44.0249777  58.6484289  72.6491451  43.5837030  57.8039694
  71.4827681  45.0997829  58.6508656  70.9650850  45.9355974  57.6542187
  71.3906097  45.7790899  56.6739988  70.1155519  46.9990206  57.9656458
  69.8480463  47.6844025  57.1750212  69.6815634  47.0586348  59.3140507
  68.9870024  47.8084612  59.6629763  70.0995111  46.1089563  60.2507114
  69.6715355  46.2452030  61.2328911  71.0779524  45.1112890  60.0039959
  71.7436123  46.0164928  63.3160210  72.2924948  46.9522429  62.7856445
  70.6406307  46.0195255  64.0102863  70.2882719  45.1468945  64.3769836
  70.1006937  47.2809792  64.5502567  69.6211720  47.8461742  63.7510633
  68.9383316  46.9829845  65.5236149  69.3089676  46.3384438  66.3206720
  68.5750246  47.8782558  66.0281897  67.6615572  46.3843632  64.7729969
  67.9260874  45.6117630  64.0510416  66.7006731  45.7106066  65.8038998
  65.7861185  45.5600595  65.2302885  67.1043873  44.7739792  66.1884260
  66.6765928  46.5068769  66.5478611  66.9335365  47.4503851  64.0734005
  67.4751854  47.6780367  63.1553078  66.0034323  47.0580482  63.6622143
  66.8145657  48.2888985  64.7595835  71.1138725  48.1711960  65.1817226
  71.4632845  49.2431593  64.5890474  71.7683554  47.7811766  66.2594366
  71.5828514  46.8376017  66.5682411  72.9297733  48.5231686  66.8145704
  72.6609659  49.5361423  67.1141100  73.4255695  47.8069830  68.0901670
  73.9792776  46.9128418  67.8037882  74.3629456  48.7021780  68.8627911
  75.1338291  48.9259243  68.1253815  73.8386250  49.6198130  69.1294861
  74.8180962  48.1413889  69.6791601  72.4247026  47.5370932  69.0874338
  72.0304298  46.7141056  68.7893772  74.0679550  48.7927055  65.8107805
  74.6901417  49.8844004  65.8546019  74.4521189  47.7973557  64.9607420
  74.0448618  46.8862343  65.1159763  75.5141163  47.9364347  63.9157438
  76.4445734  48.2674313  64.3770313  75.8415031  46.6012716  63.1457853
  76.1946344  45.9210062  63.9207983  74.9465084  46.2108707  62.6613569
  76.8957710  46.8773699  62.0523071  76.4250994  47.3606062  61.1961222
  77.6957369  47.4798441  62.4826288  77.3951292  45.5070639  61.5397692
  77.7462673  44.9467421  62.4062824  76.5944052  45.0115681  60.9907436
  78.5171986  45.7988024  60.5802250  78.2191515  46.5590525  59.8582220
  79.3604946  46.0680294  61.2161970  79.0370655  44.5932055  59.8420858
  78.2594776  44.0691662  59.4667912  79.6365976  44.8461962  59.0696526
  79.5929003  44.0765715  60.5086040  75.2111483  49.0475130  62.8681946
  76.0953903  49.8709059  62.6907778  74.0486336  49.0467882  62.2493315
  73.4528685  48.2461405  62.4046659  73.6066484  50.0627136  61.2306213
  74.3546009  50.1515436  60.4427242  72.3977137  49.5494127  60.4817581
  71.5657330  49.3697453  61.1626625  71.8491459  50.3774023  59.3695593
  72.2784853  49.9685717  58.4548855  70.7785845  50.2371931  59.2200851
  72.1350765  51.4246130  59.4680548  72.7226400  48.3341885  59.8679829
  72.6868486  47.5955105  60.4800844  73.4467649  51.4719534  61.7853308
  73.7080097  52.4874210  61.1643934  73.0120754  51.5596485  63.0853271
  72.8069019  50.6136560  63.3736038  72.8786469  52.7792978  63.9318800
  72.4666023  53.6125278  63.3626223  71.9825697  52.5045443  65.2398825
  72.2219181  51.5102530  65.6169701  72.1552420  53.4716749  66.3899803
  71.8867731  54.4978523  66.1390066  71.6192055  53.0611944  67.2457075
  73.2100677  53.3453369  66.6338682  70.5614424  52.5236893  64.8395109
  70.2023506  53.5490322  64.7510958  70.4450369  52.0497084  63.8648891
  70.0122070  51.9867849  65.6129313  74.3043756  53.3269405  64.3048429
  74.5276976  54.4962645  64.2037439  75.3187799  52.4513245  64.6424341
  75.1582718  51.4584923  64.5495415  76.7417192  52.8900671  64.9580336
  76.7329550  53.8190794  65.5280924  77.4877548  51.8559837  65.8674860
  77.5140285  50.8554840  65.4357433  78.5334635  52.1374464  65.9915018
  76.9692707  51.8483114  67.2959423  77.2661829  52.7714920  67.7936125
  75.9056091  51.6822386  67.4666882  77.7838993  50.8018923  68.0721569
  77.3947382  49.8774242  67.6455164  78.8705873  50.8076334  67.9874563
  77.3112679  50.8912039  69.5229340  76.2412834  51.0571623  69.6482086
  77.5323677  49.9412632  70.0095797  78.0741072  51.9999647  70.1716137
  77.7569056  51.9784880  71.1302710  79.0649366  51.8277979  70.2650023
  77.8051567  52.9089499  69.8230219  77.5060892  53.3424091  63.7445116
  78.0851460  54.4223738  63.7077856  77.2867107  52.6208830  62.6748848
  76.8497419  51.7112923  62.7173424  77.8317213  52.9149580  61.2987709
  78.9188433  52.9854584  61.3346624  77.4878502  51.9231939  60.2355957
  76.4118719  51.7955542  60.3542709  77.7068758  52.3009777  59.2368889
  78.3392668  50.6489801  60.4649591  79.3967819  50.8724260  60.3241253
  78.1194878  50.3165770  61.4795065  78.0094337  49.5123100  59.4816494
  78.9103937  48.6350918  59.3915558  77.0247602  49.5412970  58.7944889
  77.2548151  54.1673565  60.7463884  77.9569435  54.9526930  60.1810884
  75.9873104  54.5222425  61.0086966  75.3869915  53.7869024  61.3536549
  75.3961563  55.8155870  60.6541157  75.7171297  55.9114408  59.6168661
  73.8685131  55.7658768  60.7805347  73.6899042  55.4397821  61.8051624
  73.1476259  57.1195555  60.4620790  73.2984304  57.8369331  61.2687492
  73.4813833  57.4978113  59.4958305  72.0670128  57.0044899  60.3775978
  73.2987356  54.7860289  59.9170971  73.3523703  53.9323521  60.3529358
  76.0375357  56.9784927  61.3991976  76.2392521  58.0439949  60.8362150
  76.3258553  56.8141699  62.6872587  76.0247326  55.9097195  63.0210209
  76.8833733  57.6944208  63.6899424  76.3528872  58.6464453  63.6716318
  76.6334248  57.1470118  65.0922728  77.1107864  56.1689854  65.1530743
  77.0742273  58.0678940  66.2025785  76.5550852  59.0097046  66.0248899
  76.8080330  57.6435232  67.1706438  78.1497955  58.2429934  66.2266445
  75.2845955  56.9444466  65.3737497  75.0772429  56.0929346  64.9819183
  78.4030628  57.9932642  63.4952450  78.8336563  59.1616201  63.5199308
  79.2632580  56.9589281  63.3402824  78.9513540  56.0208225  63.5471106
  80.7105732  57.0663500  62.9354668  80.7844067  57.8960609  62.2324514
  81.6198254  57.3236990  64.1273022  81.2551498  58.2496166  64.5720387
  81.3608170  56.5850019  64.8858118  83.0880070  57.3176289  63.8201571
  83.4195900  56.3072014  63.5810137  83.3633137  57.9528475  62.9782534
  83.7646675  57.9342985  65.0618315  83.6771393  59.0182590  64.9878502
  83.2470322  57.5806332  65.9534979  85.1627159  57.5503588  65.1102591
  85.8313370  58.1918669  64.7083569  85.6212044  56.4551544  65.6966686
  84.8616219  55.5509233  66.1029577  83.8557911  55.6042814  66.0284328
  85.2246284  54.8533773  66.7368031  86.8545151  56.3774490  65.8580351
  87.4000454  57.1081638  65.4237986  87.3048210  55.5058575  66.0981560
  81.2234783  55.8223867  62.1443176  82.1446991  55.9732437  61.3502407
  80.6747246  54.6399832  62.4967575  79.8305988  54.6026993  63.0500841
  81.3268566  53.2974911  62.4114609  80.5796242  52.5039482  62.4175549
  82.2228622  53.1104660  61.1399841  83.1533432  53.6778498  61.1202431
  82.6002979  51.5944481  60.9498501  83.3280373  51.4670849  60.1484299
  82.9096127  51.1093378  61.8756437  81.7076111  51.0035229  60.7448673
  81.5203571  53.4257412  60.0222111  81.2517071  54.3444395  60.0958729
  82.1634102  53.1555367  63.6625195  82.9869461  54.0446711  64.0009642
  81.9597149  52.0251274  64.3373775  81.2633038  51.3680077  64.0159512
  82.6665974  51.6567755  65.6329536  83.6095524  52.1973038  65.7152224
  81.7061996  52.0168447  66.7732000  81.4328766  53.0702829  66.7127085
  80.8211613  51.3905191  66.6612864  82.2520256  51.8171120  68.1869888
  82.3073483  50.7567167  68.4331751  83.2393169  52.2779512  68.1555414
  81.5749264  52.5644445  69.3002701  81.3605690  53.8080931  69.3019485
  81.1273766  51.8332100  70.2268076  83.0885220  50.1934195  65.6822729
  82.3549652  49.3764019  66.1453581  84.1142750  49.7874069  64.9348116
  85.0052166  50.7499504  64.4002628  85.4450226  51.2488413  65.2638483
  84.5305443  51.4643383  63.7276268  86.0250187  49.9424219  63.6643457
  86.8567562  49.6561193  64.3080378  86.4251804  50.4798126  62.8045893
  85.3889370  48.6381960  63.1895876  86.0511589  47.8072262  62.9465771
  84.7726059  48.9474773  62.3454428  84.4330406  48.4485054  64.4041491
  83.5275841  47.9436445  64.0674591  85.0851440  47.4949265  65.5003452
  86.1403084  46.9178247  65.3053188  84.4015026  47.4567175  66.6296673
  83.5799122  48.0301714  66.7571402  84.9136448  46.7876625  67.8813648
  85.9028435  46.3741922  67.6848412  85.1344299  47.8059769  68.9821672
  85.8407593  47.4361038  69.7254038  85.9796906  49.0149689  68.4936523
  86.9450760  48.6360598  68.1581259  85.4080772  49.6079540  67.7797031
  86.1733818  49.7034836  69.3161678  83.8364410  48.3417320  69.6935558
  84.0218639  49.3759108  69.9837255  83.0002022  48.2011890  69.0086937
  83.4535408  47.6783228  71.0161829  82.6535225  48.2046461  71.5368176
  82.9607105  46.7324877  70.7911921  84.3208981  47.7069139  71.6757011
  84.0643120  45.5754280  68.3277225  84.5147800  44.6559525  69.1140318
  82.8314400  45.5652428  67.9007483  82.4924564  46.2783909  67.2709799
  81.8912983  44.4346333  68.3020020  82.5189400  43.5434866  68.2972431
  81.4693356  44.6085262  69.8068047  82.3242855  44.6795654  70.4792023
  80.8823967  45.5246782  69.8722458  80.6604385  43.5243845  70.4205322
  80.6257153  42.3699379  70.0905228  79.8095751  43.9485359  71.3623095
  79.0395260  43.3557940  71.6375971  79.7853804  44.8991919  71.7025518
  80.7139301  44.2811394  67.3519135  80.1955032  45.1835203  66.7003202
  80.2441597  43.0983686  67.1836853  80.6180573  42.2883701  67.6571894
  79.1179514  42.7125549  66.3150454  78.7412977  43.4926558  65.6534767
  79.5788145  41.5368605  65.3775454  79.8455763  40.7009411  66.0242176
  78.5426426  40.8728695  64.4315004  78.9218473  39.9070549  64.0975618
  77.5998831  40.6555653  64.9335814  78.4028196  41.4521599  63.5188246
  80.6616592  41.9930124  64.5812225  81.4868259  41.7927742  65.0291109
  77.8520441  42.3750830  67.1587515  76.7912531  42.1717119  66.6205835
  78.0224276  42.0755482  68.4359407  78.8647366  42.3371458  68.9280653
  77.0311975  41.3322401  69.2513800  76.1134720  41.0464144  68.7373972
  77.6616859  40.0692034  69.7668219  78.5472775  40.2837992  70.3649616
  76.7908144  39.1450167  70.6492805  77.2946453  38.1788540  70.6772900
  76.8253231  39.4735551  71.6880178  75.8194017  38.9607525  70.1904774
  78.0695391  39.2955041  68.7472057  77.2235823  38.9523005  68.4502554
  76.4951515  42.2750616  70.3985453  77.2730207  42.6497364  71.2399864
  75.2254725  42.7040672  70.2753067  74.6384430  42.1944904  69.6304560
  74.5724583  43.6140108  71.1644030  75.0794125  43.5828114  72.1288300
  74.6468306  45.0466299  70.5669928  73.9096880  45.0366163  69.7641134
  74.3182087  45.7305145  71.3495588  75.9575701  45.5434513  69.9798155
  76.9232035  46.1067152  70.8640289  76.7634344  46.0004950  71.9268560
  78.0204487  46.7667246  70.3507566  78.7657261  47.1901321  71.0077906
  78.1542635  46.9660378  68.9613533  79.2605972  47.5411510  68.4914541
  79.6559191  48.0539465  69.2002344  77.2011948  46.3032103  68.0629969
  77.2877073  46.4772415  67.0006275  76.1287785  45.5951929  68.6048174
  75.4128075  45.2218819  67.8875780  73.0647230  43.2437038  71.5106821
  72.4979687  42.2615623  71.0087395  72.4514771  44.0275669  72.3995590
  72.8975868  44.8991966  72.6472521  71.2002945  43.7635660  73.1151056
  70.7506561  42.8543425  72.7160597  71.4380646  43.3805847  74.5590210
  70.5732536  42.8490305  74.9560785  72.2613907  42.6684523  74.6147156
  71.7461348  44.5115376  75.3640604  72.6781178  44.6495438  75.1797295
  70.3136921  44.9922848  73.0232668  70.8152390  46.0487032  72.6504660
  69.0095472  44.8444796  73.3565521  68.6813354  43.8968658  73.4765530
  68.1114435  45.9888887  73.2587385  68.0731821  46.2774849  72.2083330
  66.7378569  45.5038166  73.7258053  66.2270641  44.8566008  73.0128527
  66.7480850  44.9651146  74.6733236  65.6657648  46.6221428  73.9271021
  64.9071884  47.0055151  72.8156853  64.9220467  46.4516973  71.8886137
  64.0534687  48.0800867  72.9281807  63.4474516  48.3598042  72.0791197
  63.8544035  48.7141800  74.2339849  62.7880764  49.5335340  74.3649340
  62.0815468  49.3968058  73.7295389  64.7251463  48.4169722  75.2871704
  64.4772911  48.9621973  76.1858892  65.6114149  47.3203182  75.1456881
  66.3120222  47.0505953  75.9220934  68.4440279  47.3055506  73.9785910
  68.2394075  48.2842684  73.2929945  68.9756060  47.2909069  75.1737309
  69.0964556  46.4401436  75.7044888  69.4734859  48.5174274  75.8748245
  68.6844921  49.2675304  75.9289551  69.7852850  48.2007504  77.3346186
  70.4650021  47.3544216  77.4336958  70.4775190  49.3428183  78.0214214
  70.0844288  49.3999529  79.0364695  71.5409803  49.1106987  78.0786514
  70.3274488  50.3426743  77.6141453  68.5781717  47.8455162  77.9894876
  68.6603498  46.8893814  78.0151176  70.7268238  49.1488218  75.1039982
  70.8623314  50.3441191  74.9117184  71.6554785  48.3366537  74.6115589
  71.3684416  47.3690367  74.6494532  72.6696396  48.8161516  73.6328506
  73.2802868  49.5226192  74.1950893  73.6747742  47.6193047  73.3406115
  73.1912136  46.8271017  72.7690458  74.4438887  48.0120325  72.6755333
  74.3146276  46.9659710  74.6348572  74.0774155  45.7653427  75.0092936
  75.2293730  47.5829887  75.1582336  72.1775246  49.4332075  72.3974705
  72.4857807  50.5977535  72.0842838  71.1476994  48.8285160  71.7557240
  70.8554125  47.8889847  71.9836617  70.3596878  49.3573999  70.6322670
  71.0270500  49.5988178  69.8049498  69.3234539  48.3605051  70.0517082
  69.8419046  47.6002550  69.4674730  68.8942003  47.8728676  70.9269524
  68.2045364  48.8219357  69.0863562  68.3753824  49.8426723  68.1306362
  69.2987251  50.3770638  67.9624939  67.2365475  50.2354145  67.3919201
  67.3052788  50.9775448  66.6102982  66.0331440  49.5823097  67.4779797
  65.2546406  49.8672056  66.7857647  65.8131313  48.7419701  68.5602951
  64.8613787  48.2441187  68.6730242  66.9229650  48.2864904  69.2971039
  66.8521070  47.5560141  70.0894260  69.6695995  50.6991529  70.9156227
  69.8792934  51.6766739  70.1712561  68.8279629  50.7816648  71.9454908
  68.5315371  49.9313593  72.4028826  68.2226467  52.0155430  72.4407673
  67.5825405  52.3566771  71.6271353  67.2607803  51.5333652  73.4905720
  66.4659262  50.9929323  72.9765368  67.6722813  50.8359957  74.2202568
  66.5205002  52.6288939  74.2711544  66.5824795  53.4668732  73.5768557
  65.4895735  52.4051476  74.5454216  67.2055626  52.8650188  75.6349993
  67.2910452  52.0175362  76.5225697  67.7956104  54.0319920  75.8683443
  68.3083868  54.0823889  76.7370367  67.7385092  54.8239851  75.2441740
  69.1998816  53.1547499  72.8759289  68.8865805  54.3175077  72.5445080
  70.2312660  52.8768253  73.5974789  70.3220415  51.9628096  74.0175200
  71.2071133  53.9486074  73.9354897  70.6789970  54.7670317  74.4247484
  72.2355747  53.3652973  74.9118423  72.6055527  52.4141836  74.5289564
  73.1612539  53.9326859  74.8154306  71.6144657  53.2629395  76.3416290
  71.3199139  54.2655611  76.6516113  70.7079697  52.6600742  76.2876177
  72.4909496  52.7520657  77.5045347  73.2096815  53.5674810  77.5859070
  71.8485832  52.6608419  78.3804035  73.2092524  51.4052200  77.2053480
  72.4937820  50.5869532  77.1237898  73.7837362  51.4691544  76.2812376
  74.1617632  50.9631205  78.2393837  74.9361181  51.6095686  78.1886578
  73.7325811  50.9565639  79.1536379  74.4379425  49.9980307  78.1279373
  71.9871140  54.4724083  72.7046061  72.2817421  55.6686211  72.6207399
  72.2062635  53.5737991  71.7241573  71.9966698  52.6082325  71.9335842
  72.7469921  54.0153837  70.3993320  73.6279964  54.6398687  70.5474949
  73.2801151  52.7798510  69.6623325  72.4975109  52.0664549  69.4040728
  73.7012434  53.1627464  68.7327385  74.0745592  52.3145628  70.2458334
  71.7703438  54.8082542  69.5135450  72.1837759  55.6758165  68.7492132
  70.4830694  54.4821072  69.5620298  70.3447819  53.5256672  69.8556232
  69.4329453  55.3612709  69.0634251  69.5739079  55.5496502  67.9991198
  68.0705833  54.6395206  69.2648983  68.0397224  54.0982151  70.2104855
  66.8376303  55.5844593  69.1492176  65.9788752  54.9451923  68.9443398
  66.6780043  56.0715866  70.1111603  67.0008039  56.3189650  68.3605623
  68.0218315  53.5222197  68.1782055  67.8433084  53.9808416  67.2056341
  68.8644600  52.8319359  68.2180452  67.1642971  52.8913689  68.4122181
  69.3181372  56.7469597  69.7181702  69.4673967  57.7546597  68.9948034
  69.1533995  56.8696880  71.0234594  69.0020704  56.0183334  71.5453768
  69.3564177  58.1286812  71.7880535  68.5843754  58.7929535  71.3997364
  69.1213894  57.7579498  73.2894564  69.8196840  57.0503092  73.7363672
  69.3173933  58.6075830  73.9435339  67.6729631  57.3027134  73.6304665
  67.3162127  56.4155579  74.4876480  66.7502832  57.9534626  73.0531502
  65.8305264  57.5937986  73.2647753  66.9875860  58.8631773  72.6840925
  70.6630754  58.9527702  71.5379333  70.6364441  60.1648951  71.3373470
  71.8039942  58.2638025  71.3662910  71.8535662  57.4425268  71.9520807
  73.0709219  58.8368607  70.9218836  73.3238792  59.6604967  71.5895176
  74.0738249  57.7264452  71.0129499  74.1198158  57.3049450  72.0171022
  73.6828327  56.9688654  70.3337574  75.4802132  57.9924583  70.5114079
  76.0095215  57.0413017  70.4545546  75.4146719  58.4965563  69.5472050
  76.2332773  58.8778591  71.5166616  77.2496319  59.0270042  71.1521339
  75.7259274  59.8403931  71.5816879  76.4094114  58.2977009  72.9594946
  75.3883505  58.1045008  73.2884598  76.9183302  57.3353195  73.0135489
  77.1550369  59.2980289  73.7947750  78.1179571  59.4108725  73.5116577
  76.5985870  60.1379585  73.8653517  77.1993208  58.9525700  74.7428274
  72.9776239  59.5530939  69.5921183  73.3710241  60.7019424  69.4938517
  72.2760344  58.9826393  68.6245251  71.6713810  58.2193184  68.8925505
  72.1443796  59.4588232  67.2325182  73.0679083  59.8027611  66.7667913
  71.7537069  58.3410597  66.3536406  72.4032116  57.4774361  66.4964533
  70.8356333  57.9263783  66.7699146  71.5316582  58.6954260  64.8436165
  70.7271290  59.4257498  64.7572660  72.8096342  59.4033766  64.2746353
  73.6777830  58.7447548  64.2997217  72.5088930  59.8123884  63.3100796
  73.0248213  60.3122234  64.8365974  71.0154581  57.4291897  64.0367222
  71.7425060  56.6176176  64.0659237  70.1039934  57.0475435  64.4968081
  70.7865000  57.6728201  62.9992628  71.1492825  60.5948114  67.1612549
  71.3708687  61.6267395  66.5336895  69.9970150  60.3086901  67.8300571
  69.9752712  59.3267345  68.0654240  68.7048292  61.0246086  67.7637243
  68.3348703  61.0515594  66.7387819  67.6797104  60.1753187  68.4793234
  67.5485373  59.2282104  67.9559803  68.0993891  60.0109911  69.4717789
  66.2689257  60.7791376  68.5824299  66.2547016  61.7904472  68.9888144
  65.6453657  60.8806038  67.1395683  64.5833540  61.1260271  67.1415377
  66.1149263  61.6624784  66.5426636  65.7487631  60.0258493  66.4711380
  65.4611683  59.7153473  69.4142866  64.5877266  60.1594925  69.8917150
  65.2756691  58.8538122  68.7728453  66.0072803  59.3967581  70.3021860
  68.8886213  62.4515247  68.2936049  68.4796715  63.4237051  67.6268005
  69.5621252  62.5719500  69.4364500  69.8561954  61.6895962  69.8302507
  69.9340105  63.7833548  70.1125097  69.0715933  64.4431305  70.2075911
  70.4158354  63.4439993  71.5347290  71.4316702  63.0489302  71.5444565
  70.3090000  64.6233177  72.6337433  71.0980511  65.3146124  72.3377466
  69.3029690  65.0186062  72.7742720  70.6277895  64.1971016  73.5849571
  69.5488310  62.5117683  72.0779467  69.8997879  61.6190195  72.0401716
  71.0211372  64.5856762  69.3578672  71.0747242  65.8238554  69.5205450
  71.8560362  63.9678669  68.4867001  71.8007994  62.9675817  68.3583164
  72.9324579  64.6080923  67.7767515  73.2357025  65.5446434  68.2447529
  74.1201735  63.5556746  67.7488804  74.9306965  63.8489294  67.0816803
  74.5771646  63.5138130  68.7375689  73.8006496  62.5607538  67.4388170
  72.6301670  64.8527384  66.2982559  73.3670282  65.6287336  65.6730556
  71.7379808  64.1438484  65.6724930  71.3569260  63.3004904  66.0770226
  70.9702063  64.6469116  64.4683981  71.6905880  64.6988058  63.6520338
  69.8632574  63.6521006  64.1989565  69.0851545  63.5317802  64.9527311
  69.3984079  63.8313532  63.2294798  70.5270290  62.3527479  64.1559362
  70.8583450  62.1000051  65.0207806  70.3514719  66.0614252  64.6559525
  69.7279692  66.4182711  65.6445980  70.4335070  66.8380260  63.6162949
  70.8061981  66.4494658  62.7617645  69.6879053  68.1398582  63.3504915
  69.9650717  68.7375259  64.2188644  70.1221085  68.8214302  62.0618677
  69.7970533  68.1168413  61.2963629  69.5415020  69.7373056  61.9515562
  71.6289949  69.1846466  61.9371462  72.2145557  68.2798815  61.7739868
  71.8842077  69.9821758  60.6342888  71.5523195  69.3531895  59.8082638
  71.3289309  70.9188986  60.5861330  72.9609632  70.1035404  60.5161142
  72.0310831  70.1195955  63.0640364  71.4098454  71.0148525  63.0902100
  72.0213652  69.5384312  63.9861250  72.9953766  70.5472660  62.7895641
  68.1676865  68.1128311  63.5460043  67.6746702  68.9898443  64.2402649
  67.5109005  67.1583128  63.0394459  67.0849991  41.6416168  71.2049198
  40.7524776  72.0367432  32.0624280  39.7888756  72.0218325  31.7601967
  40.8968639  71.0791969  32.3494172  41.3327360  72.2038317  31.2528110
  41.0005856  72.9902649  33.1241393  40.6596327  73.9288902  32.6872897
  40.2330208  72.6598024  34.4053149  40.6627417  71.6863823  34.6417499
  40.4369926  73.6254406  35.5808067  40.5893087  74.6337891  35.1959348
  39.6720719  73.6735725  36.3558435  41.3332844  73.3140564  36.1172771
  38.8847446  72.6498747  34.0016437  38.3544326  73.2020330  34.5808601
  42.4911928  73.0011463  33.4366751  43.0757332  71.9707727  33.7402487
  43.1049299  74.1590500  33.5186005  42.5699234  74.9883938  33.3039784
  44.5820332  74.2883778  33.6308098  44.9724245  73.7756014  32.7517462
  44.9486065  75.7759809  33.5537171  44.4635439  76.3256788  34.3603420
  46.0171890  75.9110069  33.7210655  44.5153141  76.4354658  32.2226381
  43.8647270  75.9607363  31.3626647  44.7830677  77.7482414  32.1384716
  44.4625521  78.1920910  31.2897229  45.4785156  78.1313562  32.7627110
  45.2388048  73.4636497  34.7853613  46.2463331  72.7758741  34.6049500
  44.6091700  73.5667706  35.9652424  43.8121319  74.1727686  36.0978961
  45.0843430  72.8372860  37.1222019  46.0799742  73.1157064  37.4676037
  44.2522430  73.0913782  38.3575583  43.1777954  73.0151415  38.1906819
  44.6418142  72.4487162  39.1470623  44.4480658  74.5016241  38.8952160
  43.8756037  74.5268774  39.8224425  45.5160332  74.6621513  39.0428138
  43.9728546  75.6622314  38.0040550  43.0859137  75.5518389  37.1476698
  44.5466185  76.8501091  38.1733012  44.2790031  77.5949192  37.5458121
  45.1473093  76.9548988  38.9784646  45.1578283  71.3303375  36.8971944
  46.2079859  70.7595825  37.1873093  44.1258574  70.7878256  36.2988496
  43.3168125  71.3892555  36.2369370  44.0646744  69.3769979  35.8691478
  44.3338680  68.7669945  36.7314315  42.6496744  68.9980555  35.3550172
  42.3756313  69.6547556  34.5293379  42.7793264  68.0294418  34.8722315
  41.6134501  68.9593649  36.4621949  41.7483330  69.8222971  37.1143198
  40.1824713  68.9554501  35.8947229  39.5559788  69.3804693  36.6789246
  40.1171637  69.6677113  35.0722146  39.9583220  67.9860401  35.4496455
  41.8777466  67.7166700  37.3355031  42.6335287  67.9801416  38.0754209
  40.9617043  67.5703859  37.9078412  42.1200228  66.8186569  36.7671919
  45.1420212  69.0974236  34.8190141  45.7092953  68.0171299  34.9133182
  45.2591705  70.0161695  33.8093138  44.7993231  70.9153557  33.7986612
  46.5025425  69.8581600  33.0604315  46.4442015  68.8832045  32.5765204
  46.6423655  70.9089375  31.9150114  46.6367722  71.9479656  32.2443986
  47.5519609  70.6614113  31.3677716  45.4409885  70.7635117  30.8770442
  45.2849531  69.6992350  30.7007909  44.5820284  71.0921097  31.4621234
  45.5449581  71.6463709  29.5812678  46.4466047  72.3894358  29.3063068
  44.6108294  71.5664530  28.6298513  44.8365545  72.0244265  27.7584100
  43.8320494  70.9323883  28.7374043  47.7992678  69.7171974  33.9068913
  48.5967159  68.8311577  33.5282898  48.0143833  70.6153631  34.8616338
  47.2396851  71.1694336  35.1977038  49.2510509  70.7076311  35.6171274
  50.0938797  70.6921339  34.9261165  49.1785955  71.8886518  36.5747809
  48.8705683  72.7814674  36.0306334  48.4449768  71.7206097  37.3632383
  50.4776478  72.3125458  37.2824645  51.3089705  73.3518314  36.7049599
  51.0269022  73.7657022  35.7481170  52.5042820  73.7150431  37.3255062
  52.9916430  74.5533895  36.8500519  52.9066658  73.0389833  38.5075402
  53.9548779  73.4699631  39.2055249  54.2994785  74.2576075  38.7783575
  52.0790577  72.0273399  39.0665603  52.3779821  71.5698481  39.9980879
  50.8493137  71.6706562  38.4756017  50.2435446  70.9051085  38.9375472
  49.3734646  69.4499636  36.4539289  50.3659582  68.7519312  36.4300299
  48.2528019  68.8991165  36.9538188  47.4374962  69.4891310  36.8685770
  48.0572367  67.6265669  37.7200866  48.6402321  67.7995300  38.6246896
  46.5818119  67.5084066  38.1554246  46.1603212  68.4619427  38.4735680
  46.0520649  67.1570301  37.2699857  46.3614321  66.4043140  39.1941643
  45.2922010  66.2424564  39.3306470  46.6792965  65.3922844  38.9434576
  47.1145964  66.7212534  40.7604980  46.6865778  65.1080275  41.6278648
  47.3034239  64.9225044  42.5071764  45.6821060  65.1450539  42.0494890
  46.8627930  64.2919111  40.9271479  48.4979439  66.3534784  36.9703293
  49.1884184  65.5156803  37.5726962  48.1556177  66.2794304  35.6650281
  47.6891756  67.0908976  35.2854872  48.6574793  65.3364658  34.6700883
  48.5960388  64.3302965  35.0847483  47.7934885  65.3773642  33.4973526
  46.7429638  65.2162457  33.7393022  47.8782129  66.2820768  32.8953481
  47.9950619  64.1211557  32.5923324  48.9916229  64.1665697  32.1531200
  47.8668022  63.1554413  33.0812502  47.0477104  64.0902233  31.3177538
  46.3876629  65.0419331  30.9717846  47.1183634  63.1419611  30.3970623
  46.3995886  63.0414677  29.6946621  47.9384804  62.5607491  30.2985716
  50.1088524  65.5155182  34.3047833  50.9068346  64.5799255  34.3361950
  50.4661989  66.6318941  33.6802292  49.7404003  67.3335075  33.6477852
  51.7328024  66.9328833  32.9941344  51.9698811  66.1931753  32.2294641
  51.4297009  68.2192087  32.2282076  51.0441542  68.8902760  32.9957557
  52.3880577  68.6172628  31.8947363  50.4726171  68.1131077  31.0271692
  50.0497293  67.0285845  30.5841017  50.1960850  69.3027115  30.5411673
  49.4624376  69.2623615  29.8481727  50.4353476  70.1858091  30.9689498
  52.9232693  67.0444727  33.9240909  54.0346766  66.9179583  33.4923601
  52.7244234  67.3734474  35.2060628  51.7875195  67.5997925  35.5078554
  53.8758898  67.4831724  36.2240362  54.7797585  67.0990467  35.7511997
  54.2337751  68.9467573  36.5348554  53.4747696  69.4645643  37.1212745
  55.6079006  68.8734484  37.3848724  56.0951662  69.8394966  37.5168872
  55.4125023  68.4462738  38.3684587  56.2115812  68.0968428  36.9152403
  54.6091652  69.7169495  35.2898359  55.0750923  70.6852007  35.4728913
  55.2815628  69.1112041  34.6823359  53.6850882  69.8593807  34.7295690
  53.6334229  66.6541338  37.5329876  54.4725227  65.8448315  37.9422402
  52.5194645  66.8767929  38.2056904  51.8754530  67.5441170  37.8056550
  52.2952604  66.4464855  39.6380973  53.1720448  66.7404079  40.2151299
  51.1648226  67.2260427  40.3676271  50.2730083  67.0186424  39.7762275
  50.8125162  66.7997408  41.7962980  50.0567913  67.4603558  42.2212219
  50.3458738  65.8146763  41.7992258  51.6940451  66.6974974  42.4291945
  51.5307999  68.7112093  40.3720951  50.7143497  69.3404150  40.7265091
  52.2496605  68.8732624  41.1752653  51.8209457  69.1596127  39.4219112
  52.2114801  64.9360943  39.8758125  52.9511595  64.4136477  40.7203150
  51.3999128  64.2240238  39.1143656  50.7489014  64.7139502  38.5174894
  51.2770605  62.7655602  39.2078972  51.0496664  62.4580812  40.2286053
  50.1640844  62.1856260  38.3344007  49.3562317  62.9171610  38.3161545
  50.4749393  62.0923376  36.7926812  50.7938576  63.0781889  36.4543223
  51.1993313  61.3055515  36.5821218  49.5886803  61.9024754  36.1872101
  49.6530247  60.8669996  38.8439083  50.5522156  60.2515316  38.8714385
  49.2583847  60.9297705  39.8580217  48.8068151  60.4919386  38.2682729
  52.5954437  62.1190071  38.7708426  52.9939032  61.1755228  39.4233251
  53.1594467  62.6837730  37.7632689  52.6574945  63.4373856  37.3158097
  54.4726419  62.3097229  37.3104453  54.4079256  61.2570810  37.0349979
  54.9114370  63.0422735  36.0456204  55.0925779  64.1070604  36.1923146
  55.8804274  62.6522684  35.7340932  53.9500999  62.8596306  34.8999476
  53.5638714  61.8403530  34.8993015  53.0340958  63.4006166  35.1373696
  54.4983006  63.3435583  33.5153294  54.7035742  64.4124937  33.5731864
  55.3396940  62.6758003  33.3302522  53.6435270  62.9247999  32.4109817
  53.1661892  61.9708776  32.6352239  52.9060698  63.7045813  32.2207284
  54.3384743  62.7194977  31.1564827  53.6661768  62.5693226  30.4178596
  54.8751545  63.5386372  30.9093213  54.9433804  61.9191980  31.2735915
  55.5700159  62.4243116  38.4033751  56.3877678  61.4965296  38.5390663
  55.5137491  63.5147715  39.2059207  55.0414991  64.3098116  38.7997341
  56.3979387  63.7244701  40.3493309  57.4343920  63.7034655  40.0125456
  56.1046410  65.1060104  40.8625603  55.0852394  65.1494169  41.2460136
  57.1100473  65.4000044  42.0556927  57.1998596  66.4614391  42.2867393
  56.7592382  64.9184752  42.9684687  58.1215048  65.0979805  41.7839718
  56.2310934  66.1296988  39.8740149  55.5203962  66.0661697  39.2317700
  56.1272335  62.6744127  41.4527988  57.0867968  61.8816280  41.7640209
  54.9051094  62.4625301  41.8608952  54.2135239  63.1031609  41.4983940
  54.5135069  61.5399790  42.9002380  55.1533127  61.6930866  43.7693214
  53.0665731  61.6983461  43.3605480  52.4407673  61.7466640  42.4694061
  52.6300478  60.8356714  43.8638783  52.7785635  62.9745722  44.2264843
  53.4666300  63.7548304  43.9011192  51.4117861  63.6258125  44.0105295
  50.5899811  63.0516148  44.4383574  51.4109421  64.5752478  44.5459461
  51.3397551  63.7642193  42.9317522  52.9700899  62.7423620  45.7229662
  52.2517681  62.0364809  46.1399174  53.9551353  62.3127985  45.9053850
  52.7575254  63.6787796  46.2387562  54.8589563  60.1328564  42.4406958
  55.4603624  59.3678427  43.2391024  54.7321844  59.8185873  41.1284637
  54.1822863  60.4038334  40.5159283  55.0958061  58.4551144  40.5800772
  54.5888948  57.6973009  41.1774635  54.5795441  58.3885431  39.1395426
  53.5193586  58.6121273  39.2583609  55.0273705  59.1682434  38.5234070
  54.6288538  57.0595694  38.4935308  55.6648684  56.5269566  37.8662014
  56.6190767  57.0250559  37.7779698  55.3104639  55.3253031  37.3320103
  55.8611536  54.7723484  36.6908503  54.0142393  55.0149870  37.6090646
  53.1769180  53.8947630  37.2990108  53.5982704  53.0702972  36.7430210
  51.9242525  53.7806416  37.9281402  51.3100386  52.9023170  37.7951503
  51.4570427  54.8789358  38.7397695  50.4827595  54.8549032  39.2051673
  52.2387600  56.0228205  38.8947797  51.8737984  56.8275452  39.5157719
  53.5638428  56.0820341  38.3705306  56.5518856  58.1309700  40.6244230
  56.8566895  56.9273663  40.6851387  57.5066996  59.1225100  40.7611275
  57.0703220  60.0333595  40.7664824  58.9970303  58.9569426  40.7511377
  59.1720200  58.0103970  40.2397394  59.6548367  60.1500750  40.0247002
  58.8942146  60.5817366  39.3741441  59.9519920  60.8457804  40.8094215
  60.8370733  59.5996428  39.1696906  61.5512609  59.1569805  39.8640156
  60.5362082  58.9135933  38.3779073  61.4981937  60.7156610  38.4812689
  61.9003201  60.2196455  37.5978827  60.8413267  61.5283442  38.1711650
  62.6292181  61.3204908  39.3026686  62.2880173  62.0470905  40.0400543
  63.1460810  60.5229712  39.8364425  63.5526705  61.9613075  38.3405924
  64.0758038  61.2733507  37.8179598  63.0260324  62.4568224  37.6354527
  64.2561245  62.5699902  38.7339926  59.5565128  58.7312174  42.1330404
  60.7112074  58.2726669  42.2489643  58.7655354  59.0253353  43.1527710
  57.8635168  59.4289446  42.9440689  59.2825079  58.9950514  44.5244932
  60.2128315  59.5628548  44.5385075  58.2409430  59.5270824  45.5798244
  57.7108002  60.3998184  45.1985359  57.4838018  58.7553120  45.7184076
  58.7319613  59.8599768  46.9574738  59.0565634  58.9137363  47.9147577
  59.6415472  59.5840454  48.9156246  59.9710751  59.0766859  49.8102713
  59.8597622  60.8240557  48.5945129  60.3550386  61.5526724  49.0884018
  59.1798782  61.0617208  47.3653793  59.1751051  61.9770050  46.7921162
  59.7286415  57.6274157  44.9139118  59.1659069  56.6583586  44.4112778
  60.7068634  57.5348091  45.7365561  61.1431885  58.3148861  46.2068748
  61.2685728  56.2444210  46.0280895  61.5866232  55.8691454  45.0554037
  62.5259876  56.3963509  46.8945551  62.2573853  57.0370197  47.7344990
  62.7329063  55.4321241  47.3588276  63.8137960  57.0948029  46.2735128
  64.1815710  56.5706825  45.3913879  63.4513140  58.0683947  45.9436321
  64.8904848  57.2330189  47.3378325  64.8688936  58.0673885  48.2109404
  65.8418322  56.3097095  47.4355793  66.4379883  56.2966967  48.2507658
  65.9697104  55.6467724  46.6844130  60.3101873  55.2649975  46.7992210
  60.6189966  54.0850973  46.8374395  59.2017555  55.8142376  47.4247408
  59.1774225  56.8171406  47.3076916  58.1613350  55.1058674  48.1693649
  58.5088730  54.0974569  48.3939219  57.9334497  55.8396244  49.5209074
  57.7198553  56.8998003  49.3848515  57.1053028  55.4206800  50.0925398
  59.0126371  55.8037806  50.6441307  59.7610569  54.6743965  50.7314682
  59.6455669  53.8542938  50.0382853  60.5903196  54.4983864  51.8735504
  61.1027384  53.5509443  51.9521952  60.6824160  55.5014658  52.8558302
  61.2523222  55.3609419  53.7623930  59.9919271  56.7007303  52.7033901
  59.9981689  57.4950743  53.4350824  59.1057587  56.8567991  51.6063118
  58.4374666  57.6898527  51.4456606  56.8642759  54.9355793  47.3051786
  55.9113550  54.3857479  47.8379869  56.8349361  55.2323341  45.9970856
  57.6562166  55.6987619  45.6392527  55.6683064  55.2153063  45.1288462
  54.8443222  55.6518650  45.6932735  55.8677530  56.2112713  43.9834785
  56.5731287  56.1035347  43.1595039  54.9374485  56.3109636  43.4242868
  56.0509205  57.1975374  44.4098997  55.2640009  53.8622665  44.5792580
  54.1063690  53.5796070  44.3993711  56.2116146  52.9610729  44.3818951
  57.1180010  53.2709837  44.7020769  56.0089493  51.6525984  43.8050985
  55.6694508  51.7718124  42.7762032  57.2470951  50.7696295  43.7427855
  56.9421816  49.7631264  43.4562826  57.9552078  51.1652374  43.0146551
  58.0267668  50.6321192  45.0301933  58.9121103  51.5486097  45.4545689
  59.2433882  52.3633575  44.8278046  59.1992521  51.2162066  46.7796230
  59.7980595  51.7962360  47.3497963  58.5707808  50.0657368  47.2204113
  58.5017776  49.3909168  48.3966637  59.0244722  49.8531199  49.2210150
  57.6358747  48.3256292  48.4850883  57.6836300  47.7824926  49.4173574
  56.8451643  47.8419065  47.4224806  56.1728096  47.0014334  47.5116444
  56.9940233  48.5269165  46.1967230  56.4622211  48.2596445  45.2955246
  57.7938652  49.6826601  46.0918236  54.9208593  50.7059336  44.3562794
  54.3563223  49.9474525  43.6174822  54.6356201  50.7558823  45.7049751
  55.1610804  51.6914177  46.8044806  54.5797491  52.6115656  46.7455387
  56.2109280  51.9777250  46.7416382  54.7704792  51.0519981  48.1204319
  54.6121120  51.8265438  48.8708305  55.5688667  50.3720999  48.4177685
  53.4546089  50.4302073  47.6733112  52.6847124  51.1860609  47.8284025
  53.2177162  49.5829773  48.3168840  53.5422564  49.9941683  46.2027311
  53.7393761  48.9271021  46.0997343  52.2331047  50.3992081  45.5462933
  51.2989426  49.5910406  45.4684639  52.1503210  51.7237186  45.1757288
  52.9754257  52.3038101  45.2286100  50.9427166  52.3161936  44.6159935
  50.0867128  51.7504311  44.9837875  50.7908726  53.7327290  45.2367258
  51.5141010  54.3676996  44.7250175  49.7999954  54.1297865  45.0162506
  51.0584402  53.7327099  46.6987705  50.0523281  53.2495975  47.5874186
  49.1335249  52.8600073  47.1745872  50.3301382  53.1808519  48.9579391
  49.6843958  52.6131821  49.6115255  51.6375875  53.5143661  49.4247150
  51.9626045  53.3846521  50.4464483  52.5948811  54.0063906  48.5549498
  53.6090612  54.1606617  48.8926601  52.2917080  54.1715240  47.2123241
  53.0573082  54.5418358  46.5466404  50.8735609  52.2909641  43.1054354
  49.8706913  52.6791286  42.5598478  51.7816257  51.5915155  42.4219179
  52.6359797  51.3246441  42.8898525  51.7514467  51.3105345  40.9779739
  51.5549517  52.1797705  40.3503466  53.1487751  50.7662201  40.5209780
  53.3410263  49.8728752  41.1151743  53.0536842  50.3796816  39.5062613
  54.3713951  51.6551018  40.5597878  54.2180204  53.0241585  40.9081602
  53.2614517  53.4352541  41.1951780  55.3320789  53.8901711  40.8104801
  55.2801800  54.9161148  41.1438608  56.6054726  53.4533596  40.4346037
  57.6266670  54.3137836  40.4210567  57.4578190  55.2579165  40.4623365
  56.7565298  52.0334721  40.1230145  57.7047396  51.6401958  39.7873950
  55.6604576  51.1984015  40.1311922  55.8069706  50.1886272  39.7772217
  50.6716442  50.3112125  40.5273390  50.5143499  50.0453806  39.3462324
  49.8500299  49.7545624  41.4820433  50.1526165  49.8758745  42.4379873
  48.8153458  48.7569904  41.2105989  48.5414410  49.0897608  40.2094316
  49.4674063  47.3102760  41.1282825  48.9776516  46.6505814  40.4120159
  50.5051136  47.3652315  40.7992744  49.5010376  46.4071798  42.3785591
  48.5088444  46.1801338  42.7685690  49.9996567  45.4857349  42.0778656
  50.3474712  47.0221138  43.4817696  51.5664673  46.9005489  43.3933640
  49.7649193  47.6071405  44.5142555  50.4291487  48.0826998  45.1081800
  48.7753296  47.6109791  44.7162628  47.5302839  48.7860918  41.9968700
  47.5255251  48.9365196  43.2340479  46.3777637  48.5563469  41.3230467
  46.1887550  48.2990026  39.9048853  46.8886757  47.5181627  39.6073937
  46.2425089  49.2098379  39.3085647  44.7741508  47.8102684  39.6440220
  44.8821878  46.7270803  39.7000933  44.3970680  48.1966114  38.6971068
  44.0056419  48.2213783  40.9210968  43.0958223  47.6437426  41.0843992
  43.7181520  49.2687654  40.8292913  45.0926304  48.2677650  42.0201683
  44.8348904  49.1768074  42.5636005  45.1117849  47.0657396  42.9392338
  45.3070545  45.9929466  42.4217319  44.9831057  47.3607063  44.2560625
  44.7109556  48.2947540  44.5273256  45.4222536  46.3925743  45.2811623
  46.4950228  46.2346172  45.1701689  45.1132965  47.1044588  46.6869879
  44.0243006  47.1509123  46.6817427  45.6832838  46.2230253  47.8154421
  46.7517328  46.0424662  47.6974821  45.3841639  46.6387463  48.7776279
  45.2206945  45.2421331  47.7060413  45.6393290  48.4734678  46.8875074
  45.3992653  48.9270878  47.8491211  46.7238951  48.3708382  46.9234705
  45.3303099  49.1467810  46.0879755  44.8221970  44.9892950  45.1240301
  43.5970688  44.8894024  44.8410606  45.5745983  43.8552666  45.3343105
  46.5406895  43.9569426  45.6107616  45.0812197  42.5293732  44.9008131
  43.9946795  42.5762653  44.8277998  45.8100557  42.0985031  43.5948753
  45.6176805  42.6978827  42.7050257  46.8915892  42.1935081  43.6916399
  45.5930281  40.6049967  43.1873369  46.5074873  40.0239420  42.4879408
  44.5568848  40.0894976  43.5853767  45.3979301  41.4934778  45.9934902
  46.5786695  41.2372160  46.3307333  44.3821478  40.8460379  46.5419769
  43.4395027  41.1014748  46.2845469  44.5201397  39.8209596  47.5102091
  45.0451708  40.1954842  48.3889437  43.1063795  39.3330979  47.9853439
  42.3430252  40.1077175  48.0586052  42.6599216  38.6319280  47.2802639
  43.1802845  38.8509631  48.9601183  45.3176880  38.6518502  47.0286846
  46.0428810  38.0408001  47.8455830  45.3268385  38.2372499  45.7380819
  44.7166443  38.7273502  45.0996733  46.0081244  37.0290136  45.3287601
  45.9119606  36.2974262  46.1310291  45.3687811  36.5889454  43.9845228
  45.4330301  37.4029636  43.2624769  46.2417173  35.5564809  43.1944942
  47.2839546  35.8638716  43.2802534  46.2730932  34.5777965  43.6733389
  46.0122824  35.5390573  42.1290541  43.9223146  36.0849547  44.2150640
  43.8503742  35.1783872  44.8159456  43.4353256  36.9088101  44.7367954
  43.0526543  35.8141303  43.0146408  43.4815216  34.9640656  42.4840212
  42.0310163  35.6319547  43.3480740  42.9243803  36.6111541  42.2822475
  47.5206709  37.2934532  45.3227377  48.3118296  36.6732121  46.0250092
  47.9766226  38.2068515  44.4530869  47.3026466  38.5487270  43.7830305
  49.4088030  38.4985375  44.3393135  49.9893522  37.5833988  44.2227554
  49.5964193  39.3293643  43.0836344  49.0909338  38.8239694  42.2607374
  49.1355705  40.2859116  43.3300877  51.0856676  39.5022559  42.7082968
  51.6764593  39.9988937  43.4779835  51.6056347  38.5573602  42.5504732
  51.3205957  40.3516150  41.4337301  50.6111622  40.0240517  40.6737947
  51.1514187  41.4067745  41.6484880  52.7374935  40.1788568  40.8922911
  53.3672571  40.1231527  41.7802048  52.8531933  39.1567016  40.5318546
  53.1735897  41.2151575  39.9358654  53.0869055  42.0818710  40.4471350
  54.1232586  41.1726427  39.5946598  52.5699711  41.2021780  39.1261911
  50.0357056  39.1101336  45.6256056  51.1490679  38.7448931  45.9811163
  49.3314123  40.0145626  46.2620258  48.3870125  40.2368641  45.9813309
  49.9338436  40.7668352  47.4392128  50.9912109  40.9350109  47.2347546
  49.4088173  42.2601080  47.4443674  48.3866501  42.1945620  47.8171730
  49.9867392  42.7502251  48.2278824  49.4670582  43.0998659  46.1191750
  48.8319683  42.5803423  45.4016352  48.8124657  44.4885731  46.3596916
  47.9138803  44.3949938  46.9695234  49.5155764  45.1461363  46.8709087
  48.5805893  44.9988365  45.4248285  50.8431864  43.2933617  45.4293776
  51.1057615  42.2639370  45.1855707  50.8055210  44.0225077  44.6200371
  51.5147448  43.6640644  46.2037706  49.7464323  40.1652813  48.8630533
  50.3839540  40.6203365  49.7846317  48.8973761  39.1352177  48.9456177
  48.5481977  38.9129877  48.0243158  48.5105467  38.3569050  50.0990248
  47.7678442  37.6538992  49.7218370  49.7921419  37.5705028  50.5961943
  50.4611969  38.2404423  51.1362362  49.4586039  36.8239665  51.3169861
  50.6020641  36.8688631  49.5609283  50.1136541  36.1023927  48.7993240
  51.8923616  37.0207667  49.4473934  52.4206781  36.7867184  48.6190176
  52.3007441  37.5666428  50.1926088  47.7489233  39.1767788  51.1983538
  47.9723501  39.0830922  52.4166822  46.8358994  39.9719214  50.7045269
  46.7180443  40.0198746  49.7025728  45.9362316  40.9179497  51.4962053
  46.2433195  40.8770227  52.5412512  46.1472702  42.3113585  50.9345913
  45.9774494  42.2477198  49.8597813  45.3720617  42.9318190  51.3842344
  47.4775934  42.9945660  51.0534859  48.1905842  42.3500347  50.5393553
  47.3220444  44.3499565  50.4456615  47.1802425  44.4038105  49.3662691
  46.4198351  44.8089075  50.8499908  48.0781841  45.0247002  50.8470106
  47.9659224  43.1742620  52.4813938  47.4971724  44.0382290  52.9524946
  47.7546072  42.3030949  53.1014872  49.0155458  43.4648561  52.5254822
  44.5107698  40.4354334  51.4569807  43.7988710  40.8693886  50.5258179
  43.9713430  39.4794226  52.2534800  44.6573305  38.7814498  53.2846546
  45.0850487  39.4486547  54.0329885  45.4363871  38.1858540  52.8087950
  43.6604786  37.7925611  53.9217377  43.0556440  38.0519319  54.7906494
  44.1794538  36.8789363  54.2116690  42.6713514  37.5910830  52.8116894
  41.6467237  37.4633837  53.1608820  42.9100323  36.6376162  52.3404837
  42.6969767  38.8447690  51.9215488  42.7721119  38.4495282  50.9085131
  41.4244175  39.7019482  52.1627617  40.3557110  39.3011618  51.7290497
  41.5002871  40.6649590  53.1238317  42.4249506  40.9419107  53.4211493
  40.4509830  41.4721107  53.6940002  39.4660211  41.2028837  53.3125925
  40.4600191  41.1787653  55.2218819  39.7618151  41.8927383  55.6587505
  40.0596905  40.1800776  55.3963947  41.8622923  41.2624407  55.8590269
  42.1156836  40.5796146  56.9018602  42.7923107  41.9713974  55.2879906
  40.5797100  43.0314207  53.3966923  39.9278903  43.8826799  54.0173483
  41.5283966  43.4221601  52.5342894  42.0487738  42.7192116  52.0291424
  41.7278910  44.8027992  52.0834923  41.9870090  45.4959774  52.8837776
  42.9527426  44.8558331  51.2780619  43.6972761  44.4336033  51.9529676
  42.8896999  44.2990017  50.3431511  43.2828522  46.2591171  50.9291553
  42.5732899  46.8989849  49.9113131  41.9159555  46.3716793  49.2358398
  42.7627897  48.2573748  49.6161604  42.2949314  48.7221670  48.7608910
  43.6826611  49.0230703  50.3511333  43.9958715  50.3243303  50.1558495
  43.7205744  50.5265570  49.2586756  44.4141912  48.4080982  51.3660669
  45.0250673  49.0630579  51.9696045  44.1639566  47.0623636  51.6626120
  44.6891260  46.6513062  52.5121021  40.4417515  45.4126930  51.5047503
  39.8158813  46.3076448  52.0673084  39.9443841  44.7195625  50.4864025
  40.3639889  43.8380909  50.2274752  38.5524225  44.9900579  49.9197054
  38.4419465  46.0432816  49.6616173  38.2218623  44.1606522  48.6513805
  38.4211850  43.0919123  48.7298727  37.1478677  44.0900278  48.4791851
  38.8795042  44.7962570  47.4689579  38.4847140  44.4751120  46.1352348
  39.1907620  45.2505970  45.3859282  39.0718269  45.3318167  44.3155766
  39.9669933  46.1344528  46.0754633  40.6292439  46.7666674  45.6490517
  39.7333336  45.8729839  47.4487925  40.1010609  46.4512253  48.2835436
  37.3657036  44.8136330  50.9461260  36.4149809  45.6598377  50.9019327
  37.4380159  43.9300680  51.9316816  38.3273506  43.4754753  52.0817900
  36.4413977  43.7865305  53.0555058  35.4416823  43.8450336  52.6250982
  36.4413786  42.5015593  53.8779497  37.2769499  42.3531199  54.5619726
  35.5494380  42.3763275  54.4918394  36.5006518  41.3221931  52.8962517
  37.4329376  41.3730192  52.3337936  36.5670347  40.4166555  53.4993219
  35.3288317  41.2033272  51.9633770  34.3664336  41.2289762  52.4744892
  35.3118968  42.0352745  51.2593317  35.3894854  39.9553490  51.0944366
  35.4204416  39.0802979  51.7436123  34.4197583  39.9868274  50.5977058
  36.3886857  39.9228144  49.9499607  36.3431263  40.7541370  49.3781853
  37.3319745  39.7980952  50.2887201  36.2227154  39.0818548  49.4157887
  36.5643454  45.0677443  54.0146732  35.5111361  45.6243849  54.4041252
  37.7219868  45.3995514  54.5032263  38.4986162  44.7845602  54.3064117
  37.9822993  46.4653730  55.4834652  37.2696567  46.2364960  56.2758398
  39.3503594  46.1714792  56.1828756  40.1249981  46.0931253  55.4200506
  39.9060202  47.4266481  56.9541836  40.8820391  47.2081184  57.3874617
  40.0936365  48.2770348  56.2986374  39.2327762  47.6701021  57.7761173
  39.3255711  44.8698759  57.0398808  38.7267828  45.1588631  57.9036188
  38.8855815  44.0035295  56.5459728  40.7665586  44.3265247  57.3515654
  40.7985640  43.5740757  58.1395292  41.1723423  43.8033199  56.4857149
  41.3466167  45.1515198  57.7651119  37.7875423  47.8559875  54.9283123
  37.0858574  48.6836386  55.4292154  38.4119391  48.0928898  53.8001966
  38.8808084  47.3078251  53.3713150  38.4309649  49.3762398  53.0030251
  38.3161211  50.2866507  53.5912943  39.8551440  49.5691013  52.3552179
  39.9834323  48.7957954  51.5978241  39.8292661  50.9087276  51.7044592
  39.8072457  51.7151165  52.4375057  40.7583141  51.0622358  51.1554623
  39.0300679  51.0215473  50.9718847  41.0669756  49.5039272  53.3145189
  41.1838961  48.4551620  53.5875034  41.9729900  49.6098852  52.7178478
  40.9911537  50.3751230  54.6174097  40.9109926  51.4316273  54.3615294
  40.0447416  50.0502110  55.0496578  41.8302584  50.3142738  55.3104544
  37.2160387  49.4829655  51.9803047  37.1864104  48.9252567  50.8424997
  36.1971879  50.2609873  52.4567699  36.3427615  50.6221962  53.3886719
  35.0063658  50.6622696  51.6475916  34.4032407  49.7729540  51.4646673
  34.1065359  51.6003036  52.5977278  34.6451068  52.5149393  52.8456974
  33.3050609  51.9733143  51.9600725  33.6090302  50.7829762  53.8071346
  33.2208586  49.8311615  53.4445477  34.5178413  50.5635881  54.3675137
  32.5914812  51.5244436  54.6437550  32.9239416  52.5556374  54.5245647
  31.5810585  51.3791943  54.2615938  32.6495790  51.1934423  56.1580420
  33.6846852  51.2290049  56.4977360  32.1405792  51.9944763  56.6941071
  31.9767094  49.8944902  56.4877558  31.0290384  49.9595022  56.1445522
  32.4246812  49.1005087  56.0529995  32.0130563  49.7905111  57.4917364
  35.2999091  51.3730097  50.3472805  34.5875549  51.1205721  49.4117880
  36.4022088  52.1151447  50.1512003  37.0091796  52.2834110  50.9407377
  36.6250300  52.9634857  48.9977980  35.9547162  52.6335001  48.2041407
  36.4218950  54.3832684  49.2567444  35.4200482  54.3927670  49.6860647
  37.1417785  54.8169184  49.9508762  36.3695312  55.2520800  47.9478836
  36.0887694  54.8662376  46.8265486  36.6761827  56.5116215  48.0949211
  36.5487576  57.0519876  47.2511959  36.9478250  56.9173861  48.9790392
  38.0261517  52.7363729  48.4044790  38.8875413  53.5736704  48.5386133
  38.2317185  51.5426970  47.7622080  37.4147749  50.3665781  47.5485706
  36.5931535  50.6153059  46.8768740  36.9558525  50.0191975  48.4742117
  38.2596278  49.3166971  46.8804121  37.7190351  48.6948013  46.1668921
  38.7227154  48.7416506  47.6822662  39.3648458  50.0603580  46.2557364
  38.9906359  50.4276180  45.3001261  40.2972555  49.5071888  46.1429739
  39.5444107  51.2871647  47.1121120  40.3196001  51.2494326  47.8774643
  40.0600147  52.4292135  46.2237835  39.3187094  52.8334427  45.3757906
  41.3363600  52.8289270  46.3441467  41.8937874  52.3773241  47.0550871
  42.0181942  53.8895941  45.5252695  41.8149185  53.7758160  44.4604492
  41.5557718  55.2766180  45.9994125  40.4672766  55.3222132  46.0340834
  41.9004726  55.4209518  47.0233488  41.9796944  56.4352322  45.1358271
  41.4176559  57.3340988  45.3892994  43.0058670  56.6461468  45.4368114
  41.9246721  56.2668276  43.3625031  40.1914549  55.6793833  43.0086899
  39.6182299  56.5100384  43.4204340  40.0490618  55.4879951  41.9451094
  40.0055027  54.7452259  43.5386610  43.5404301  53.6966944  45.6802797
  44.0277815  53.0609465  46.6025209  44.3264151  54.1538286  44.7252178
  43.8170671  54.7521877  44.0906858  45.7286549  53.8512611  44.4399452
  46.3440037  54.1747189  45.2794886  45.8769703  52.3777103  44.1389608
  46.8672752  52.1457529  43.7470484  45.8279133  51.7705441  45.0428629
  45.0044441  51.8444109  43.0290318  43.9997625  51.1769772  43.4560061
  45.2628756  52.0993233  41.8522501  46.2325668  54.7029543  43.1779718
  45.3928900  54.9892807  42.2923040  47.5721121  55.0169516  43.1031275
  48.2022285  54.6787214  43.8163280  48.1872225  55.9141970  42.1168613
  47.7197218  56.8975925  42.1666908  49.6499157  56.0169125  42.6334238
  49.6773195  56.1823511  43.7104511  50.2875328  55.1537800  42.4422693
  50.2772522  57.2960281  42.0412779  49.9953985  57.2291470  40.9904718
  49.7431612  58.1827259  42.3827696  52.0252371  57.7135754  42.2052097
  52.4747133  57.7691126  44.0667677  53.5402393  57.9222679  44.2379236
  51.9414377  58.6163282  44.4979763  52.0252609  56.8427896  44.4245672
  48.1558943  55.3895426  40.6657696  48.0338812  56.1855173  39.7558355
  48.1731749  54.0746927  40.4407644  48.2483530  53.4918642  41.2622023
  47.9999065  53.4936285  39.1292500  48.7027216  53.9237928  38.4157324
  48.1835318  52.4222422  39.2099857  46.5903664  53.8148165  38.6339331
  46.4111614  54.1508102  37.4737930  45.5329800  53.7746572  39.4738388
  45.7195616  53.4951591  40.4262972  44.2126179  54.2526579  39.0577960
  44.0259266  53.7346077  38.1171227  43.0690384  53.6786938  39.9534392
  43.0843163  54.1325283  40.9443474  41.7090464  53.7491465  39.4028497
  41.0105610  53.5046482  40.2031231  41.5588808  54.8163319  39.2395520
  41.6245127  53.1207085  38.5162735  43.2522774  52.2957325  40.1150894
  44.0876865  52.1717215  40.5715132  44.1694784  55.7514048  38.7580824
  43.5623264  56.2387228  37.7966499  44.8999023  56.5433121  39.5467758
  45.4147387  56.1164665  40.3036404  44.8407459  58.0391693  39.4328547
  43.7996435  58.3619547  39.4272566  45.5289078  58.6903286  40.6687641
  46.5099287  58.2261324  40.7698488  45.8261967  60.2044773  40.5550909
  46.4698172  60.4276848  41.4059925  46.3953733  60.4035330  39.6470642
  44.8918772  60.7617760  40.6227016  44.8144341  58.3733845  41.9598246
  43.9005756  58.9674854  41.9624710  44.6217394  57.3011398  41.9953299
  45.5206013  58.6481571  43.2759619  45.1769495  59.5562077  43.7713957
  45.2360725  57.8426361  43.9529228  46.6093922  58.6300945  43.2279158
  45.4335451  58.5759592  38.1779242  44.8494196  59.4222069  37.4666286
  46.5945530  58.0080414  37.8149962  46.8881130  57.1690369  38.2945824
  47.3758650  58.3499193  36.6113091  47.5096035  59.4308615  36.5691590
  48.7421513  57.7199650  36.7403960  49.2533922  57.9046345  37.6851845
  48.7074900  56.6314697  36.6948700  49.6359062  58.2711983  35.5846882
  49.1630268  58.0770826  34.6219802  49.7266197  59.3522072  35.6909466
  51.0318136  57.5735807  35.5797720  51.5380192  58.1527424  34.8074841
  51.6182137  57.5739956  36.4985919  51.0022497  56.0548878  35.1036763
  51.9877720  55.6742716  35.3719544  50.2124262  55.5783558  35.6843638
  50.7230234  55.8462000  33.6534286  51.0499287  54.9354506  33.3640122
  49.7356749  55.8779383  33.4430933  51.0323095  56.5777302  33.0294847
  46.6089678  57.8660917  35.3840661  46.5567923  58.6214113  34.4177914
  45.8840466  56.7587280  35.4888153  46.0999489  56.1953449  36.2988043
  45.0032663  56.2767553  34.4604111  45.4671049  56.2727594  33.4740353
  44.6793032  54.8214102  34.8405743  45.6205702  54.2725039  34.8119760
  44.3596601  54.6793222  35.8729219  43.6365414  54.1084862  34.0021682
  42.7142239  54.6876097  34.0474653  43.9645100  54.0940285  32.9627800
  43.3945704  52.6774311  34.5748377  44.2511082  52.0238352  34.4097519
  43.0422974  52.6572609  35.6061506  42.2521257  51.9829130  33.7170863
  41.2390375  52.3478413  33.8861513  42.4113369  52.2985935  32.6860166
  42.1984673  50.5199099  33.7811613  41.9592619  50.2742624  34.7311807
  41.5527391  50.0778818  33.1426096  43.0945587  50.1505136  33.4971333
  43.6758423  57.0983028  34.1778779  43.3154297  57.2378349  32.9879880
  43.1660223  57.6358223  35.2128911  43.5666847  57.3588991  36.0976982
  42.0020247  58.5907507  35.2038765  41.2689400  58.1020498  34.5621133
  41.4178419  58.7625313  36.5812016  42.2062111  59.0402794  37.2807956
  40.7740355  59.6420813  36.5826821  40.5944109  57.5262880  37.0378947
  39.7615647  57.4008703  36.3459897  41.1588192  56.5973282  36.9567990
  40.1196957  57.7304411  38.4375715  40.9437895  57.5733995  39.1335011
  39.7179437  58.7383461  38.5415912  38.9640284  56.8498325  38.6483240
  38.7281895  56.2471819  37.8728914  38.2302999  56.8615723  39.7029567
  38.4114838  57.6970816  40.7302666  39.1962767  58.3317137  40.7682991
  37.8044343  57.5411129  41.5222692  37.1447897  56.1837721  39.8010397
  36.8437719  55.4730892  39.1495657  36.6333246  56.3697433  40.6518745
  42.4061632  59.9625826  34.5501876  41.7051458  60.3535080  33.5720873
  43.4592581  60.6460810  34.9873567  43.8776970  60.2484751  35.8161616
  44.0971279  61.7908478  34.2535114  43.4174967  62.6427507  34.2321682
  45.4577112  62.1257877  34.9530482  46.0429096  61.2062788  34.9408960
  46.0024357  62.7854681  34.2776251  45.3355455  62.7870035  36.4063478
  44.5466709  62.2534132  36.9365025  46.6237497  62.5252485  37.1597767
  46.4889336  62.9515409  38.1538582  46.9252682  61.4844561  37.2778749
  47.4182224  62.9697227  36.5603137  44.9728441  64.2678976  36.3816571
  45.6864882  64.7212219  35.6936812  43.9410305  64.3640184  36.0436845
  44.9465609  64.7565651  37.3556256  44.4012070  61.3794231  32.7471614
  44.0927267  62.2692299  31.9317555  44.8873949  60.2021217  32.4079537
  45.1897526  59.5236778  33.0923462  45.1197481  59.9156237  31.0006237
  45.6694031  60.7953930  30.6659675  46.0790300  58.7902164  30.8718872
  46.7198038  58.6779404  31.7464757  45.4820251  57.8891897  30.7310700
  47.0684290  59.0535069  29.6971989  47.6139545  58.1728983  29.3580294
  46.5972137  59.5314884  28.8383675  48.2430744  60.0176525  30.0313258
  48.9408255  60.5711985  29.1274214  48.5146332  60.3596163  31.2060952
  43.8153315  59.7605658  30.1869655  43.7402916  60.0758171  28.9735746
  42.7777052  59.1628027  30.8377028  42.8652191  58.8906574  31.8064046
  41.4203596  58.9664698  30.3139949  41.5383911  58.6833429  29.2680454
  40.8422947  57.7332115  31.0492539  41.5446186  56.9045162  31.1392903
  40.5545759  58.0839634  32.0403624  39.5405149  57.2972631  30.4562330
  38.3976078  57.6416159  30.8150148  39.5844030  56.6894722  29.3038368
  38.7197781  56.6127968  28.7874579  40.4251623  56.6016436  28.7511063
  40.5116081  60.2730227  30.2959347  39.4610882  60.2125883  29.6624398
  40.9959793  61.3487148  30.8869290  41.8963766  61.2503242  31.3338208
  40.3340101  62.6182890  31.0305595  41.0438585  63.2615614  31.5505743
  40.0335073  63.2717085  29.7404599  39.3607473  62.6167107  29.1868520
  39.6405840  64.2641306  29.9613810  41.2618399  63.4837103  28.8534927
  42.3204422  63.7976599  29.3388391  41.1289263  63.6562204  27.5575852
  41.9277716  63.6930037  26.9406629  40.1982737  63.7537003  27.1774602
  39.1282344  62.4956799  31.9726253  38.1577301  63.2705641  31.9099641
  39.1489911  61.5689707  32.9068017  40.0749969  61.2686586  33.1759286
  38.0688715  61.2434578  33.8024616  37.1877909  60.9713268  33.2212973
  38.5473752  60.0846434  34.5683527  38.6597085  59.2501450  33.8761854
  39.4769311  60.4222012  35.0267100  37.5873303  59.7302866  35.7057881
  37.8249192  60.1610804  37.0080137  38.6027765  60.8479023  37.3073649
  36.8663645  59.9113369  38.0055761  36.9093728  60.3359795  38.9976573
  35.7037902  59.1444969  37.7055144  34.8067522  58.7438154  38.6677170
  34.9885750  59.3131447  39.4189906  35.4470468  58.7020969  36.3768005
  34.5523667  58.1464338  36.1376548  36.4551067  59.0359116  35.3985047
  36.3615775  58.6932135  34.3785977  37.6414680  62.4123621  34.7549582
  36.4518547  62.5142956  35.0893235  38.5477972  63.2753038  35.2746177
  39.4993949  63.1542206  34.9585485  38.1787634  64.4139862  36.1975169
  37.3801160  63.9642572  36.7874432  39.4106984  64.7658396  37.0074320
  40.0964689  65.1398897  36.2472320  39.2513490  65.6065702  37.6826286
  39.9606419  63.5537624  37.8525162  39.2697310  63.1003809  39.0204978
  38.4107065  63.6810446  39.3226671  39.8778224  62.0370054  39.7608089
  39.4044781  61.7113543  40.6753016  41.1214256  61.4730930  39.3985271
  41.6224575  60.3398895  40.0225639  41.0677767  60.0848341  40.7634258
  41.6600132  61.7796135  38.1428432  42.5387096  61.2061119  37.8871155
  41.1192989  62.8423977  37.3609066  41.5420198  63.1126833  36.4045286
  37.5123811  65.6321478  35.4441309  37.8317261  65.9049225  34.2989969
  36.6523647  66.3294792  36.2144470  36.3310146  66.0699606  37.1361208
  36.0592461  67.6260233  35.8052897  36.2742400  67.8889036  34.7695422
  34.4948125  67.4324560  35.7752824  34.0969205  68.4346151  35.6157017
  34.2924976  66.6692781  35.0237989  34.0122342  66.9669724  37.0810795
  33.5343027  65.7235098  37.2939324  33.4292436  64.8798466  36.6279030
  33.0678630  65.7147598  38.6288309  32.7051449  64.9165726  39.1302657
  33.1919193  66.9566536  39.2866540  32.8629017  67.4217463  40.5749083
  32.5023985  66.7718410  41.3585281  32.8853750  68.7830067  40.8197451
  32.3944354  69.0088511  41.7548275  33.2645082  69.6686792  39.8120236
  33.2440019  70.7389021  39.9555731  33.7283158  69.1688728  38.6182261
  34.2086649  69.8465872  37.9280281  33.7118101  67.8055668  38.2894063
  36.5129948  68.7890530  36.6813874  36.2588501  69.9297523  36.3822412
  37.1235371  68.5364294  37.8310847  37.2804832  67.5647259  38.0574989
  37.8146839  69.4685888  38.7464023  38.2772493  70.2559900  38.1513095
  36.8236876  70.0831985  39.7291303  35.9256959  70.4399681  39.2247272
  36.4566135  69.2776680  40.3651142  37.4089050  71.0426331  40.6063461
  37.4688983  71.8370056  40.0706482  39.0147114  68.7308311  39.4760871
  39.0012932  67.4709129  39.6172976  40.0887012  69.4688225  39.9914956
  40.2206993  70.4136467  39.6598625  41.2520456  68.8002634  40.6655931
  41.5230036  67.8526163  40.2001238  42.3771811  69.7683430  40.5638742
  42.5295925  70.0926542  39.5344591  42.1441746  70.5956745  41.2341976
  43.2576084  69.2236137  40.9047842  40.9621716  68.4029484  42.1190166
  41.5992022  67.4895382  42.6383686  39.9273562  68.9803410  42.7214813
  39.5282435  69.7220516  42.1641016  39.3891144  68.6986446  43.9902163
  39.9871254  69.0644026  44.8249054  38.0745697  69.4653845  44.2763758
  37.3574352  68.9982986  43.6013603  37.7987862  69.3844271  45.3278065
  38.2037425  70.7983351  43.9402962  37.3662829  71.2660646  43.9790821
  39.2598486  67.2213221  44.2412663  39.6176362  66.6124630  45.2678108
  38.6728883  66.5339422  43.2242298  38.3279634  67.0348549  42.4178696
  38.5388708  65.0135517  43.2503414  38.1763625  64.6525240  44.2128134
  37.6848745  64.5496845  42.0724583  38.0544043  65.0267935  41.1647606
  37.8585124  63.4972286  41.8482113  36.2073636  64.7907591  42.1549273
  36.0763240  65.8635950  42.0136833  35.7703543  64.2915106  41.2901258
  35.7088566  64.3576431  43.5153866  34.9513340  65.1370287  44.1505957
  36.1345291  63.3153105  44.1401434  39.9112153  64.2594290  43.1055260
  40.0196171  63.2767582  43.8546276  40.7578135  64.5987654  42.1497488
  40.6165171  65.4898071  41.6956854  42.0240688  63.9547682  41.8360138
  41.8113089  62.9188013  41.5721846  42.6555204  64.5876884  40.6792021
  41.9404125  64.6836519  39.8621869  43.0853701  65.5380249  40.9957361
  43.9793587  63.5036135  40.1183796  43.3280897  62.3587227  39.8948312
  42.9683971  63.9757252  43.0680275  43.5142708  62.8872776  43.4407759
  42.9753780  65.1030111  43.7309551  42.5130987  65.9060907  43.3291388
  43.7193394  65.2849102  44.9898911  44.7038841  64.8222017  44.9214983
  43.9577579  66.7837524  45.2991009  44.6017122  66.7838383  46.1785412
  44.3720818  67.2835016  44.4234943  42.8602743  67.6781559  45.8477831
  42.0493269  67.6887369  45.1195288  42.6282454  67.3263931  46.8530321
  43.2801294  69.4536114  46.0394287  43.7626457  69.9203873  44.3517971
  44.1096497  70.9533215  44.3790150  44.6608639  69.3498230  44.1156435
  42.8937531  69.8191738  43.7015057  43.0783463  64.4947147  46.1499214
  43.7198448  63.9635468  47.0048523  41.7399311  64.5002460  46.1878586
  41.2513256  64.9275255  45.4140329  41.0206127  63.7125015  47.1869516
  41.4870310  63.8425112  48.1635046  39.6363711  64.2878675  47.3492098
  39.6834612  65.3700924  47.4703360  39.1039968  64.0771055  46.4217091
  38.8025784  63.7276030  48.5923433  37.8546119  64.2581940  48.5032988
  38.5558414  62.6772070  48.4377480  39.4473290  64.0102911  49.9506521
  40.4553413  64.6962023  50.0948858  38.8266730  63.6204386  50.9935760
  39.2197871  63.8637829  51.8915415  37.9792738  63.0979109  50.8233356
  41.0633469  62.2079945  46.9110966  41.0309553  61.4540672  47.8505182
  41.3138771  61.7431164  45.6931114  41.1492109  62.4711609  45.0127172
  41.6453362  60.2781868  45.3605032  40.9471798  59.6154261  45.8718157
  41.6203642  60.0923395  43.7882900  42.1969748  60.8267498  43.2259130
  42.1249866  59.1464090  43.5916233  40.1999140  59.9142361  43.2915688
  39.2381144  60.0283623  44.0567970  40.0758171  59.6480942  42.0534468
  43.0327034  60.0682783  45.9473133  43.2466650  59.0226984  46.6811991
  43.9797592  61.0256243  45.7380724  43.8019991  61.7795801  45.0899601
  45.3779507  60.8889389  46.3563442  45.8242369  59.9573135  46.0085011
  46.3446951  62.0551682  45.9366703  45.7155514  62.8339720  45.5056953
  46.8103790  62.5382376  46.7956781  47.4579573  61.6274548  45.0362730
  47.5165939  62.1259928  43.7594795  46.7851686  62.8215170  43.3752060
  48.5639572  61.7547607  42.8742027  48.5723686  62.1118259  41.8549681
  49.5781422  60.8753109  43.3807278  50.3586245  60.5159235  42.7264452
  49.6008348  60.5073500  44.7858143  50.5051374  60.0963020  45.2096939
  48.4986782  60.9009933  45.5817032  48.5014486  60.8095121  46.6578197
  45.2553940  60.7546329  47.8796291  45.7552147  59.7453451  48.4293318
  44.5333338  61.6473150  48.5299778  44.1342831  62.3747110  47.9540014
  44.3049002  61.6634226  49.9604702  45.2787495  61.7327213  50.4451609
  43.6091280  63.0241060  50.2036047  44.0812397  63.8621426  49.6908569
  42.5918055  63.0220079  49.8122501  43.5836077  63.3930302  51.6515446
  44.6045780  63.2284212  52.3358679  42.6182079  64.1700077  52.0330238
  42.5631380  64.3212461  53.0301142  41.8976879  64.5275021  51.4221621
  43.5395527  60.4156923  50.4447556  43.8043642  59.8810148  51.4893293
  42.4989462  59.9997663  49.7263575  42.2483349  60.5744839  48.9345217
  41.7985868  58.7079000  49.9104929  41.3736439  58.6658096  50.9133625
  40.6696367  58.4563923  48.9522028  40.9674311  58.4546328  47.9036713
  39.9367476  57.0814562  49.0840626  40.6725454  56.3036823  49.2884588
  39.2620730  57.1366262  49.9383831  39.3676829  56.7444372  48.2176447
  39.6848750  59.3744898  49.1702509  40.1133442  60.2140903  48.9883566
  42.7786827  57.5426435  49.9951792  42.7628517  56.7986202  50.9446907
  43.6663389  57.3904896  49.0036440  43.6407471  58.0172205  48.2120323
  44.7897673  56.3844490  49.0735865  44.2815065  55.4204941  49.0499735
  45.6795311  56.4866209  47.8340816  45.1403952  56.2250471  46.9235849
  46.0180521  57.5176287  47.7314663  47.0152903  55.6778049  47.7585745
  47.4383450  55.7373857  48.7613583  46.8168688  54.6124411  47.6413822
  48.2260275  56.2374735  46.4811277  49.0053940  57.7064896  47.1873236
  49.3004036  58.4094238  46.4082575  48.2191277  58.1733465  47.7805614
  49.8495579  57.3694754  47.7889109  45.5268002  56.4715099  50.4156590
  45.4471445  55.4335499  51.0902834  46.1136198  57.5924730  50.7853174
  46.3391161  58.2995605  50.1002741  46.8036079  57.7206850  52.0820236
  47.5874710  56.9646788  52.0360947  47.4213362  59.1380787  52.0592022
  46.6274548  59.8847437  52.0777750  47.9751825  59.2528152  52.9909706
  48.3845711  59.4498014  50.9460497  49.4368887  58.5888147  50.6181622
  49.5234251  57.6485777  51.1424446  50.3986549  59.0139151  49.6048641
  51.1653471  58.2867241  49.3817472  50.2562714  60.2295876  48.9165258
  50.8737707  60.5248690  48.0811119  49.1864109  60.9889174  49.2768097
  49.0382385  61.9708967  48.8523531  48.2263136  60.6572151  50.3049612
  47.3792696  61.3122177  50.4459667  45.9600735  57.4172020  53.3546829
  46.3585520  56.7222691  54.2648315  44.7259140  57.9778719  53.3857965
  44.3954611  58.3615875  52.5119209  43.6341143  57.6803493  54.3601704
  44.0945196  58.0617905  55.2715540  42.3130941  58.3819866  54.1365623
  41.9105339  58.2197523  53.1367016  41.3180590  58.1206894  55.2359295
  40.4388237  58.7647772  55.2500677  40.9934616  57.0907736  55.0875664
  41.7427635  58.2097387  56.2358284  42.4850512  59.8175812  54.1895151
  43.3902407  59.9295616  53.8900232  43.4817553  56.1184549  54.5545578
  43.8069725  55.6145430  55.6119347  43.0485868  55.4215622  53.4686613
  42.7983904  55.9831953  52.6673698  42.8571463  53.9714289  53.4779358
  41.8995142  53.7675571  53.9569712  42.7113676  53.5227537  52.0574522
  43.5160255  53.9134407  51.4345694  42.6949215  52.4346256  51.9957638
  41.4301634  53.9818430  51.3681555  40.4497671  54.4373655  51.9572210
  41.3107014  53.6894321  50.0783920  40.4015779  53.8569212  49.6715260
  42.1266079  53.5206127  49.5075178  44.0084934  53.1937170  54.2369604
  43.7560225  52.3069715  55.0554371  45.2572250  53.5248756  53.9055395
  45.3668547  54.1944456  53.1573772  46.4703083  52.8604078  54.4718838
  46.4205551  51.7912197  54.2658138  47.5955772  53.4092999  53.6299086
  47.3271227  53.3309793  52.5763941  47.6996565  54.4452095  53.9526558
  49.1895294  52.4941444  53.9392757  48.9064074  51.3729715  53.2701635
  46.6300392  53.1035519  55.9562683  46.8832159  52.1077490  56.6791677
  46.6066265  54.3411350  56.3866234  46.3784456  55.1297665  55.7983255
  46.4832973  54.6535110  57.8564882  47.4479437  54.4321251  58.3131599
  46.2373209  56.1535740  58.1214523  45.2726650  56.4280653  57.6946115
  46.1836720  56.3641119  59.1895819  47.2691298  57.1602058  57.5339413
  48.6237192  56.8567944  57.7700138  48.9631844  55.9989595  58.3315182
  49.6085167  57.8090000  57.2027588  50.6579447  57.6861715  57.4264193
  49.2125607  58.9544201  56.5164328  50.1323271  59.7819853  55.9429073
  49.7964382  60.6744623  55.8321476  47.8372622  59.2122841  56.3478565
  47.5783968  60.1413393  55.8618116  46.8312597  58.3332586  56.8189764
  45.7724476  58.5318899  56.7423391  45.3903246  53.8614702  58.5953379
  45.4561186  53.5170412  59.7602701  44.2542458  53.6271572  57.8259611
  44.1707039  53.9826441  56.8842840  43.1539154  52.7552557  58.3212614
  42.9645061  53.0407619  59.3560171  41.8348312  53.0390739  57.5456619
  41.9773579  53.0365896  56.4650249  40.7281542  51.9611740  57.7159166
  39.7740412  52.1568060  57.2265196  41.0639906  51.0175848  57.2858572
  40.5392981  51.8939734  58.7873220  41.3092041  54.4504452  58.0660200
  40.8647013  54.2717028  59.0450859  42.1294832  55.1632690  57.9816246
  40.1350212  54.8973513  57.1420956  39.2533278  54.3008661  57.3764658
  39.8458314  55.9148788  57.4049759  40.4618311  54.8464108  56.1034918
  43.5174465  51.2752771  58.4865665  43.2023954  50.6255531  59.4566202
  44.2449379  50.7672644  57.4986839  44.4139338  51.3349962  56.6806221
  44.6455193  49.3064547  57.4150705  43.8783979  48.6298609  57.7916956
  44.7438717  48.9330053  55.9670877  43.7349844  49.1319799  55.6056261
  45.4091167  49.5875311  55.4039240  44.9258757  47.3736477  55.8723593
  43.7606812  46.5488338  55.9170389  42.7774334  46.9758034  56.0486174
  43.8388348  45.1897097  55.5594540  42.9769564  44.5987940  55.2867126
  45.1002836  44.6437216  55.2939653  45.1861525  43.3370495  54.8997545
  44.3915415  42.8538609  55.1379251  46.2978554  45.3761816  55.2701902
  47.2497940  44.8803997  55.1501465  46.1901951  46.7690897  55.5736732
  47.0707369  47.3943853  55.5658245  45.9043837  48.9720249  58.2449961
  46.0372114  47.7714968  58.5601759  46.7565966  49.8541164  58.7410116
  46.6220045  50.8051825  58.4288168  48.0958176  49.4884825  59.2193127
  48.1817675  48.4107733  59.3580532  49.1832829  49.8942184  58.2106543
  49.2321730  50.9531069  57.9567480  50.1831245  49.7170925  58.6069441
  49.0498400  49.0981150  56.9749737  49.4699287  47.9543591  56.8375158
  48.1854391  49.6680546  56.1531925  48.0860662  49.4136477  55.1808262
  47.7125168  50.5334759  56.3711405  48.2780933  50.1334524  60.6152248
  47.9513454  51.2989855  60.8667755  48.6325741  49.3094635  61.5576792
  48.6723137  48.3132410  61.3962507  48.8128567  49.7050142  63.0387926
  47.8688145  49.9974394  63.4985447  49.3202257  48.5054064  63.9015865
  49.5021439  48.8478804  64.9202681  48.6639452  47.6355982  63.9304018
  50.6226587  48.0059958  63.3552933  50.3585386  47.6990700  62.3432970
  51.3931513  48.7769127  63.3438158  51.1207581  46.7430019  64.0686178
  51.2331676  46.8519497  65.1473188  50.3890562  45.9651423  63.8503313
  52.4893475  46.3129950  63.5709381  53.0831146  47.2241163  63.4974813
  53.0045605  45.7511568  64.3500376  52.2821999  45.5275536  62.3603296
  52.0861197  46.2029648  61.6354322  53.0962610  44.9583387  62.1775675
  51.4644670  44.9348974  62.3733902  49.6727657  50.9898138  63.0856180
  50.6493378  51.0501385  62.2519875  49.4610882  51.9379807  64.0209818
  48.4872246  51.8848753  65.0917482  48.8256836  51.2625217  65.9201384
  47.5375891  51.4649725  64.7601318  48.4282780  53.3756590  65.6222200
  48.8092661  53.5388327  66.6303492  47.3801041  53.6712646  65.5769491
  49.1943121  54.2063665  64.5615911  49.6041918  55.0731087  65.0801039
  48.5154343  54.4655275  63.7491512  50.2103376  53.2124186  64.0068197
  50.2857256  53.3933163  62.9345798  51.6637039  53.2122183  64.4960737
  52.0178986  54.0536642  65.2948093  52.4824715  52.2535944  64.0476942
  52.1086693  51.6448879  63.3336592  53.8571739  52.0800018  64.3766928
  54.2720985  53.0354786  64.6976185  54.0915775  51.0300779  65.5349970
  55.1652336  50.8697605  65.4367447  53.6573410  51.5997028  66.9091988
  54.2978001  52.4145317  67.2467852  52.5798893  51.7543030  66.9666004
  53.9244175  50.8155823  67.6176691  53.3574057  49.8215055  65.2457666
  52.5349379  49.7735119  65.7385588  54.6719551  51.6472435  63.1928921
  55.8445406  51.2775564  63.3582163  54.0717936  51.4266205  62.0112181
  53.0773306  51.5550661  61.8901920  54.6827555  50.6029510  60.9228277
  55.3544283  49.9050188  61.4226770  53.7663937  49.6672010  60.0521183
  52.8545046  50.2141809  59.8125887  54.2276335  49.4355679  59.0920639
  53.3459949  48.3755398  60.7107353  53.8702011  47.9895926  61.7549038
  52.4343395  47.7103567  60.2853632  55.5898190  51.3693666  60.0633860
  55.4828119  52.5659084  59.7380161  56.4442635  50.6433153  59.4002867
  56.4586926  49.6718216  59.6761322  57.2761345  50.9464169  58.1886196
  58.0871058  51.6314173  58.4360075  57.9387093  49.6520805  57.7330256
  58.4130764  49.9310350  56.7921448  58.7326336  49.4341087  58.4473610
  57.1328974  48.4657764  57.2974396  57.7116585  47.4707890  56.8657064
  55.9329367  48.3905077  57.5716352  56.4414883  51.5358067  57.0397425
  56.7942429  52.6398802  56.5692854  55.2386665  50.8892632  56.6234493
  54.9733448  49.9989176  57.0196819  54.2915821  51.5098953  55.7014751
  54.8850441  51.7140436  54.8102808  53.1465292  50.6078386  55.1647711
  53.6685944  49.6619606  55.0203133  52.0436716  50.3898621  56.2433958
  51.7208958  51.3582897  56.6255760  51.2170410  49.8092461  55.8339167
  52.3709393  49.8085546  57.1054173  52.5376511  51.1075687  53.8227654
  52.0255995  52.0615244  53.9487410  53.3709002  51.3582516  53.1662941
  51.6651535  50.0954008  53.1138945  51.4174652  50.4627228  52.1179914
  52.2475958  49.1770363  53.0399323  50.7383919  49.9348402  53.6647415
  53.8435555  52.8708744  56.2292957  53.6308622  53.7917089  55.4619408
  53.5926485  53.0316687  57.5169230  54.1420650  52.4697876  58.1513786
  53.2390404  54.3379498  58.0882931  52.4071312  54.7668028  57.5296211
  52.7456474  54.3392181  59.5649576  53.6289787  54.1311836  60.1687336
  52.1860170  55.7398272  59.9181509  53.0210876  56.4316797  60.0281715
  51.5188503  56.1172104  59.1431856  51.5667248  55.7009554  60.8142900
  51.6649866  53.3380604  59.8202753  51.4663076  53.4182930  60.8890104
  50.7789040  53.5594511  59.2253447  52.0626068  52.3256445  59.7494316
  54.4273520  55.3363514  57.9110098  54.1857052  56.4803886  57.4973917
  55.6824636  54.9741077  58.2365704  55.8607054  54.1045237  58.7183952
  56.8046999  55.8763885  57.9861498  56.6052198  56.7914820  58.5437441
  58.0506849  55.2014923  58.5584688  57.9213524  55.1068783  59.6366215
  58.1565428  54.2090988  58.1202316  59.3561316  55.9841633  58.3609343
  59.1403675  57.0000601  58.0300188  60.1829958  56.0015917  59.6274137
  60.3696060  54.9898767  59.9875736  61.2136221  56.2532759  59.3772602
  59.7180128  56.5180254  60.4671669  60.2572775  55.2757978  57.2822142
  60.4999018  54.2407703  57.5229597  59.6417236  55.2357912  56.3835478
  61.1752939  55.8351469  57.1020174  56.9613266  56.2494040  56.5115499
  57.4048710  57.3661041  56.3235760  56.7419481  55.3134346  55.5821562
  56.4616442  54.4095230  55.9349537  56.5691710  55.6051540  54.1473532
  57.5491524  55.9610844  53.8294697  56.4943504  54.2192173  53.4730148
  57.4777222  54.1955042  53.0034208  56.4537287  53.4100056  54.2021465
  55.4975557  54.0197134  52.3721409  54.5298910  54.3553829  52.7450323
  55.7473278  54.7923326  51.6449690  55.2621603  52.4033451  51.6849041
  56.8493462  52.0735598  50.6567860  57.6916695  52.3082924  51.3075495
  56.8702841  51.0314941  50.3377771  56.9704819  52.7938128  49.8476696
  55.4239416  56.6174507  53.8304377  55.6555986  57.6764631  53.2276487
  54.1817188  56.2794733  54.2576742  54.0067530  55.4839563  54.8548651
  52.9989767  57.0888853  53.8627625  52.9781055  57.0796347  52.7729988
  51.6607428  56.5133905  54.3821239  51.6446543  56.2277174  55.4338932
  50.8043146  57.1327543  54.1156197  51.4569139  55.5973721  53.8276243
  53.0752134  58.5315752  54.2631197  52.7335310  59.3608046  53.4008789
  53.4726620  58.8116693  55.5235338  53.6704922  58.1067514  56.2192822
  53.5708237  60.2021027  56.1014700  52.6006365  60.6907940  56.0119152
  54.0069342  60.1561975  57.6252079  53.9622021  61.1830235  57.9881573
  53.2491922  59.5156240  58.0764294  55.3826141  59.5698643  58.0459404
  55.2866936  59.5560360  59.1316271  55.5363321  58.6054564  57.5618029
  56.5064192  60.5107212  57.7198792  56.4459610  61.7193317  57.7374458
  57.6936340  59.9736643  57.4839020  58.4518671  60.6402349  57.4545050
  57.8400278  59.0400934  57.1273661  54.4627142  61.0652494  55.2054167
  54.1235399  62.2219324  54.8891926  55.5897236  60.5003929  54.7640324
  55.6626034  59.5052624  54.9205828  56.5363359  61.2065411  53.8750076
  56.6822100  62.2110033  54.2723465  57.8687716  60.5095673  53.7666559
  58.6444235  60.9405756  53.1336451  58.2386351  60.4385853  54.7895241
  57.7696848  59.4631815  53.4779263  55.9341288  61.4595366  52.4382210
  56.2543058  62.4641228  51.8508244  55.1248217  60.5266190  51.9273090
  55.0580645  59.6686745  52.4560595  54.5242596  60.5622864  50.5891418
  55.2911711  61.0086060  49.9560881  54.2489243  59.0812302  50.1109123
  54.9983931  58.4120703  50.5335617  53.3525562  58.7664795  50.6452799
  54.1301489  58.8250160  48.5662127  53.1164026  59.1291094  48.3055210
  55.1327801  59.5214367  47.6489925  54.8613310  60.5762815  47.6904583
  56.1456013  59.4660091  48.0480146  55.0138044  59.1524696  46.6302681
  54.1542339  57.3486328  48.2293224  54.1996622  57.0917225  47.1710062
  55.0086451  56.8870211  48.7242985  53.3588696  56.9171858  48.8370657
  53.4112120  61.5439987  50.4575777  53.3182526  62.2562456  49.4032907
  52.5641060  61.5722179  51.5551424  52.7075911  60.8957291  52.2912645
  51.5173340  62.5757360  51.7529583  50.7288742  62.7596569  51.0231590
  50.8351898  62.2135115  53.0570698  50.5944490  61.1558819  52.9495001
  51.6244221  62.3312235  53.7996006  49.6054411  63.1281424  53.3392668
  49.9945116  64.0746880  53.7144613  48.9864635  63.3371162  52.4667454
  48.6394882  62.5920439  54.4988012  47.4300528  62.9553270  54.3862057
  49.1074705  62.1907520  55.6011724  52.1295023  64.0073061  51.8103933
  51.5742016  64.9133110  51.1740112  53.2331896  64.2414618  52.5033092
  53.5096121  63.4370518  53.0479336  53.8666725  65.5711794  52.5631285
  53.0746555  66.2452841  52.8893089  54.9730301  65.6510353  53.6188650
  54.5957470  65.2368927  54.5538759  55.7971621  65.0219679  53.2824373
  55.4686975  67.0856619  53.8915920  55.8594513  67.5381804  52.9801941
  54.6242809  67.6170683  54.3305254  56.6750383  67.0199013  54.8429537
  56.3431358  66.4688969  55.7229185  57.5240183  66.5163803  54.3805695
  57.0829773  68.4794283  55.2632570  57.2891378  69.0451717  54.3546724
  56.2342501  69.0180874  55.6847000  58.2764864  68.4317923  56.1592197
  58.2890320  67.7859926  56.9356775  59.1073751  68.2276487  55.6225204
  58.5258341  69.3093348  56.5926361  54.2762184  66.1073875  51.2243414
  53.9598751  67.2751856  50.9202242  54.8330784  65.2881145  50.3024721
  54.9900246  64.3307447  50.5833769  55.1495552  65.6460810  48.9151573
  55.9117746  66.4251900  48.9046144  55.6896210  64.4867516  47.9523706
  54.9049234  63.7305450  47.9299212  56.1245680  64.8784399  46.5369129
  55.3075266  65.3843832  46.0225534  57.0253372  65.4912233  46.5021324
  56.2514305  63.9872122  45.9223270  56.8934250  63.7883043  48.7084341
  56.5184259  62.9562092  49.3043327  57.5384521  63.4252310  47.9082966
  57.7736759  64.6126795  49.5990515  58.7522364  64.1924810  49.8313379
  57.8905678  65.5446768  49.0460348  57.3419380  64.7327995  50.5926657
  53.9510345  66.2630558  48.2477760  54.0352440  67.2821188  47.5972891
  52.8259134  65.4820347  48.3664274  52.9079199  64.5719194  48.7966156
  51.4551687  65.8004570  47.8550148  51.5669680  65.8641005  46.7726326
  50.5759859  64.6260834  48.1172085  50.6992292  63.9462185  47.2741842
  50.8870888  64.1100407  49.0255070  49.0766478  64.9267197  48.2477331
  48.3594036  65.1591110  47.0997667  48.8062096  65.0194216  46.1264944
  47.0150757  65.4976130  47.1757364  46.5284395  65.8906317  46.2953234
  46.3272762  65.4461432  48.3887434  45.2719641  65.6616020  48.4681034
  47.0822048  65.2453375  49.5969534  46.5171432  65.1941299  50.5159092
  48.4424734  64.9758816  49.5227194  48.9775705  64.7971773  50.4436636
  50.9627438  67.1602774  48.4825087  50.8852577  68.1512642  47.7808380
  50.8182526  67.2760534  49.7918558  50.9047985  66.4570904  50.3765821
  50.4580879  68.5264826  50.4267788  49.4339991  68.8335085  50.2144384
  50.5706453  68.2797289  51.9689226  51.5323496  67.8883410  52.3006392
  50.3833389  69.1849947  52.5464249  49.5080137  67.3411798  52.5646877
  49.6975708  66.3195181  52.2354841  49.6407986  67.4244213  54.1115141
  50.6000471  67.6778603  54.5628595  48.9554453  68.1799364  54.4956875
  49.3951178  66.4496136  54.5327997  48.0501175  67.7560997  52.1026897
  47.7878284  68.7406540  52.4899340  47.9687691  67.7977514  51.0165262
  47.2853041  67.0539093  52.4344778  51.2694502  69.7659111  49.9488497
  50.6690598  70.8483505  49.7967815  52.5672722  69.6020031  49.7198582
  53.0951023  68.7530327  49.8638725  53.3885145  70.6317711  49.0721416
  53.0205965  71.5293932  49.5691490  54.8572636  70.2956104  49.2775249
  55.0361443  69.2531013  49.0143204  55.4840088  70.9736729  48.6982727
  55.2528954  70.5056286  50.7779026  55.0452280  71.5430593  51.0400248
  54.5245838  69.9881315  51.4022875  56.6570759  70.1410866  51.1704206
  57.4490786  69.5305395  50.4475164  57.0763874  70.6267881  52.3206758
  58.0551958  70.6261969  52.5697374  56.4668226  71.1346006  52.9457092
  53.1591892  70.8312798  47.5172520  53.1314182  72.0176792  47.1408892
  52.9997730  69.7932959  46.6898632  52.9703712  68.8367939  47.0128727
  52.6295042  70.0587702  45.2846813  53.3333254  70.7483339  44.8185921
  52.8467703  68.7615204  44.5602322  52.5016689  67.9165459  45.1560688
  52.0945883  68.7321281  43.7719059  54.1863680  68.3990812  43.8372755
  54.0679216  67.3380470  43.6175537  54.3310118  69.0547609  42.9786348
  55.4317379  68.3576870  44.6462679  55.3879595  67.7288246  45.5354881
  56.2208652  68.0519533  43.9593124  55.8045149  69.7232485  45.2163267
  55.6991577  70.4957247  44.4545603  55.0813055  69.9853706  45.9885693
  57.1570587  69.7060966  45.8200884  57.4617290  70.6398153  46.0555744
  57.1507549  69.2047596  46.6968584  57.8352499  69.2782307  45.2060127
  51.2763929  70.6331158  45.0318336  51.1044025  71.3229370  44.0217876
  50.3179026  70.2795315  45.9176588  50.5679274  69.4862127  46.4905691
  48.9590788  70.8477688  45.7775879  48.5129166  70.6946325  44.7949409
  48.0442238  70.1177835  46.7474794  48.5717726  70.1175117  47.7013111
  46.7515802  70.9012556  46.7907763  46.8335390  71.7613268  47.4553585
  46.3800907  71.1693001  45.8017111  45.9960890  70.2313566  47.2013474
  47.7836037  68.6510420  46.3847637  48.6511326  68.0536127  46.1044788
  47.2410583  68.1490040  47.1858263  47.2058439  68.7071180  45.4621887
  48.9584923  72.3327589  46.0548878  48.4970093  73.0771160  45.1604700
  49.6155357  72.8359222  47.1547270  49.8079443  72.1723509  47.8914404
  49.9403429  74.2653608  47.3410034  49.0168428  74.8437166  47.3684406
  50.5784273  74.4712400  48.7273979  51.6584539  74.6182013  48.7343502
  50.0643539  75.2515125  49.2886543  50.3783178  73.6744976  49.4438219
  50.6917429  74.8583555  46.1286068  50.2624416  75.9184170  45.5599213
  51.8433380  74.2992592  45.7575750  52.2428942  73.4951973  46.2201166
  52.7316952  74.8574829  44.7192526  53.2755470  75.7548094  45.0144339
  53.6941290  73.7260532  44.3467617  54.0057659  73.2900429  45.2959061
  53.0928373  72.9532480  43.8678885  54.9129391  74.0714121  43.4014130
  54.6172047  74.6115685  42.5020409  55.6718254  74.6021509  43.9763069
  55.6404495  72.7496433  43.0356264  55.1474094  71.6288948  42.8774643
  56.8695164  72.7755117  42.6177883  57.1755075  71.9790316  42.0773363
  57.2764540  73.6906481  42.4872923  51.9139099  75.0782728  43.4006405
  52.2608757  75.9662724  42.5852013  50.9103489  74.2428923  43.0953121
  50.8127975  73.5337210  43.8078165  50.1835012  74.0558529  41.8990898
  50.9663200  73.9673233  41.1457872  49.4042015  72.7019596  41.8361568
  49.9524212  71.7770910  42.0155478  48.6322784  72.7149343  42.6056147
  48.6078691  72.5507164  40.5472755  47.8247786  73.3084774  40.5214310
  49.2122459  72.8104162  39.6781445  47.9838943  70.8071661  40.4631329
  46.9421721  70.7317019  41.9453049  46.1394024  71.4656591  41.8748665
  46.4303732  69.7712374  42.0058537  47.4870586  71.0032558  42.8494453
  49.3652534  75.3492737  41.7254877  48.7010002  75.7955408  42.7145672
  49.4895983  76.0171890  40.5373335  50.1022434  75.6750679  39.2919135
  49.4895554  74.9370575  38.7741637  51.0726547  75.2326012  39.5168996
  50.1851082  76.8792200  38.4115791  49.3348360  76.7618513  37.7397442
  51.1037636  77.0333338  37.8455234  50.0317430  78.0547762  39.3261838
  49.5264292  78.8413715  38.7658048  50.9875441  78.3674240  39.7466564
  49.1439390  77.4423075  40.4412413  49.3385601  78.0250359  41.3416004
  47.6299286  77.5402689  40.1730967  47.1252394  76.9919729  39.1961670
  46.9812298  78.4061193  40.9509897  47.5729179  78.8302231  41.6510916
  45.5567312  78.5822725  40.9716272  45.1299429  78.4933662  39.9726057
  44.9311399  77.4342346  41.8312836  44.9785852  76.5821600  41.1531830
  45.5663538  77.3510218  42.7131462  43.4319067  77.5555420  42.1824741
  43.2832050  76.6694307  42.7995586  43.1746149  78.4580755  42.7368450
  42.3971844  77.4375916  41.0764551  42.1749067  76.3168335  40.5550385
  41.8042231  78.4207582  40.6002283  41.0917139  78.2199240  39.9131370
  42.1017694  79.3221188  40.9453630  45.1866865  79.9965858  41.6280031
  45.1970053  80.1548958  42.8575802  44.8436165  80.8757973  40.7927132
  87.6209068  38.6040354  31.9929814  88.3083725  37.8686285  32.0746469
  86.7259216  38.3136559  32.3601079  87.9666615  39.3929100  32.5204611
  87.4187279  38.8238406  30.5242944  88.3743858  39.1501689  30.1139903
  86.7350769  37.6487756  29.8099828  86.9120312  36.7722106  30.4332209
  85.6557751  37.8008008  29.8006558  87.2761917  37.4384379  28.4740353
  87.0712280  38.2498097  27.7756310  88.3576775  37.3972082  28.6036158
  86.7121696  36.1019278  27.8822422  86.6834164  35.2556181  28.5685635
  85.6508064  36.2618303  27.6924396  87.3618889  35.5972695  26.6398239
  87.2909927  36.3679957  25.8723235  88.4177589  35.4106760  26.8358588
  86.6989040  34.3491030  26.1559582  85.7015991  34.4557786  26.0371637
  87.1414089  33.9356613  25.3476548  86.8239498  33.5944200  26.8154383
  86.5304279  40.0065422  30.2105999  85.5211163  40.1663589  30.8372808
  86.9591713  40.8977032  29.2857671  87.8687668  40.6938696  28.8969398
  86.2444687  42.0760345  28.9032650  85.6580067  42.4247026  29.7533178
  87.3720169  43.0233812  28.4467387  88.0691147  42.4651289  27.8218341
  86.8641376  43.8247538  27.9101205  88.1132412  43.5719061  29.6539378
  88.1738472  42.7795792  30.4000235  89.5416260  43.9638376  29.3985629
  89.9890709  44.3819904  30.3002524  90.1260281  43.1845379  28.9094043
  89.4886398  44.7511959  28.6466575  87.3702621  44.7857523  30.2937889
  87.8306484  45.1889706  31.1957693  87.2079182  45.6136894  29.6036673
  86.3591862  44.5248938  30.6064939  85.3817368  41.8366051  27.7018666
  85.7920837  41.2898016  26.6780972  84.1561317  42.3696661  27.7410245
  83.8255596  43.1085396  28.3450818  83.3135319  42.2986507  26.5242004
  83.9813995  42.3820305  25.6668210  82.5519276  40.9616518  26.4849710
  81.9983768  40.9050512  25.5476975  83.2261276  40.1056719  26.5140939
  81.5724754  40.9210682  27.5099397  81.2339687  40.0421858  27.6958871
  82.3032856  43.4506083  26.4192605  81.7892075  43.9280796  27.4749374
  81.7638588  43.7171984  25.1946688  81.9689846  43.0885887  24.4312000
  80.6074524  44.6102619  24.9904490  80.9819126  45.5559063  25.3824139
  80.2217865  44.7393656  23.5262895  79.9514818  43.7723494  23.1021309
  79.3425274  45.3783655  23.4445214  81.3004971  45.2504826  22.6240230
  82.1368122  44.5515299  22.6123953  81.0730362  45.2721405  21.5582395
  81.8475533  46.6473484  23.0060458  83.0809784  46.8333721  22.7622700
  81.1080456  47.4345350  23.6029434  79.4246531  44.3470669  25.8865166
  78.8747025  45.2256632  26.4831114  79.1506529  43.0535173  25.9442902
  79.6895218  42.3950815  25.4000592  78.0535984  42.4516249  26.7315674
  77.0758677  42.8075552  26.4068246  77.9203606  40.9323072  26.3839364
  78.6932755  40.2588272  26.7542434  76.9723892  40.5670595  26.7789769
  77.7519560  40.7602215  24.8760176  78.7270403  40.7886171  23.8462877
  78.0054140  40.8086634  22.7055979  78.3919287  40.7995224  21.6971731
  76.6850758  40.8469677  22.9586983  76.0021591  40.8124161  22.2153759
  76.5603304  40.7153559  24.3589878  75.5788946  40.6963634  24.8093438
  78.1751537  42.6796579  28.2160354  77.2020292  42.9406786  28.8702011
  79.4106150  42.6187468  28.8229918  80.2204037  42.5863123  28.2202601
  79.6651316  42.8619432  30.2076960  78.8570261  42.3530102  30.7331038
  81.0244179  42.2928476  30.6706762  81.7953682  42.5929976  29.9609947
  81.1909294  42.6149511  31.6985989  81.0678959  40.7298279  30.6943583
  80.5032825  40.3333664  29.8504758  82.3797321  40.0056982  30.7107615
  82.1930504  38.9524317  30.9202456  82.9190636  40.1555347  29.7754693
  83.0591297  40.3136635  31.5055466  80.3927231  40.2080393  31.9729495
  80.3761196  39.1190600  31.9287920  81.0360909  40.4697752  32.8129935
  79.4234419  40.6816149  32.1289062  79.7084761  44.3140793  30.4602766
  79.3481302  44.7038126  31.5516400  80.0775909  45.2009678  29.4998956
  80.3470993  44.8914194  28.5770488  79.8621178  46.6833544  29.6565270
  80.3611469  46.9453907  30.5894804  80.4528141  47.4572706  28.5317636
  81.4931488  47.1765471  28.3674908  79.8733997  47.2593307  27.6299858
  80.4246807  49.0183926  28.6971545  79.3812609  49.3324089  28.6692715
  80.9205532  49.2184591  29.6469855  81.2670708  49.7231293  27.5605488
  81.2130642  50.8053493  27.6787829  82.3029327  49.3996716  27.6628351
  80.7697010  49.4955921  26.1930370  81.1256027  48.6540985  25.7625461
  80.0766563  50.2127886  25.3842092  79.6971798  49.6859837  24.2724943
  80.1424599  48.8165188  24.0158629  79.0375519  50.0934315  23.6252069
  79.5277977  51.3462448  25.6608748  79.5084524  51.5626907  26.6472197
  78.8317823  51.7779922  25.0698948  78.3713484  47.0393324  29.8377872
  78.0268431  47.7420759  30.7781315  77.4958754  46.2894201  29.1402221
  77.8401613  45.6572723  28.4317303  76.0359573  46.2385988  29.3912983
  75.6708622  47.2649002  29.3525195  75.2487659  45.5654144  28.2064629
  75.5539370  46.0362625  27.2719717  75.5321789  44.5129538  28.1962681
  73.6986542  45.6465149  28.3831429  72.9745007  46.6788340  27.6677752
  73.5412550  47.4288321  27.1360898  71.5434647  46.8508816  27.7860880
  70.9993553  47.6700830  27.3397136  70.8364773  46.0036373  28.7242389
  69.4608164  46.1764002  29.0160441  68.9891195  45.4367971  29.4060349
  71.5001488  44.9900579  29.3750405  71.0021496  44.3632984  30.1000071
  72.8810406  44.7889233  29.1789937  73.4413528  44.1044521  29.7986341
  75.6512833  45.7483530  30.7926250  74.9665213  46.4468718  31.5717387
  75.9935236  44.4822693  31.1585188  76.6588449  44.0281534  30.5492353
  75.7055426  43.8250208  32.4290538  74.6507120  43.5818052  32.5566530
  76.4251041  42.4931383  32.4690485  77.4778605  42.6430178  32.2295928
  76.3426256  42.0164967  33.4458375  75.8139944  41.2952995  31.2246704
  76.1836243  41.9433737  30.1163983  76.1678219  44.7010231  33.5824871
  75.3953981  44.8231506  34.5343423  77.3333788  45.2855253  33.5679364
  77.9536152  45.0459146  32.8076720  77.7854633  46.2044954  34.6398640
  77.7968454  45.6390190  35.5716419  79.1816807  46.7868662  34.2689037
  79.8572731  45.9437656  34.1244912  79.0325737  47.2975302  33.3175397
  79.8451757  47.6375103  35.2979851  80.3454876  48.7618351  35.0392365
  79.7313356  47.2912884  36.4683604  76.7448521  47.3668814  34.7459531
  76.3748503  47.6927614  35.8425426  76.1240673  47.9241371  33.6461449
  76.3947010  47.6833439  32.7033424  75.0979948  48.9327478  33.8082361
  75.5616856  49.6088171  34.5265841  74.8870707  49.6563530  32.4751425
  75.8335829  49.7491407  31.9425941  74.1256046  49.1097164  31.9188547
  74.3414116  51.0219383  32.7490544  74.6500826  51.6768074  32.1186018
  73.7397194  48.4102011  34.3375278  72.9180717  49.1199303  34.9249864
  73.5397100  47.0414019  34.3145943  74.2534065  46.4672804  33.8890100
  72.4487114  46.3166618  35.0474548  71.5798807  46.9483376  34.8624659
  72.1148872  44.8499775  34.6508908  72.9117489  44.1751051  34.9633956
  70.8276701  44.2345715  35.2624273  70.7796049  44.2331362  36.3513660
  69.9940157  44.8351717  34.8985600  70.6194210  43.2432175  34.8599911
  72.0012188  44.6780968  33.0964851  71.0671520  45.1061010  32.7325702
  72.7446032  45.2218056  32.5135112  72.0351124  43.2619667  32.5745678
  71.0777426  42.8033829  32.8220439  72.2991943  43.3560038  31.5212297
  72.8743696  42.7074289  32.9943705  72.7963066  46.3139105  36.5452790
  71.8844938  46.5956068  37.3708224  73.9892387  45.8929396  36.9697690
  74.6912241  45.6339121  36.2913704  74.3519258  46.1518908  38.3665776
  73.6424828  45.6208515  39.0012360  75.8109093  45.7529879  38.6314797
  75.9164286  44.7027922  38.3593559  76.3844538  46.2321234  37.8380179
  76.4027262  46.0356855  40.0222015  76.1659765  47.0779848  40.2358913
  75.7236576  45.1834631  41.1145020  76.1960125  45.4787493  42.0514059
  74.6862650  45.5142117  41.0641670  75.8464718  44.1093588  40.9755278
  77.9051924  45.8746767  39.9218321  78.1390047  44.8338413  39.6980071
  78.3391619  46.5008402  39.1422868  78.2861280  46.1534643  40.9043121
  74.0791273  47.6202202  38.6708736  73.4714270  47.8759050  39.7108459
  74.4457054  48.5890484  37.8615046  75.0426102  48.4495640  37.0587921
  74.2664576  49.9959421  38.1634521  74.6667004  50.0675344  39.1747785
  75.2081776  51.0125923  37.3596382  74.7956038  51.2765026  36.3858652
  75.1580763  52.0133305  37.7887249  76.7007637  50.7617235  37.2072411
  76.9020462  50.0042868  36.4496970  77.1896935  51.6575050  36.8243217
  77.3957682  50.1667690  38.4700680  77.5159264  50.8925295  39.2743897
  76.7917824  49.4298124  38.9993978  78.6099434  49.3869305  38.2753325
  78.5940838  48.7742519  37.4725342  79.6275902  49.2230940  39.0880871
  79.9264860  50.0072384  40.1444674  79.2063332  50.5892372  40.5479097
  80.7256317  49.7891331  40.7223034  80.6094265  48.4399652  38.7724423
  80.5949783  48.0206108  37.8537297  81.5080929  48.5243797  39.2256308
  72.8477955  50.4852962  38.2708359  72.4991274  51.3379622  39.0386653
  71.9743776  49.9629402  37.4288177  72.2036457  49.2513657  36.7497039
  70.4606056  50.2372980  37.6133752  70.3228045  51.3184595  37.5989985
  69.8099709  49.7035313  36.3544869  70.2810383  50.2247238  35.5210876
  70.1112890  48.6605787  36.2567139  68.2788467  49.6939564  36.3141084
  68.0244637  49.3728542  35.3040195  67.8157997  48.9515162  36.9640851
  67.5904274  50.9777021  36.5074968  66.4234447  50.9580374  36.8601322
  67.9615831  52.0717144  36.0873699  69.9499941  49.6595669  38.9016509
  69.1241360  50.3155994  39.5072913  70.4633808  48.5083675  39.3953729
  71.3433170  48.1399155  39.0636301  69.8295164  47.8059864  40.5866528
  68.7498093  47.9323387  40.5068493  70.1361561  46.3213301  40.6315136
  71.2033939  46.1368608  40.5087376  69.8178482  45.9685326  41.6124868
  69.3924284  45.4273748  39.5549870  68.3370829  45.6794643  39.6588850
  69.6997690  45.6500340  38.5331869  69.5427656  43.6216545  39.7347665
  71.2961197  43.3026600  39.3770576  71.6484880  44.1401482  38.7749362
  71.8449879  43.3572769  40.3171968  71.3471174  42.3682308  38.8181853
  70.2826023  48.5039139  41.9111300  69.5756292  48.8191843  42.8315830
  71.6552353  48.7658644  42.0758724  72.1811914  48.5326385  41.2457705
  72.3340750  49.5502710  43.1587029  72.1227169  49.0968084  44.1271067
  73.8799906  49.4708729  43.0975628  74.1382456  49.8981524  42.1286249
  74.3644142  50.0618887  43.8748217  74.5872307  48.1340456  43.2118177
  74.3052006  47.4935865  42.3761320  76.1643839  48.3045006  43.1314516
  76.6602993  47.3453140  43.2802010  76.3964415  48.7084007  42.1460009
  76.5318012  48.9862394  43.8984823  74.1856384  47.3505878  44.4357014
  74.9292517  46.5841722  44.6542120  74.1676807  48.0280781  45.2893877
  73.1759596  46.9665194  44.2902565  71.8139648  51.0239363  43.3280611
  72.1704245  51.7668295  44.3000603  71.0384607  51.4964199  42.3092747
  70.9681368  50.8935308  41.5020084  70.4894304  52.8588057  42.1597624
  71.3298464  53.5267496  41.9709349  69.7582722  52.9645634  40.8651543
  70.3656864  52.7493000  39.9860549  69.0205956  52.1626949  40.8343744
  69.1297197  54.1877651  40.5679750  69.0357542  54.1656780  39.6128392
  69.5902538  53.3339548  43.3031797  68.8442564  52.5024557  43.8318586
  69.5135546  54.6651363  43.5568285  70.1788664  55.2064228  43.0234623
  68.5090780  55.3080940  44.4457531  68.7045717  54.9943161  45.4711437
  68.7939167  56.8301868  44.3723202  69.8778200  56.9287825  44.4317961
  68.5547686  57.2350407  43.3889484  68.2531834  57.7467299  45.5104208
  68.4391499  58.7820292  45.2246380  67.1811008  57.5947332  45.6354618
  68.9785624  57.3849487  46.7858458  68.3785582  57.8488731  47.5687122
  69.0926409  56.3605881  47.1404839  70.4995060  57.9567194  46.7341900
  71.0951233  57.1627617  46.2836695  70.6520081  58.8177586  46.0834551
  70.9418631  58.3459854  48.0046034  71.9470930  58.4083891  48.0801725
  70.5147552  59.2232418  48.2655668  70.6331825  57.7355814  48.7477160
  67.0173788  54.9201345  44.1921759  66.1953735  54.8371363  45.0843859
  66.7396593  54.6222401  42.9342365  67.4493170  54.7968006  42.2370863
  65.4297447  54.2179871  42.4573326  64.8329067  55.1299238  42.4414158
  65.7790136  53.9542150  40.9206533  66.3397503  54.7731638  40.4700994
  66.2814713  52.9874086  40.8903360  64.4263315  53.7885332  40.1840258
  63.7729216  53.1382990  40.7657099  64.0704870  54.8187828  40.1762724
  64.5343590  53.2218885  38.7137985  65.2130842  52.3699522  38.7543035
  63.5440350  53.0262852  38.3025813  65.2496529  54.2178059  37.8055096
  64.7236729  55.1718903  37.7713418  66.2658739  54.4319630  38.1364560
  65.4474401  53.6654902  36.4427519  66.0533857  52.8607368  36.5156507
  64.6237659  53.2890224  35.9956145  65.8354521  54.4058466  35.8758140
  64.7467995  53.0506611  43.1741714  63.5336256  53.0571270  43.3636522
  65.4867363  51.9392300  43.4256077  66.4794111  51.8535519  43.2602262
  64.9155045  50.7450390  44.0807009  63.8280678  50.8034563  44.0341187
  65.5349874  49.5249510  43.4093809  66.6057444  49.4326258  43.5912037
  65.1530075  48.5730219  43.7781906  65.5135107  49.6844244  41.9362068
  64.4491768  49.3750381  41.1036158  64.8858786  49.5913649  39.8509240
  64.3364573  49.3579531  38.9508915  66.1705303  49.9804592  39.8702765
  66.7106915  50.1414967  39.0321875  66.5701056  50.0580168  41.1703444
  67.6095343  50.1608849  41.4449406  65.3096104  50.6515074  45.5473900
  64.9897623  49.6961212  46.2765217  66.0935163  51.6259289  45.9838200
  66.1533546  52.4181986  45.3602552  66.5485382  51.8300915  47.3632240
  67.3851538  51.1334896  47.4172592  67.1741772  53.1865788  47.5360298
  67.5308847  53.2770061  48.5620356  67.9903698  53.3018637  46.8228436
  66.4102888  53.9395142  47.3419380  65.5600452  51.3641453  48.4947252
  66.0578537  50.5905771  49.3862295  64.2131281  51.6857195  48.3727932
  63.9042568  52.1474028  47.5292587  63.1861925  51.3564730  49.3028021
  63.5131598  51.7997408  50.2433920  61.9058228  51.9105816  48.8375998
  61.2229013  51.7344236  49.6686697  61.9577551  52.9848003  48.6602449
  61.6030979  51.3110590  47.9790974  62.9977083  49.8481512  49.5228624
  62.5444603  49.4808674  50.6143856  63.3266783  48.9464808  48.4936714
  63.7114954  49.2893410  47.6250744  63.0811119  47.5634766  48.6049747
  62.6922464  47.2331572  49.5681810  61.9265127  47.2706509  47.6453114
  61.5781212  46.2713385  47.9062557  61.1030865  47.9670811  47.8036022
  62.1253252  47.2685099  46.1603737  61.9984961  48.4459257  45.4718876
  61.8488932  49.3668509  46.0158730  62.1979904  48.5506105  44.1120911
  62.0598698  49.4985723  43.6134005  62.6422834  47.4054813  43.4165716
  62.8499174  47.4111176  42.0781517  63.2052374  48.2423067  41.7549229
  62.8843927  46.2457371  44.1261339  63.2671118  45.3271103  43.7065554
  62.6054811  46.1619568  45.5077076  62.8179598  45.2691841  46.0771132
  64.3299150  46.6804314  48.2536221  64.3838072  45.5509520  48.7126446
  65.3450871  47.1875715  47.4857426  65.1768970  48.0571413  47.0002794
  66.5333652  46.4339113  47.1183395  66.3231516  45.3906870  46.8825674
  66.9912004  47.0259190  45.7982826  67.3621607  48.0319929  45.9940004
  67.8525209  46.5081310  45.3762293  66.1456060  47.1002531  45.1145077
  67.5923347  46.4922285  48.2150936  68.5415888  45.7338858  48.1106853
  67.4936628  47.2198343  49.3653011  66.7072153  47.8514910  49.4164228
  68.5423470  47.2449064  50.3182077  69.4764090  47.5188255  49.8276997
  68.1838799  48.4014130  51.2838602  69.0537310  48.6841011  51.8767691
  68.0352640  49.3505859  50.7690001  66.8860960  48.1643867  52.1257353
  65.7495070  48.8486528  52.0985937  65.5188274  49.6118021  51.3700390
  64.8276567  48.3245373  52.9705858  63.9985418  48.8440275  53.2211924
  65.4473257  47.4273014  53.8500118  65.0164270  46.9144869  55.0818348
  63.9864540  47.0944166  55.3523779  65.9704018  46.3516855  56.0008526
  65.6327152  46.1446428  57.0055914  67.2677183  46.0704899  55.4984713
  68.0834627  45.5881834  56.0164833  67.5633049  46.4693785  54.1357374
  68.5564995  46.3078070  53.7434912  66.7413568  47.2646809  53.3362198
  68.9925337  46.0128260  51.1056805  70.1173878  46.0682583  51.5658188
  68.2728958  44.8454714  51.2557316  66.8404388  44.6735525  51.0587502
  66.6378260  44.5117044  50.0000477  66.1924410  45.5096292  51.3217688
  66.4239454  43.4178591  51.7535782  65.7878542  42.8116322  51.1086226
  65.8762407  43.7117147  52.6489973  67.7510786  42.7467823  52.1533298
  67.7754450  41.8612766  51.5182018  67.8221607  42.3656702  53.1720543
  68.8790321  43.7366581  51.8371344  69.3980646  44.0521240  52.7422237
  69.8838568  43.0176640  50.9861946  70.6072903  42.1617937  51.4686584
  69.8390913  43.1893158  49.6550417  69.1010904  43.8031912  49.3410063
  70.6018162  42.4588728  48.6505890  70.8281660  41.4911890  49.0983152
  69.6812057  42.2087669  47.4178505  69.4086075  43.1391621  46.9196987
  70.1500463  41.5711594  46.6683578  68.3574295  41.6313457  47.8392267
  68.2639694  40.2320385  48.1940699  69.1293478  39.5897460  48.1234932
  66.9624758  39.7510910  48.5949039  66.8600273  38.7221026  48.9064932
  65.9031296  40.6225204  48.5947943  64.9184704  40.3230762  48.9221811
  66.0289049  41.9339228  48.1370640  65.2009249  42.6273537  48.1356955
  67.2389650  42.4899817  47.7697611  67.2527981  43.5428524  47.5296211
  71.8599653  43.2296944  48.1747913  72.7679920  42.6807165  47.6124144
  72.0459318  44.4938898  48.5726023  71.2707472  44.9653053  49.0164089
  73.1936073  45.3771591  48.2658005  73.3104134  45.4344034  47.1835852
  72.8154755  46.8055439  48.6771202  72.5000906  46.6402960  49.7073269
  73.6637211  47.4900723  48.6799288  71.7425871  47.4844122  47.8730774
  71.2791204  47.0254660  46.6407585  71.5798140  46.0895061  46.1935806
  70.5276060  47.8399038  45.8379555  70.2715683  47.4691439  44.8564339
  70.0273275  49.0876961  46.3563824  69.0852976  49.7225761  45.5914688
  69.0004158  49.2371130  44.7676134  70.3778172  49.5611286  47.6297474
  69.9040890  50.4246378  48.0728483  71.2692833  48.7632418  48.3417463
  71.6078329  49.2159748  49.2619705  74.5647717  44.9021435  48.8355827
  75.5986595  45.1594353  48.2227755  74.5043707  44.2932415  50.0348377
  73.6511660  43.8681269  50.3686285  75.7133961  44.0285730  50.8490896
  76.4910603  44.0521145  50.0856924  75.8206034  45.2020788  51.8262196
  76.6274834  44.8984575  52.4931955  76.0246706  46.1026716  51.2470865
  74.5857906  45.3849030  52.7039719  73.7498999  45.6594372  52.0605278
  74.3312645  44.4062233  53.1107855  74.6642590  46.4456701  53.8052988
  74.9036598  47.3501730  53.2461357  73.7442970  46.5944862  54.3706465
  75.8402061  46.2710190  54.8296452  75.5918980  45.3397703  55.3387785
  76.7611122  46.2231445  54.2484903  75.8672905  47.3349047  55.8668756
  75.0227737  47.4641562  56.4055586  76.3921785  47.0291424  56.6737843
  76.2492800  48.2257271  55.5829430  75.5756712  42.6405001  51.4597511
  74.5302486  41.9973660  51.3942337  76.6868353  42.1279621  51.9452715
  78.0603552  42.5842571  51.7826033  78.2652807  43.3151579  52.5648403
  78.2376242  43.0200481  50.7993650  78.8960648  41.3411140  51.8235922
  79.9120331  41.5084982  52.1812153  78.7699413  40.9580374  50.8109522
  78.1815434  40.4971600  52.8835011  78.4102345  40.8831882  53.8768721
  78.4694052  39.4488287  52.9624701  76.6890812  40.7498884  52.4971771
  76.3772154  40.0508404  51.7211771  75.8137941  40.6397963  53.7403393
  75.6251621  41.6017342  54.4909239  75.1557827  39.4777393  53.9045620
  75.2982235  38.6856055  53.2943726  74.3182898  39.2049980  55.0999737
  73.8187695  40.1404047  55.3521585  73.2902336  38.1009626  54.8357058
  73.8020277  37.1698117  54.5925379  72.3488855  37.7647638  56.0776901
  71.2924242  37.6804900  55.8229494  72.6231384  36.7759442  56.4452744
  72.3963881  38.4976768  56.8830967  72.3836613  38.3376002  53.6166620
  71.8923807  39.3079162  53.6890268  72.9895687  38.2335186  52.7165794
  71.5762472  37.6088619  53.5451365  75.1680374  38.9035869  56.2804747
  75.9499121  37.9597092  56.2735081  75.0183916  39.6969056  57.3134708
  74.3619728  40.4633570  57.2715092  75.6162643  39.4490552  58.6919546
  76.6030455  39.0010023  58.5752583  75.9056377  40.7923603  59.3305874
  74.9703074  41.3253593  59.5013809  76.3648176  40.5530071  60.2897358
  76.8790197  41.7363739  58.6065483  76.9486284  42.8982449  59.0892506
  77.5798512  41.4669037  57.6283550  74.8283434  38.4819055  59.5628643
  74.0600586  38.9737916  60.3894329  74.8922539  37.1748662  59.3095446
  75.4969406  36.8597221  58.5644722  73.9275074  36.2532830  59.9540186
  72.9333353  36.6041923  59.6772623  74.1032505  34.8492146  59.4753170
  73.5868025  34.0461946  60.0011921  73.6963177  34.8890138  58.4649086
  75.1443195  34.5266819  59.4910097  73.8759947  36.4256525  61.5003443
  72.7305126  36.5659881  61.9822407  75.0360250  36.3201356  62.2532463
  75.8984327  36.0833645  61.7838812  75.0750828  36.3455486  63.7160063
  74.4961977  35.5283689  64.1463661  76.5898037  36.2300563  64.0554762
  77.2406626  37.0603132  63.7813282  76.5171099  36.1035490  65.1356697
  77.1547365  34.9492908  63.5034895  77.7130032  34.3930531  64.2565107
  76.3977671  34.2252779  63.2019854  78.1004667  35.2398086  62.3469305
  79.2406607  34.7227168  62.2874260  77.6771879  35.8903074  61.3936090
  74.5376015  37.6826501  64.2421436  73.9363384  37.6962399  65.3183603
  74.9020624  38.7960362  63.5774279  75.3619862  38.7919211  62.6782370
  74.3798494  40.0633478  63.9474440  74.8092127  40.3418303  64.9098349
  74.7391367  41.0747337  62.8331280  74.0176105  40.9646273  62.0235777
  74.4697380  42.0603609  63.2126856  75.7883549  41.0433292  62.5394440
  72.8430748  39.9977922  64.0659666  72.1530151  40.6100035  64.8528099
  72.2602510  39.3935776  63.0385494  72.8453016  38.8537979  62.4168873
  70.7949352  39.3281198  62.7673197  70.3170586  40.2359247  63.1355858
  70.6874943  39.1782427  61.2358284  71.3097620  38.3311152  60.9472847
  69.6524668  38.9657831  60.9680986  71.0195589  40.3822374  60.2967787
  71.9915724  40.7581234  60.6161642  71.0687637  39.9480438  58.8027668
  71.7463589  39.1020823  58.6873960  70.0764465  39.6368790  58.4762907
  71.4675808  40.7256222  58.1512928  69.8924685  41.4803791  60.4932308
  68.9053822  41.0433197  60.3424358  69.9793148  41.6988134  61.5575838
  70.0145769  42.3621273  59.8641729  69.9408245  38.3397436  63.6104822
  68.7225246  38.4324884  63.5907078  70.6875992  37.3538494  64.1488981
  71.6909170  37.4177432  64.0520716  70.3096724  36.2185407  64.9645042
  71.1605310  35.9585476  65.5942202  69.6090698  36.5570903  65.7278156
  69.8471022  35.0274539  64.1578007  69.3246365  34.0481949  64.6738100
  70.1063681  35.1355863  62.8604269  70.8588505  35.7869983  62.6885796
  69.9213505  34.1023397  61.8035364  68.9350510  33.6458611  61.8868876
  70.1228666  34.5947790  60.3224897  71.1997366  34.7452044  60.2461767
  69.9926281  33.7407017  59.6578932  69.3470716  35.8187199  59.9455976
  69.5320368  36.6478539  60.6285477  69.7549009  36.2312126  58.5611725
  70.8276606  36.3491654  58.4082890  69.5672846  35.4564190  57.8178072
  69.2490721  37.1851349  58.4119320  67.8656435  35.6368232  60.0388575
  67.3508310  36.5846658  59.8818064  67.4656057  35.0541806  59.2090368
  67.5909233  35.1259208  60.9616852  70.9345436  32.9143238  62.0746374
  72.1075773  32.9948664  61.7146826  70.5160522  31.8866944  62.8717852
  69.5134783  31.7659450  62.8908491  71.3970280  30.8145618  63.3870077
  72.3073149  31.2590694  63.7893724  70.7282257  30.0900984  64.6193695
  70.2882242  30.8045459  65.3151131  70.0314903  29.3960786  64.1492558
  71.6031599  29.2457128  65.5317354  71.2284613  28.0893612  66.1614656
  72.3011637  27.7636385  66.9017220  72.4141407  26.8996596  67.5398302
  73.1688261  28.7351847  66.9090271  74.0587759  28.7931585  67.3830843
  72.7722740  29.6607637  65.9727287  73.2335901  30.6263542  65.8270311
  71.8286085  29.8160601  62.2602320  72.8305244  29.0945792  62.4317122
  71.0735273  29.7245002  61.1627626  70.2170134  30.2555799  61.0961533
  71.2354851  28.6394191  60.1498175  72.1765709  28.1251168  60.3446245
  70.0362253  27.6690674  60.4129219  70.2398729  26.9388533  59.6297121
  70.1719284  27.1759510  61.3754845  68.5889912  28.1173110  60.3367662
  67.8609085  27.2724342  60.8730268  68.2062006  29.2655945  60.0636339
  71.2511969  29.2115378  58.7062311  71.2389040  28.4117985  57.7406263
  71.3595533  30.5130911  58.5555601  71.4855814  31.1200142  59.3529701
  71.5563965  31.2175941  57.2448111  70.6452131  31.1281228  56.6533375
  71.7981434  32.7359581  57.3592901  70.9046841  33.2383347  57.7300358
  72.5420141  32.9157925  58.1354475  72.1357775  33.4109926  56.0982418
  73.4929466  33.4213042  55.7371140  74.1986322  32.8525949  56.3244677
  73.9233208  33.9539719  54.5063972  74.9327850  33.8435483  54.1387272
  73.0232573  34.4933367  53.6329746  73.4837294  35.0394630  52.4537373
  74.1558647  35.6921172  52.6632166  71.6297245  34.4858122  54.0052462
  70.9106684  34.7952962  53.2612133  71.1930799  34.0853715  55.3053761
  70.1363754  34.1817141  55.5066061  72.6628256  30.4499340  56.4397669
  72.4966717  29.9124694  55.3716612  73.8458490  30.3216934  57.0297098
  74.1228390  30.6567264  57.9413748  74.9873209  29.6132851  56.3796854
  74.9759865  29.8378229  55.3131247  76.3669300  30.0741935  56.8965197
  76.5839291  29.8264432  57.9355717  77.1979380  29.5893335  56.3842297
  76.7470741  31.5227938  56.6508293  77.1432495  32.0974612  55.4013968
  77.3971033  33.3872342  55.7592106  77.7557993  34.1311288  55.0632477
  77.1304750  33.6123681  57.0574045  77.3447704  34.4520354  57.5761890
  76.6758013  32.4534321  57.6330185  76.4016104  32.3986697  58.6761951
  74.8960686  28.1225586  56.5143156  75.7625294  27.3750639  55.9428501
  74.0191889  27.5378108  57.3339128  73.2942581  28.1503320  57.6794434
  73.8284826  26.0753393  57.2648764  74.7703886  25.5644178  57.0652008
  73.1110954  25.4428363  58.5012484  72.2493362  26.0804439  58.6985588
  72.6379681  24.4718337  58.3549213  74.0301943  25.3430152  59.7072792
  73.4733868  25.3616810  60.8420944  75.2755499  25.3911924  59.6491814
  73.0060434  25.7100940  56.0398197  73.3840418  24.6800590  55.4201031
  71.8725395  26.3926816  55.6567192  71.6333532  27.2380137  56.1550188
  71.1070061  26.1803722  54.4159937  71.0003710  25.1094580  54.2431641
  69.7155523  26.7669153  54.6898651  69.8663712  27.8270555  54.8934746
  68.8894463  26.6395140  53.4289026  67.9432869  27.1646881  53.5595417
  69.5223665  27.0019746  52.6188755  68.7089872  25.5697155  53.3236790
  69.0409517  26.0958934  55.9037495  68.9095879  25.0307417  55.7132387
  69.6470881  26.0655665  56.8091679  67.6623344  26.6907549  56.2978601
  66.9632530  26.4520049  55.4963636  67.2541094  26.1811352  57.1706390
  67.7513885  27.7724600  56.3982725  71.8611765  26.7038441  53.2082415
  72.0486307  26.0312128  52.1625519  72.2817707  27.9976773  53.2694864
  72.1585321  28.4919190  54.1416311  72.8369951  28.7460065  52.1657991
  72.3469067  28.3936381  51.2581921  72.6494455  30.2726388  52.3132324
  73.1699944  30.6537485  53.1918097  73.3478498  31.0090542  51.1924791
  74.4160748  30.8404517  51.0562134  72.8846455  30.7287169  50.2464533
  73.0791140  32.0644426  51.2376165  71.1228657  30.5803061  52.4272633
  70.8495188  30.1075339  53.3705902  70.9809542  31.6492796  52.5862122
  70.2635813  30.0258923  51.2858629  69.2836332  30.5029631  51.3001680
  70.6925631  30.2787757  50.3162622  70.0877428  28.9503694  51.3066149
  74.2992401  28.3695197  51.9873953  75.1844931  29.0556121  52.5073671
  74.6060658  27.2809029  51.2480450  73.8761425  26.8383026  50.7082176
  75.9936905  26.8482232  50.9991837  76.4811134  26.7976856  51.9728231
  75.9916210  25.3699136  50.4595900  75.6413174  25.3885460  49.4275808
  77.0548916  25.1361632  50.4055500  75.2088499  24.2404723  51.2674475
  74.1579580  24.4098711  51.0328722  75.4473209  23.2387376  50.9100056
  75.4819155  24.3695259  52.7822018  76.5415478  24.3001461  53.0281162
  75.0725794  25.2557993  53.2670355  74.8744869  23.1243348  53.4521818
  75.4102182  22.2595215  53.0607891  75.0549030  23.1277013  54.5271444
  73.4466314  22.9340363  53.2143831  73.2516575  22.9872584  52.2248077
  73.1470585  22.0979905  53.6954069  72.9519606  23.6709809  53.6963749
  76.7931890  27.7582073  50.0791359  78.0494213  27.8041101  50.1989555
  76.2107038  28.4819031  49.1195822  75.2167654  28.3717251  48.9779902
  76.9034529  29.4308639  48.1601715  77.9642630  29.3540025  48.3986378
  76.8102217  28.9466524  46.6803026  75.7687330  28.9310193  46.3591099
  77.3098040  29.6610355  46.0259533  77.3754501  27.5520420  46.4462566
  76.7824459  26.6115284  45.5835581  77.4881887  25.5161786  45.6575537
  77.2643423  24.6663666  45.0297689  78.5307980  25.6502938  46.5330124
  79.3149614  25.0488400  46.7414427  78.4122658  26.8912458  47.0648241
  79.0144110  27.3679066  47.8241777  76.3222027  30.8556724  48.2767820
  75.2745199  31.1497140  47.6465416  76.9389963  31.7246103  49.1175222
  77.9583359  31.4536357  50.1469564  78.9721680  31.3537955  49.7593069
  77.8627920  30.5253029  50.7101393  77.7569818  32.6003528  51.1963701
  78.7170935  32.9054689  51.6125298  77.0292187  32.2634745  51.9345903
  77.1115637  33.7919092  50.4640055  77.8920031  34.4555855  50.0918102
  76.4605188  34.2107987  51.2313223  76.4733934  33.1184483  49.2759085
  75.3976297  32.9791617  49.3828106  76.7023277  33.9680529  48.0093861
  77.7511692  33.8932061  47.3329735  75.8656931  34.9308801  47.6631927
  74.9760723  34.9600005  48.1405020  76.1764622  35.9725022  46.6799450
  77.2093725  36.3142085  46.7466116  76.0097647  35.3441691  45.2816820
  76.5446186  34.3950701  45.2465343  74.9464130  35.1944399  45.0946617
  76.4137506  36.2100005  44.0506029  76.4443159  35.6683707  43.1051922
  75.6543636  36.9918537  44.0625763  77.9959536  37.0241046  44.2489386
  79.1311455  35.6240225  44.0320492  79.2196369  35.3604293  42.9781103
  80.1081276  35.9579778  44.3814564  78.8095140  34.7056746  44.5232677
  75.3305960  37.2164917  47.0249701  74.1863251  37.0851302  47.5102949
  75.8669519  38.3951235  46.7642117  76.7648840  38.3794379  46.3020754
  75.2419949  39.6933579  46.9589138  74.1812754  39.5475769  46.7546511
  75.5975819  40.2345037  48.3878803  74.9127674  41.0778666  48.4765577
  75.4090738  39.5390892  49.2057848  77.0179415  40.6822252  48.5496759
  77.9652834  39.8529840  48.5899162  77.2700596  41.8821907  48.6426353
  75.7295752  40.7739449  45.9313822  76.7426968  40.5123091  45.2009010
  75.0818825  41.9690609  45.8867168  74.2505789  42.1919346  46.4152575
  75.5338383  42.8807640  44.8310089  75.5970240  42.2119045  43.9726734
  74.3424511  43.8591814  44.5001888  74.0011168  44.2970848  45.4381800
  74.7400379  44.5789194  43.7846327  73.1609583  43.1118822  43.7618971
  72.5588083  42.5439596  44.4711065  72.2453308  44.2979145  43.3738089
  71.4181089  43.8464499  42.8260946  71.9923735  44.8307657  44.2904186
  72.7437878  45.0351620  42.7444458  73.4944773  42.4583530  42.4538660
  73.7350225  43.2451105  41.7388487  74.2128611  41.6415930  42.5240850
  72.5807953  41.9619560  42.1269512  76.8800354  43.6036253  45.0819063
  77.4159813  44.0965176  44.1024446  77.5144768  43.6043453  46.3120699
  77.1069622  43.2694960  47.1734142  78.8396740  44.1626167  46.4304256
  78.9541626  45.0477600  45.8047199  79.0617657  44.4524622  47.9073715
  79.7562933  45.2925301  47.9113579  78.1100750  44.8158693  48.2950783
  79.4492245  43.3340883  48.6481953  78.6762238  42.7655935  48.6183548
  79.8554754  43.1424761  45.9022141  80.8722019  43.6197281  45.3692818
  79.6295834  41.7942572  46.0785055  78.7564898  41.5571451  46.5274858
  80.5155754  40.7580233  45.5245304  81.5398884  41.1055326  45.6591845
  80.2407074  39.4493246  46.1906099  79.2522812  39.0921450  45.9015656
  81.3393974  38.4811902  45.8122396  81.3286114  38.2422638  44.7488022
  82.2881603  38.9799500  46.0102224  81.3632679  37.5838518  46.4305592
  80.3375244  39.5949554  47.5754547  79.4698572  39.6520519  47.9822636
  80.4107285  40.6222963  44.0120983  81.4341354  40.4545593  43.3583546
  79.2201519  40.8607101  43.4004068  78.4060001  40.9574699  43.9902306
  78.9461994  41.1218596  41.9544458  79.3638277  40.3699350  41.2848949
  77.3702049  41.0607004  41.6388321  76.7621136  41.6843796  42.2940779
  77.0107412  41.4211941  40.2301311  77.1926689  42.4813032  40.0535631
  77.4740934  40.8344316  39.4369626  75.9243679  41.4020491  40.1433849
  76.8762112  39.6018028  41.8247032  75.9128428  39.4416213  41.3406038
  77.6024532  38.9298940  41.3673019  76.6719103  39.4014525  42.8764725
  79.5970917  42.5114536  41.5128994  80.1874638  42.4389124  40.4296875
  79.5770121  43.5771847  42.3407459  79.0431643  43.5010052  43.1947374
  80.3442001  44.8342419  42.0219517  80.0462532  45.1608229  41.0256147
  80.1427841  45.9706926  43.0304289  79.0720749  45.9646082  43.2344818
  80.6015491  45.5645752  43.9319277  80.5812359  47.3940706  42.6108074
  81.6604996  47.3251390  42.4746180  80.0424480  47.4476051  41.6647959
  80.0948048  48.5307169  43.4641171  80.0208187  49.3566847  42.7567244
  79.1342497  48.3332682  43.9399862  81.0636616  48.8930321  44.5343924
  81.2631893  48.1525421  45.3089666  82.0209503  49.2105818  44.1210318
  80.6011677  50.1280975  45.2092552  80.9206581  50.1413345  46.1673069
  81.0005188  50.9415960  44.7633362  79.6035528  50.2825975  45.1776218
  81.8475628  44.4793987  41.8254471  82.4315453  44.9156427  40.8397865
  82.4213982  43.5802364  42.6079416  81.9230175  43.3332539  43.4509897
  83.8736916  43.2914209  42.6293659  84.3963718  44.2252493  42.4222994
  84.2494965  42.7237272  44.0399456  83.5739231  43.0474091  44.8317337
  84.1243839  41.6417360  44.0816212  85.6989288  43.1546736  44.3587017
  85.8514881  44.2295504  44.4560051  85.8471584  42.8626776  45.3983498
  86.7945480  42.5482082  43.4846592  86.6711140  42.6617813  42.4076414
  87.7426052  42.9946709  43.7845755  86.7974186  41.1193800  43.6946201
  86.4418602  40.8366823  44.5967102  87.5003910  40.1779366  43.0517387
  87.2750187  38.9420843  43.0343342  86.4348602  38.5872149  43.4682751
  88.0355644  38.4051466  42.6427126  88.4433365  40.5536509  42.2112560
  88.5693264  41.5433836  42.0542097  88.9134312  39.8639631  41.6425323
  84.2810249  42.3000813  41.5141344  85.2161980  42.5236416  40.7245207
  83.4328938  41.3468313  41.2330627  82.6379395  41.3710833  41.8556023
  83.4735107  40.3254652  40.1055956  84.5049095  39.9871850  40.2049494
  82.4781322  39.1684461  40.3372335  81.4998341  39.5026350  40.6827259
  82.3772526  38.6479473  39.3848705  83.1480885  38.1906271  41.3819647
  84.1733837  37.9222560  41.1273146  83.2047272  38.6004138  42.3904133
  82.2567558  36.9614410  41.5358400  82.6101685  36.3856125  42.3911858
  81.2237835  37.2448206  41.7377758  82.3854542  36.0986447  40.3233051
  82.0596790  36.6991186  39.4739485  83.4358025  35.8357811  40.1977348
  81.7016315  34.8018289  40.3879690  80.7614422  34.7714686  40.7556915
  81.7110825  34.2734289  39.5272636  82.1807861  34.1899228  41.0330105
  83.3486748  40.9265137  38.7009168  84.1757107  40.7538986  37.8464913
  82.3576641  41.8505573  38.6507821  81.8223953  41.9640064  39.4997287
  82.3178291  42.8330851  37.5139165  82.3474121  42.1452904  36.6688371
  80.9046268  43.5491896  37.6435041  80.0844002  42.8657532  37.8631520
  80.9895515  44.0881634  38.5871100  80.5755234  44.3157911  36.3487315
  79.5859814  44.7145891  36.5720654  81.2309074  45.1717710  36.1879039
  80.5440521  43.4189892  34.8079920  79.1172981  42.2755146  35.0962448
  78.2630491  42.9145193  35.3199363  79.0465832  41.6922665  34.1781354
  79.3629551  41.5899849  35.9072924  83.4400940  43.8547659  37.3422074
  83.9419651  43.9399576  36.2165976  83.8505363  44.5787668  38.3910441
  83.3665371  44.4828796  39.2723274  85.0188255  45.4670620  38.3621454
  84.8370743  46.2365007  37.6117921  85.1305199  46.3284731  39.6956587
  84.9820328  45.7176733  40.5861473  86.1151505  46.7959404  39.6859145
  84.0749931  47.4725246  39.7449470  84.0235233  48.1305122  40.7603359
  83.3397293  47.7282619  38.7616968  86.2603092  44.7320223  37.9837132
  86.8114185  44.9471474  36.9573092  86.5791893  43.6824322  38.7197661
  85.9190655  43.4114122  39.4345331  87.7131271  42.8532457  38.4987974
  88.5742760  43.5189724  38.4410191  87.7470112  42.1402407  39.3225574
  87.6078129  41.9696188  37.3036790  88.5649204  41.2526846  36.9517851
  86.4501190  42.0745420  36.5958524  85.7572746  42.6378250  37.0678496
  86.0235500  41.2898493  35.3913927  84.9445152  41.2135983  35.2572942
  86.6468620  41.9414616  34.0604782  87.7249050  42.0546961  34.1750050
  86.4776516  41.2538385  33.2318377  85.8685112  43.3228445  33.7407088
  85.7995129  43.8219929  34.7072411  86.4553070  43.9964151  33.1161523
  84.4659138  43.1339025  33.1474328  84.4652271  42.3567677  32.3831320
  83.7621403  42.8186035  33.9177465  84.0534496  44.3249989  32.3597527
  83.8522243  44.1788673  31.3808489  83.9367962  45.5370522  32.8198075
  83.9460087  45.7166529  34.1730881  83.8754654  44.8722315  34.7227001
  84.5399475  46.4446163  34.5437598  83.8296127  46.5251446  31.9991398
  84.2415047  46.4114332  31.0839820  83.6905861  47.4142122  32.4577546
  86.4765930  39.8046112  35.4478598  87.1067429  39.2072487  34.6176934
  86.0640812  39.2610097  36.5921712  85.4361153  39.8085785  37.1630764
  86.3747692  37.9020309  36.9818306  87.4224281  37.6170373  37.0782423
  85.7096672  37.7256012  38.4002519  84.6325207  37.8878951  38.3613372
  85.9306335  36.7344713  38.7964034  86.4697838  38.7119722  39.4196105
  86.2540722  39.7232747  39.0748858  86.1155033  38.4585071  40.4187822
  87.9666042  38.5706496  39.3913054  88.6980724  39.5403719  39.5331550
  88.4782314  37.4148560  39.3067503  85.6257725  36.9525886  35.9969807
  85.8072567  35.7375765  35.8546996  84.4859409  37.4233890  35.5167842
  84.2183590  38.3694792  35.7479239  83.6843109  36.6841197  34.5102286
  83.3856297  35.7957244  35.0666857  82.4473000  37.5480747  34.1424537
  82.7960396  38.4734678  33.6840534  81.8278694  37.0635557  33.3876944
  81.6398335  37.8323436  35.4101539  81.1862469  36.7369223  36.1681557
  81.3464928  35.6984305  35.9186220  80.5506039  37.0159650  37.4334550
  80.1578712  36.2168407  38.0446553  80.2320004  38.3671689  37.7825403
  79.4588137  38.4959722  38.8796735  79.3716383  37.6727271  39.3657541
  80.7183838  39.4028521  37.0021939  80.4649925  40.4238749  37.2465444
  81.5279198  39.1508603  35.8471751  81.9758892  39.9777913  35.3162217
  84.3479824  36.4231491  33.1287861  85.0030422  37.3182511  32.5762367
  83.9070415  35.3362107  32.4745488  83.3856106  34.1355896  33.1361914
  82.3671913  34.3282628  33.4735394  83.9990616  34.0684605  34.0346766
  83.5568523  32.9743505  32.2504044  82.5512981  32.8118253  31.8624258
  83.9377022  32.0995998  32.7775264  84.4609928  33.4569454  31.1206627
  84.2468071  33.0874991  30.1178002  85.4449272  33.2052660  31.5164065
  84.3014526  35.0054002  31.0971928  85.2377701  35.4140472  30.7171631
  83.1652451  35.3677440  30.2125216  83.4578800  35.3676558  29.0198302
  81.9884777  35.8114171  30.5872321  81.7075729  35.8290911  31.5572214
  80.7801151  35.9798527  29.7422123  81.0680199  36.7206812  28.9962983
  80.4017448  34.6638966  29.1147232  79.4918537  34.7259617  28.5177755
  81.1528492  34.3636870  28.3840895  80.2522755  33.4443665  30.0470996
  79.8309040  33.5776901  31.2145329  80.5735779  32.3208475  29.5597601
  79.6259546  36.6286182  30.5319309  79.6485567  36.7321682  31.7873502
  78.6278772  37.1000934  29.8269796  78.6880922  37.2122216  28.8250303
  77.5189352  37.6193953  30.4916120  77.7138090  38.5307336  31.0569310
  76.6559267  38.3059454  29.3960595  76.0858774  37.5995874  28.7925625
  75.9351826  38.9887929  29.8458910  77.1997213  38.9860654  28.7404442
  76.7509317  36.5959477  31.3590884  76.1491013  37.0347261  32.3956871
  76.8439150  35.3664184  30.9524155  77.1800375  35.1723647  30.0199628
  76.3185215  34.2625070  31.6928005  75.2499533  34.4202471  31.8390656
  76.4646673  32.9509330  30.9142351  75.6092072  32.7688980  30.2637362
  77.2371864  33.1293082  30.1662374  76.6530371  31.6017151  31.6529918
  76.8833590  30.8074307  30.9429455  77.6223707  31.7321420  32.1341157
  75.5714893  31.0760212  32.5706148  74.4042015  31.3934302  32.4162722
  75.9607029  30.0753450  33.3322406  75.2201557  29.5632410  33.7898850
  76.8512821  29.6157670  33.2067370  76.8997288  34.2149997  33.1448388
  76.1060762  33.8131046  33.9912677  78.1996965  34.4497800  33.3429432
  78.7712288  34.6953654  32.5472450  78.8580036  34.3544602  34.6654940
  78.8649654  33.3283114  35.0330305  79.8481131  34.7398019  34.4219923
  78.2548904  35.4299521  35.6522465  78.0612755  35.0987792  36.8506265
  77.9569530  36.6422081  35.2163768  78.0819035  36.8953943  34.2466402
  77.3361206  37.6888371  35.9782791  77.8513479  37.7973390  36.9326711
  77.4189329  38.9044666  35.2103686  78.4442806  39.2571211  35.3217030
  77.2868872  38.6718488  34.1536951  76.4191961  39.9995542  35.6199288
  76.7051744  40.9647560  36.6149020  77.6553535  41.0078382  37.1264791
  75.7169294  41.8850422  37.0176339  75.8930635  42.5843763  37.8215694
  74.5462656  41.9177008  36.2047434  73.7444019  42.6136398  36.4024544
  74.2823744  41.0962820  35.1360083  73.3943367  41.0901451  34.5213866
  75.1727009  40.0832796  34.9292588  75.0031090  39.3487597  34.1558790
  75.8553505  37.2803783  36.3225341  75.4140759  37.2881246  37.4524927
  75.0814724  36.8459439  35.3043103  75.5647612  36.6254520  34.4452882
  73.6942530  36.3964844  35.4096389  73.1968164  37.2703576  35.8303571
  73.1934500  36.1227894  34.0189791  73.7817335  35.2908444  33.6318183
  72.1693516  35.7953167  34.1981149  73.1706572  37.0016408  33.3746195
  73.5149908  35.2250218  36.3411999  72.7521086  35.3190970  37.3144913
  74.3701792  34.2394495  36.2758064  75.0422335  34.2940450  35.5238366
  74.3587351  33.1122804  37.2427559  73.3533955  32.6955128  37.3035192
  75.3818035  32.0253849  36.7780924  75.4160166  31.2495637  37.5429702
  74.9924898  31.5587211  35.8732414  76.3591814  32.4770141  36.6081762
  74.6232462  33.5451603  38.7335587  74.3363953  32.8322339  39.6785951
  75.3075314  34.6649575  38.9686656  75.7719088  35.1173902  38.1942248
  75.5362034  35.2436352  40.2696896  75.5399179  34.4398689  41.0059261
  76.8067408  36.0874987  40.3337860  76.6877842  36.8337274  39.5482349
  76.8447781  36.7150784  41.2241745  78.0954599  35.2865052  40.3244829
  78.0413055  34.0408230  40.4825830  79.1572142  35.9667683  40.3008413
  74.2870045  36.0274577  40.7335329  73.8098049  35.7846427  41.8554831
  73.7477398  36.9457722  39.9294019  74.0428877  36.9933343  38.9646626
  72.5334883  37.6835346  40.3516245  72.6827192  38.2235479  41.2866211
  72.1565437  38.7708735  39.3116617  71.9617558  38.2730603  38.3617449
  70.8284569  39.4471574  39.6873975  70.5772352  40.2773571  39.0272784
  70.0609684  38.6761451  39.6195745  70.9116554  39.7854781  40.7202196
  73.2686996  39.7977638  39.0750122  74.2736244  39.3868637  39.1719389
  73.2401323  40.2455950  38.0816674  73.1256437  40.6298590  39.7643948
  71.4617968  36.6539073  40.6607151  70.7580519  36.8362236  41.6972113
  71.3201809  35.6587410  39.8120570  71.9821024  35.6209517  39.0501332
  70.3335238  34.6405387  40.0120687  69.3765879  35.0821114  40.2902603
  70.1604033  33.9487362  38.6489248  69.9455690  34.7779059  37.9748130
  71.0901690  33.4257412  38.4250760  68.9114618  32.9624557  38.5605764
  69.1189432  32.1472383  39.2537451  67.9556942  33.4192872  38.8172960
  68.7462521  32.3683929  37.2019362  69.6030378  31.7101169  37.0580649
  67.9322386  31.6437793  37.1814656  68.4454203  33.4138536  36.1482763
  67.5312901  33.8409209  36.1939001  69.1405249  33.8243771  35.0893140
  68.5986471  34.7266746  34.3604159  67.6616764  35.0528479  34.5495987
  69.0688515  34.9456763  33.4937859  70.3049278  33.4010720  34.8251462
  70.6682158  32.6564717  35.4028153  70.7601643  33.7494159  33.9935708
  70.5761242  33.7017345  41.1499453  69.6155691  33.3883977  41.8897581
  71.8412638  33.3837271  41.5195894  72.6309633  33.7527514  41.0093975
  72.1575212  32.6865435  42.7776146  71.6594028  31.7182565  42.8266478
  73.7158203  32.3971057  42.8033209  74.0145397  31.7415094  41.9853640
  74.2700481  33.2870269  42.5050354  74.2823887  31.7249060  44.0952349
  74.1041231  32.4205041  44.9152756  73.6070967  30.3851128  44.3485355
  73.5726404  29.7388840  43.4714365  74.1157627  29.9322820  45.1995945
  72.5491095  30.5077124  44.5803356  75.7989740  31.4020157  43.8859606
  76.2550879  32.3257995  43.5300255  76.2505484  31.2035704  44.8579693
  75.9365940  30.5796123  43.1839561  71.7152548  33.4817553  43.9881277
  70.9833765  32.8694296  44.8226929  72.0886564  34.8044086  44.0782356
  72.5933313  35.1660132  43.2815886  71.5490007  35.7319307  45.0533915
  71.9789886  35.3995514  45.9982395  72.0954943  37.1751928  44.8082733
  73.1848669  37.2112393  44.8165369  71.8295193  37.5144219  43.8071299
  71.5269661  38.2079101  45.7142353  70.4397154  38.1308770  45.7066584
  71.8509912  37.9837942  46.7305422  71.9776869  39.9056101  45.2983236
  70.8252430  40.2154875  43.9311123  70.6991291  41.2871552  43.7770891
  71.2055874  39.7215962  43.0369568  69.9469471  39.5814991  44.0525770
  69.9876547  35.6699800  45.2863932  69.5939684  35.6495833  46.4059544
  69.1376781  35.6223130  44.2044115  69.6065855  35.7204747  43.3152628
  67.6891565  35.5422330  44.3596649  67.2623253  36.2158203  45.1027679
  66.9709778  35.6770778  43.0268240  67.4055529  34.8636270  42.4458313
  65.9221792  35.4317856  43.1940079  67.2166729  36.9399571  42.2776890
  67.3533773  38.1248426  42.9807806  67.3102570  38.1106281  44.0598249
  67.5663853  39.3321919  42.3063898  67.5758123  40.2566099  42.8647518
  67.6513004  39.3289709  40.9163284  67.8188467  40.2488899  40.3758907
  67.5836992  38.1126118  40.1820183  67.7931118  38.1403828  39.1228795
  67.2360563  36.9502497  40.8609200  67.0279837  36.0018158  40.3880787
  67.2223902  34.1462398  44.8576689  66.2704897  34.0770960  45.6463146
  67.8411293  33.1003118  44.3018675  68.6845684  33.3191991  43.7911797
  67.5850153  31.6999722  44.6281242  66.5560770  31.4996624  44.3293524
  68.5225821  30.8309698  43.7807608  69.5762110  30.8921266  44.0532017
  68.3411789  29.7837210  44.0225601  68.3540678  31.1249757  42.3356867
  68.6376047  32.0250654  42.1594954  67.8369951  31.5025210  46.1462402
  66.9603109  31.0178876  46.7635202  68.9486456  32.0397186  46.7102289
  69.6464634  32.2808075  46.0210037  69.2161512  32.0127320  48.0954456
  69.3855762  30.9768701  48.3893776  70.5013466  32.8506947  48.4067392
  70.3631449  33.8208461  47.9294443  70.5285215  33.0405140  49.4797421
  71.8241835  32.1859646  47.9323816  71.8414307  31.0133171  47.6110983
  72.9109478  32.8392243  48.0234909  73.7733984  32.3480392  47.8363562
  72.8918648  33.7854981  48.3760595  68.0186558  32.4064803  48.9495087
  67.6523256  31.6947794  49.9174547  67.4055004  33.5754180  48.6784172
  67.6573563  34.1846871  47.9132605  66.3107824  34.0428138  49.4527006
  66.6992140  34.0080905  50.4705477  66.1508989  35.4906845  49.0458775
  67.0502710  36.0844755  49.2091084  65.9534883  35.6469131  47.9853487
  64.6512318  36.2395310  49.8591423  65.0174761  35.9621978  51.1136770
  65.0776958  33.1600165  49.3875408  64.5322704  32.7818704  50.4184198
  64.5212173  32.6290727  48.2520676  64.9287128  33.0001354  47.4056864
  63.3627033  31.7372441  48.2127762  62.5256634  32.2499371  48.6867094
  62.9678249  31.3864756  46.7574739  63.5800076  30.5561566  46.4054775
  61.9891357  30.9325957  46.9132566  62.9440737  32.5772476  45.7415056
  62.4291611  33.8186574  46.1696529  62.0230436  34.0613556  47.1405172
  62.4245071  34.8035836  45.1485109  61.9734430  35.7466745  45.4196644
  62.9386568  34.5805264  43.8463354  62.8182602  35.5615902  42.9192162
  63.4308243  35.4279041  42.1922398  63.3012104  33.2892990  43.4006357
  63.5515881  33.0799747  42.3711205  63.3423901  32.2731876  44.4264126
  63.6621952  31.2588835  44.2385006  63.5633945  30.4809618  49.1009188
  62.5379038  29.9550414  49.6786690  64.8287344  29.9914742  49.1594553
  65.5570602  30.5167413  48.6971426  65.1536226  28.7906528  49.9552011
  64.4742966  28.0106592  49.6113634  66.5241241  28.3211827  49.5616245
  66.5037918  28.0913472  48.4963274  67.1928644  29.1393876  49.8288965
  66.9503784  27.0338440  50.2465820  66.9461966  27.1964741  51.3243723
  66.2471247  26.2095904  50.1276731  68.4061050  26.7144966  49.8432875
  68.5677576  26.8054724  48.7691832  69.0113163  27.3971033  50.4398298
  68.8435936  25.3002000  50.3278828  68.4319544  25.1352859  51.3236046
  68.3463144  24.5335078  49.7337484  70.3541231  25.0770354  50.2001238
  70.5688000  24.1296387  50.4766369  70.7313347  25.2081084  49.2724180
  70.7506180  25.7805705  50.8066940  64.9872446  29.1198540  51.5059137
  64.2493916  28.4466124  52.2901440  65.7180738  30.1661134  51.8799686
  66.1870956  30.7456160  51.1985779  65.9613371  30.4506946  53.3094597
  66.2589836  29.5684981  53.8762379  67.0944071  31.3990521  53.4681225
  67.9405546  31.0714412  52.8641272  66.9781590  32.3548412  52.9571915
  67.5836134  31.5674400  54.8904610  68.0826378  30.4918885  55.6482077
  68.2431221  29.4733286  55.3269720  68.1184244  30.6673074  57.0443678
  68.3820724  29.8182034  57.6574850  67.8312111  31.8921423  57.6554060
  68.0100536  32.0901918  59.0066528  68.2402086  31.2826300  59.4719219
  67.4031019  32.9701972  56.8380499  67.1528339  33.9167047  57.2939968
  67.3023796  32.8044200  55.4681492  66.8089199  33.5517120  54.8644495
  64.7307825  31.0799074  54.0588903  64.6164942  30.7720733  55.2451706
  64.1172600  32.0515847  53.4779835  64.2412233  32.1598887  52.4814844
  63.0385113  32.8198624  54.1925716  63.4319496  33.0528831  55.1820183
  62.9693842  34.1616940  53.3879566  62.8415775  33.8492870  52.3515368
  62.1005535  34.7019792  53.7638855  64.2278194  34.9758458  53.6152983
  65.1010513  35.0434351  52.7486801  64.5040321  35.6131911  54.6983910
  65.4140949  36.0466099  54.7619581  63.9998388  35.5556393  55.5716467
  61.7547512  32.0426464  54.2102242  61.5649605  31.2212324  53.3391953
  60.6818485  32.4284053  54.9776554  60.8278847  33.2844210  56.1012650
  60.9886217  34.2865348  55.7037258  61.5704155  32.8146267  56.7462730
  59.4843340  33.1681657  56.8561745  58.9465284  34.1148114  56.8039513
  59.5606756  32.9395580  57.9191971  58.6973953  32.0402932  56.1722469
  57.6116657  32.1279287  56.2124300  58.9650536  31.1288667  56.7068100
  59.3659258  31.9679093  54.8277569  59.4228649  30.9101939  54.5706654
  58.5494757  32.7308655  53.7273073  58.6053181  33.9581990  53.7671852
  57.6706839  32.0436502  52.9105091  57.3090935  30.7079053  53.1387949
  56.8967867  30.7314420  54.1475296  58.0927086  29.9502444  53.1378126
  56.1848927  30.3624344  52.2096348  55.2334785  30.3803849  52.7412271
  56.3763571  29.3917727  51.7521906  56.2452555  31.4681315  51.0958672
  55.2119541  31.7677712  50.9209013  56.7661333  31.0641813  50.2277660
  57.0190620  32.5636864  51.7083740  57.8659725  32.8292537  51.0756588
  56.1348248  33.9178109  51.8937778  55.9899044  34.7240686  50.9750843
  55.4940557  34.1639590  53.0413914  55.6720638  33.5226154  53.8010597
  54.8809385  35.4155016  53.3667612  54.2399359  35.7027912  52.5332832
  53.8826752  35.1843071  54.5854235  54.4741678  34.7032547  55.3644133
  53.5173845  36.1654115  54.8889065  52.6316595  34.3373847  54.2203808
  52.3841667  33.3233452  54.9598551  51.9762993  34.6273017  53.2445335
  55.8133650  36.6690063  53.7182570  55.2365446  37.7988815  53.7656975
  57.0726585  36.4605308  54.1024065  57.4702644  35.5367684  54.0092850
  57.9336643  37.5251484  54.5352888  57.4554300  37.9912305  55.3967762
  59.3020678  36.9109249  54.9097729  59.0933943  35.9986567  55.4686308
  59.8402262  36.7293930  53.9794350  60.2559137  37.8188968  55.7205915
  60.9035397  38.9594984  55.3063965  61.7174482  39.3650126  56.2856674
  62.2164726  40.3227472  56.2963009  61.5221214  38.5628724  57.3949862
  61.8732119  38.8549781  58.2958269  60.6889582  37.5259447  56.9880438
  60.1951933  36.7997289  57.6167059  58.1588459  38.4993410  53.3512640
  58.3180761  38.0793476  52.2555256  58.0725765  39.7816515  53.5555124
  57.8086090  40.1039743  54.4755793  58.1296587  40.7326365  52.4651003
  57.4828577  40.4159880  51.6468763  57.6397324  42.1879435  52.8802586
  58.0454636  42.3788738  53.8737535  58.1526470  42.9287434  52.2668791
  56.0904837  42.3885298  52.7777147  55.8425808  42.9180098  51.8577719
  55.4807186  41.4977837  52.6264906  55.5704117  43.2132959  53.9209414
  54.3251848  43.2834435  54.0815973  56.2850618  43.7436771  54.7704697
  59.5158863  40.8005381  51.8833017  59.6047020  41.0793018  50.6309986
  60.5881166  40.4995489  52.6076651  60.4670382  40.0903559  53.5230875
  61.8968058  40.2169800  51.9582415  62.1626329  41.2332869  51.6674519
  63.0332041  39.7052789  52.8705692  62.9867506  40.2193117  53.8306284
  63.0589056  38.1833720  53.1569481  62.0810318  37.8106284  53.4617710
  63.3427763  37.6651621  52.2409916  63.8065815  37.9817963  53.9240551
  64.4083691  40.0774527  52.3588943  64.6537018  39.5401883  51.4427805
  64.4059181  41.1030340  51.9897318  65.2075529  39.7795296  53.0376005
  61.8578339  39.2901969  50.7646942  62.4592304  39.6040010  49.7605133
  60.9754467  38.2978415  50.6829262  60.5130768  38.1087780  51.5607452
  60.6824827  37.4331808  49.5107269  61.6508007  37.1205974  49.1198874
  59.9061728  36.1805224  49.9852228  59.1548634  36.4097548  50.7409239
  59.0643167  35.5129480  48.8786268  58.6228371  34.5413804  49.1005754
  58.2378054  36.1399865  48.5442495  59.5790672  35.2003360  47.9701090
  60.9063387  35.1091695  50.5281639  61.5428448  35.6307864  51.2429190
  60.2786016  34.3316770  50.9635401  61.5054750  34.6818042  49.7241163
  60.0175667  38.1210685  48.3048582  60.5494547  38.0787730  47.1828222
  58.9466381  38.9106297  48.6078024  58.6166096  38.8699532  49.5614958
  58.3218813  39.8252106  47.6524210  57.8384256  39.1508651  46.9455719
  57.3401117  40.6225204  48.4299994  56.8338871  40.0577879  49.2128849
  57.7968884  41.5483189  48.7797880  56.4643383  40.8734751  47.8315496
  59.3418312  40.7398462  46.9360685  59.1721821  41.0309887  45.7039547
  60.3190279  41.1908484  47.7056122  60.2873945  40.9363127  48.6824989
  61.4212132  42.0751381  47.3176146  60.9555960  42.8273439  46.6808414
  61.9996500  42.9392576  48.4733248  62.6647997  42.2806883  49.0318632
  62.6129293  43.6774826  47.9565859  60.9762430  43.6763668  49.3712044
  60.8589172  43.0400705  50.2483940  61.5059090  44.5307302  49.7926474
  59.3968344  44.2255020  48.6380577  58.7762880  45.4760456  49.7854280
  57.8047085  45.9282732  49.5863771  58.8171148  45.0642204  50.7938099
  59.4686937  46.3172865  49.8168373  62.5342369  41.4161301  46.5021324
  62.8808117  41.9333553  45.4470539  62.8387165  40.1485586  46.9112968
  62.4946642  39.7274995  47.7624369  63.7060547  39.3511939  45.9802246
  64.5920753  39.9739814  45.8569384  64.1569233  38.0611396  46.5890121
  63.2474804  37.4602962  46.5905762  64.9350023  37.6041675  45.9775543
  64.5318127  38.1709146  47.6066113  63.0322647  39.0976858  44.6136904
  63.6672211  39.2738414  43.5991621  61.7407179  38.8128090  44.6907711
  61.3814497  38.6915708  45.6268930  60.9806299  38.4918809  43.4871054
  61.5501499  37.7772045  42.8929806  59.7048473  37.8420091  44.0166712
  60.1013136  37.0472360  44.6485281  59.1730595  38.5847473  44.6113586
  58.7440014  37.2048473  42.9865932  57.8036594  36.8828273  43.4339857
  58.3787918  37.9595661  42.2900820  59.3038845  36.0924506  42.1117353
  60.1501131  35.7449913  42.7044106  58.5400772  35.3409505  41.9118690
  59.7932720  36.5920615  40.7472229  59.4380426  37.4985361  40.4784870
  60.7067537  36.0288453  39.9759388  61.2722015  36.7940044  39.0199614
  60.9773636  37.7546811  38.9185810  61.5822172  36.2961602  38.1976843
  61.1352539  34.8364162  40.1546764  60.6048346  34.2026210  40.7352495
  61.8299770  34.5020676  39.5022464  60.7114744  39.7487903  42.6031637
  60.8126640  39.6382046  41.3941622  60.5607700  40.9238625  43.2824516
  60.3340244  40.7986355  44.2586756  60.5503130  42.2419786  42.6270771
  59.7853422  42.3315763  41.8557835  60.2348328  43.3632326  43.5708952
  60.8309507  43.1848669  44.4658422  60.6499577  44.3181896  43.2486773
  58.6927748  43.5237026  43.9251471  58.1858635  43.7025785  42.9769182
  58.2629013  42.5951529  44.3007994  58.4679079  44.7271538  44.8336077
  58.8366556  44.4904137  45.8316469  59.0714550  45.5954790  44.5693350
  56.9736004  44.9251652  45.1651812  56.7242146  44.0562010  45.7741213
  56.8147039  45.8882475  45.6502867  56.0739899  44.8274517  43.9300060
  56.1724138  43.9714861  43.4030008  55.1369572  45.1841879  44.0516901
  56.3812828  45.5517292  43.2966900  61.8127632  42.4787283  41.7982769
  61.6966343  42.7893162  40.6315804  62.9488325  42.5534105  42.5184107
  62.9619980  42.0915985  43.4165525  64.2671061  42.7806044  41.9289637
  64.2296362  43.7515688  41.4350700  65.2552652  42.8675652  43.1131649
  64.8777294  43.5023069  43.9148378  65.2872515  41.8925762  43.5994530
  66.6634989  43.2644939  42.8006268  67.0957756  42.5011539  42.1536732
  66.6660118  44.6759033  42.2476673  67.6969671  44.8926210  41.9679070
  66.0717487  44.6502733  41.3342714  66.4566660  45.5219603  42.9022455
  67.4873066  43.3067656  44.0641689  68.4403896  43.8188601  43.9318943
  66.8671703  43.7507534  44.8428869  67.7090073  42.2789192  44.3513727
  64.6768188  41.7626905  40.8033800  65.3385782  42.1868420  39.8165798
  64.3483162  40.4433918  40.9356689  63.9290333  40.2330971  41.8301439
  64.3633699  39.4323826  39.8432612  65.3520584  39.4068027  39.3850708
  64.2341948  37.9341173  40.3833866  64.9414968  37.7351403  41.1885118
  63.2500744  37.7755952  40.8243895  64.5189524  36.8650937  39.2856455
  63.7372494  37.0118523  38.5403275  65.4286766  37.2314525  38.8099456
  64.7163343  35.3808141  39.5922756  64.4537163  34.9179077  40.6991529
  65.1371431  34.6367025  38.5902691  65.3059244  33.6805081  38.8683224
  65.3001690  35.0536299  37.6848984  63.3665466  39.6597075  38.6910939
  63.7855577  39.4063520  37.5407672  62.2263622  40.2448702  38.9478087
  62.0138025  40.4943848  39.9031401  61.3379049  40.6491804  37.8256559
  61.2674952  39.8004007  37.1454215  59.9355173  41.0419607  38.3363104
  59.9094343  41.7327833  39.1790342  59.4345284  41.5842915  37.5344467
  58.9179611  39.8618889  38.6687922  57.7360439  39.9844241  38.9850020
  59.3145037  38.7220287  38.4654808  61.9744539  41.7838478  37.0494604
  61.8077660  41.8034983  35.8361173  62.5949192  42.7669430  37.6383829
  62.6525068  42.6332951  38.6378431  63.3406210  43.8368797  36.9887829
  62.6993179  44.2281294  36.1989999  63.7510157  45.0065756  37.9225087
  64.3921518  44.6625614  38.7341094  64.4952250  46.2495708  37.1939659
  64.7594309  46.9800091  37.9586625  65.4630136  45.9441662  36.7962003
  63.8283634  46.6517782  36.4313221  62.4835348  45.6983805  38.5961080
  62.6664972  46.6992331  38.9871669  61.6886806  45.8583307  37.8676009
  62.0999193  45.0284386  39.3656039  64.6037436  43.3692169  36.2310863
  64.8682070  43.7038279  35.0357270  65.3583813  42.5377703  36.9602346
  65.0447416  42.2596836  37.8791475  66.6166925  41.9832277  36.4977431
  67.3065472  42.8081226  36.3195395  67.2430182  41.1526346  37.6316619
  67.5567436  41.8005466  38.4501290  66.4416981  40.5558872  38.0674243
  68.3233690  40.1864100  37.0871186  69.5073223  40.8050346  36.7939663
  69.6393538  41.8272066  37.1166492  70.4835987  40.0247669  36.0650373
  71.4336538  40.4469967  35.7725906  70.2166462  38.6939812  35.7446957
  70.9612036  38.0691314  35.2739429  68.9746571  38.1106281  36.0089302
  68.8315487  37.0888400  35.6897569  68.0513000  38.8765860  36.7210507
  67.1116018  38.4385896  37.0235920  66.4926624  41.1809587  35.2631950
  67.3844624  41.3352680  34.3865824  65.5898762  40.2325392  35.2774596
  65.1802731  40.1342106  36.1954260  65.2251053  39.4460320  34.1027403
  66.0717535  38.8990402  33.6879015  64.1233301  38.4185481  34.5303035
  63.3681631  39.0833545  34.9496627  63.7656975  37.9523969  33.6122084
  64.7117329  37.2998643  35.5376434  65.1640415  37.8757262  36.3450480
  63.8845062  36.7076206  35.9288669  65.7518768  36.2802625  35.0158572
  65.9804296  35.2647972  35.7521486  66.3007021  36.4854097  33.8792944
  64.8425102  40.4348326  32.9398537  65.3100777  40.1593971  31.8145871
  64.0843868  41.5600443  33.1282091  63.7149620  41.7304420  34.0526462
  63.6471176  42.4312639  32.0833373  63.3417082  41.8670225  31.2021685
  62.5117111  43.4003544  32.4817300  61.6746950  42.7290630  32.6737452
  62.6546478  43.8713837  33.4542561  61.9859552  44.3751192  31.3873291
  61.0546875  44.8385239  31.7130566  62.7421474  45.1399612  31.2104106
  61.6334772  43.5757208  29.7594833  60.1140881  42.6438951  30.2376676
  59.2435122  43.2444668  30.5013084  59.8255634  42.0854473  29.3471670
  60.2414608  41.7933941  30.9073901  64.7814751  43.2141018  31.4231277
  65.0665665  43.1398773  30.2194929  65.5568027  43.8709211  32.3077464
  65.0847816  43.8324833  33.1998324  66.8615866  44.4998407  32.0041752
  66.7091084  45.3317738  31.3166142  67.5973034  44.9608946  33.2364774
  67.5791931  44.1051435  33.9113569  68.6648178  45.0365925  33.0296254
  67.1122169  46.1967993  34.0152717  66.2278557  45.8733225  34.5642447
  67.9304981  46.4597130  34.6856475  66.5543318  47.4647665  33.3102441
  65.5961609  47.2346735  32.8443432  66.3904905  48.2480478  34.0503287
  67.4608326  47.9904270  32.3015451  68.4487057  48.0343246  32.5071716
  67.1128178  48.7351227  31.2474227  65.9001827  49.0311098  30.9606028
  65.1309872  48.6923838  31.5206981  65.7152748  49.6323729  30.1704192
  67.9349995  49.1759014  30.3991914  68.8949299  48.9680767  30.6346512
  67.6837349  49.6902800  29.5670915  67.7631330  43.5910797  31.0672927
  68.0695009  43.9567518  29.9174094  68.1957150  42.3709345  31.5435910
  67.9328775  42.1467209  32.4926710  68.8651323  41.3409996  30.8513451
  69.8462248  41.7308426  30.5800891  69.2440748  40.1759291  31.8143320
  69.6730042  40.6106234  32.7171946  68.3094835  39.6574497  32.0283818
  70.3662205  39.2246556  31.3155246  71.7208862  39.6229577  31.5500879
  72.0181704  40.5136347  32.0836759  72.7610588  38.7348676  31.1093044
  73.7833834  39.0519428  31.2532139  72.5675249  37.4988031  30.5406809
  73.4339571  36.9236112  30.2493715  71.2098074  37.1282911  30.2559829
  71.0449219  36.1992955  29.7304463  70.1137209  37.9497623  30.6754732
  69.0999317  37.6246309  30.4940176  68.2722521  40.7721519  29.5242310
  69.0148163  40.5901527  28.5959172  66.9208670  40.6750917  29.5113039
  66.3479567  40.8184814  30.3306413  66.2566900  40.3731346  28.2738543
  66.7187786  39.4280291  27.9886293  64.7130346  40.1877928  28.3679390
  64.5449018  39.3268347  29.0149188  64.3350840  41.1510229  28.7106395
  64.4348192  39.8741913  27.3617792  66.5187550  41.4218950  27.1516085
  66.6989660  41.0206127  26.0308480  66.7519760  42.7109289  27.5891232
  66.7386103  42.8597546  28.5880113  67.0879793  43.8442183  26.7669582
  66.5923977  43.5488844  25.8421445  66.3901663  45.1280785  27.3083210
  66.5543032  45.2961111  28.3727121  66.7919683  45.9503746  26.7163086
  64.8125362  45.0528049  27.0920944  64.6229839  44.9934721  26.0203409
  64.5419407  44.1574669  27.6517797  64.0238667  46.3472557  27.5178456
  64.1798162  46.5220976  28.5823703  64.2719030  47.2173023  26.9099045
  62.5217724  46.0530615  27.3459148  62.3634481  45.9878778  26.2694407
  62.2579718  45.0562859  27.6994061  61.6440535  47.0784903  27.9747558
  60.7056713  46.8959618  27.6488400  61.7593193  46.9884682  28.9741111
  61.9828224  47.9858208  27.6882362  68.5232258  44.0170622  26.5115213
  68.8318062  44.9087381  25.7171726  69.4883156  43.1554413  26.9290948
  69.2394447  42.4201393  27.5752330  70.8387184  43.0682421  26.4209747
  71.2755537  44.0665627  26.3958097  71.6371107  42.0809793  27.2520471
  71.6310120  42.4014854  28.2938433  71.1855650  41.0952282  27.3638821
  73.1399202  41.9844246  26.8565702  73.1258202  41.5071726  25.8767056
  73.5387611  42.9787111  26.6555023  74.3529081  41.1235619  27.9448342
  73.6497641  39.5048165  27.6344872  73.6379719  39.2181897  26.5829086
  74.2480946  38.7043619  28.0696511  72.6034307  39.4838548  27.9391956
  70.8185244  42.6735306  24.8971319  70.5371237  41.4916420  24.6162868
  71.2816858  43.5387611  23.9462042  71.5309048  44.9852896  24.1195345
  72.2048283  45.1299715  24.9639297  70.5850792  45.5268860  24.1058707
  72.2014999  45.4747629  22.8612471  73.2750130  45.3283358  22.9805207
  72.0337152  46.5087700  22.5599623  71.6280365  44.5732784  21.8653560
  72.4417925  44.4136524  21.1579514  70.6745768  44.8308802  21.4042139
  71.3613081  43.1997108  22.4756956  70.4452896  42.7057552  22.1516299
  72.4130154  42.1664286  22.0629764  73.5421371  42.0055532  22.6469421
  72.1768141  41.4245701  21.0991406  53.9027548  46.4045477  50.3282976
  57.4691725  47.2850466  53.9486837  53.4240818  44.1464138  48.9126396
  53.2398891  45.6070232  48.9116526  53.9716101  45.6860590  51.5359974
  65.3500128  39.8352003  57.2877836  64.6636343  37.7054119  60.7971287
  69.2238140  39.7868943  54.6430063  54.7078133  46.2052155  52.6083803
  66.8676615  36.5928793  56.3790655  63.3534718  39.2512393  59.6225166
  54.6121883  47.5721645  50.1148653  67.2918367  36.3488626  55.0684738
  58.4260654  47.5701475  51.9278145  55.3617668  48.0995607  51.1982298
  66.8645525  38.4857702  55.1999664  53.4710741  46.5090084  47.6819897
  55.4325438  47.4323225  52.4275017  51.6125488  45.6123590  49.1954470
  56.2906837  48.0884838  53.5832787  50.1506853  46.2063408  51.6693878
  58.4910154  47.1175289  53.0389166  47.0581293  49.4079971  53.3283043
  59.5753717  46.2718105  53.5716295  59.3832302  45.2053833  54.5213366
  60.4840946  44.4424105  55.0361633  60.9016228  46.4228725  53.2095623
  61.9944096  45.7012224  53.7512398  61.7786884  44.5997858  54.6637821
  62.8467035  43.6812115  55.2312708  64.0426016  43.3039236  54.5108080
  65.0051785  42.4663591  55.0412369  64.9191141  41.9001007  56.2605524
  65.9163904  40.8523130  56.7378807  65.9699821  38.5918832  57.6708984
  64.9435472  37.7164912  58.4026241  64.2535257  38.3611655  59.6492338
  64.2424011  38.2650375  61.9793797  66.4972353  37.8546190  56.4169836
  67.3905230  37.4987698  54.4453239  67.5696421  37.6553512  52.9191399
  67.6666832  39.5942926  55.3833580  67.2501802  40.6863499  56.1630726
  68.3062124  41.6391516  56.2290287  68.0844498  42.8830004  57.0758820
  69.4615555  41.3139200  55.4923248  70.7546091  42.1299505  55.4236984
  63.8358212  42.2506332  57.0578194  62.7699232  43.1138945  56.5426302
  50.7351828  46.6876888  49.3143749  50.7094240  47.6578617  48.2937956
  49.8547220  48.7585545  48.4633923  49.1986704  49.0168619  49.6918964
  48.1789112  50.1869869  49.6879244  49.3741131  48.0690956  50.7104635
  50.0734758  46.9283485  50.4900169  49.2630672  46.8616438  52.5568581
  48.8058710  48.0319357  52.0588112  47.8316832  48.7720108  52.7199268
  53.5609770  44.6906948  51.6775179  54.5866728  45.6823301  53.5524750
  54.5562410  48.0609655  49.1466999  55.9493780  48.9961195  51.0241652
  56.6076326  49.0923119  53.2749653  55.7128000  48.2315063  54.5045757
  57.7435684  47.0840120  54.9028635  58.3543968  45.0515270  54.8331547
  60.2331972  43.6409521  55.7247210  61.0930967  47.2824192  52.5740194
  62.9525232  45.9121466  53.2854843  64.2087936  43.6716461  53.5025597
  65.8590937  42.2311354  54.4128227  66.8494749  38.8214540  58.2848978
  65.4270887  36.7782187  58.6984015  64.1800690  37.4224043  57.6730585
  63.1985807  37.9953361  62.1816063  64.8327589  37.8204083  62.7899170
  64.3653536  39.3548608  61.9604969  67.2125578  38.6504173  52.6293278
  68.6080837  37.4298000  52.6500177  66.9901848  36.8602729  52.4356794
  68.9898777  43.4937763  57.1697998  67.2749662  43.4632397  56.6179419
  67.9052877  42.5388145  58.1011105  71.0705662  42.3874283  56.4413118
  71.5401936  41.5208006  54.9616861  70.5113697  43.0263472  54.8414946
  63.6022854  41.6510105  57.9326439  61.8344975  43.1852722  57.0897007
  51.6473150  44.9571943  49.9659634  51.2384510  47.4699926  47.3641491
  49.6935272  49.4036150  47.6047230  48.3011580  50.7997227  48.7872171
  47.1730566  49.7670078  49.5716572  48.2163954  50.9694242  50.4547691
  50.6063414  45.3166962  51.8108130  48.9490080  46.4031553  53.4850025
  82.2555733  76.4648342  50.3247881  42.1733713  75.4841900  80.2625561
  57.2945261  62.9122925  26.8746567  59.3032360  67.9209328  44.0966558
  77.5326586  51.7140198  44.7774220  91.5498638  77.4845171  56.2644911
 100.1004054  15.3393786   1.1884594  65.4455471  60.5061007  41.1712122
  27.0381236  48.0309629  76.9736862  47.3842812  82.5887489  87.6876259
  63.7053637   7.9054158  41.0345650  62.7928691   7.8928082  41.3233852
  64.1287284   8.5457986  41.6063213   2.1556525  13.9699834  71.0028458
   1.8424468  13.4768431  71.7611122   3.0343823  14.2576020  71.2505341
 108.3254958  78.7134145  25.4787922 107.3901940  78.6310743  25.6649780
 108.4133149  78.4373520  24.5664787   0.7606701  88.2611011  18.2205105
   0.4161362  88.3188366  17.3293304   0.1586012  88.7892316  18.7447453
  33.5160784  25.1841920  28.3185673  32.7878766  24.8900025  28.8657475
  33.1507592  25.8996146  27.7980518 109.4537497  54.3667035  22.2574806
 108.6685658  54.9083245  22.1777058 109.4042397  53.7625316  21.5167046
 111.6036750 101.1513160   0.9862709 111.4596272 100.2170251   1.1365509
 111.0021401 101.3752197   0.2761555  76.4838315  74.6445345  63.0077839
  76.3249565  75.2402090  63.7400150  75.6287981  74.2542003  62.8267097
  31.6515831  90.2169918  10.7222557  32.4035839  89.9279712  10.2053452
  30.8919433  90.0012277  10.1813126  93.8042594  85.8027600  29.2694855
  93.2603074  85.0796412  28.9573193  94.7009612  85.4750274  29.2005730
 100.5963040 102.4522947  19.6696663  99.9915505 101.9419645  20.2082443
 101.0154629 103.0540441  20.2848339  95.1126338  93.6364673  19.3160248
  95.6294060  93.5875486  20.1202583  94.9238158  92.7240442  19.0967846
  36.0340743   5.9905808   7.9503727  35.7701497   6.4454501   7.1505833
  36.0420947   5.0646680   7.7077675  49.2445998   4.7988742  55.4451370
  49.4275527   4.2190926  56.1844730  48.4382205   5.2525656  55.6903744
   5.3986029  77.9280327   8.6592579   5.3404478  77.1310233   8.1323624
   4.6398214  77.8862809   9.2412758  19.7019199 101.0156702   9.2735386
  19.3520931 101.4341234  10.0601482  20.4068569 100.4534029   9.5946980
   3.5076574  64.2232131  25.7557678   3.5960106  63.2769416  25.6417656
   3.9152864  64.4014488  26.6032982  48.4764819  20.7099145  37.8668690
  48.5052256  20.1011126  37.1287918  48.5249762  20.1496880  38.6414814
  34.2597918  17.1618264  25.4665565  34.0493159  17.7961724  24.7813320
  35.1768021  16.9360774  25.3104782   9.7082046  82.6860713  30.3260899
  10.4771618  82.2302173  30.6683350   9.1631798  82.8477810  31.0961819
  23.8849930  63.8207339  35.5689621  24.1428284  63.6193989  34.6693897
  23.7542156  62.9651843  35.9778118   5.1510338 102.9691385  37.1214294
   4.8681597 102.0740627  37.3086643   5.2707056 102.9888319  36.1719418
 109.3437958  83.0463647   2.3117924 108.6936999  82.4611710   1.9230080
 109.0621615  83.1468962   3.2210827  89.8564911  55.4509115  82.1719360
  90.3380108  55.0218058  82.8792191  90.4721642  56.0927343  81.8180370
  27.3700957  10.4407733  25.2166557  28.2810788  10.4725211  25.5087852
  26.8706708  10.2482646  26.0102177  34.6760249  29.8253918  89.3984509
  35.1721835  29.3548608  90.0682735  33.8533187  29.3415570  89.3257046
  18.8722423  51.1234296  11.5900230  19.3427090  50.3656699  11.9374371
  18.8120655  51.7278074  12.3298550  31.0339598  10.5919783  12.4470425
  31.5381913  10.9652894  13.1699753  31.6787390  10.1102202  11.9289684
  94.3445639   0.4833167  55.4299259  94.1793971   0.1823609  54.5364094
  93.6893992   1.1652844  55.5779171  30.9558300 103.6067842  30.1068020
  31.2533859 103.2942699  30.9612179  30.0122932 103.4456419  30.1081181
  12.9099087  81.0536049  28.0939960  12.4838547  81.7940162  27.6621342
  13.5427669  80.7332514  27.4512768  55.7780313  43.0955458  88.1394672
  56.1477327  43.4265375  88.9580059  54.9939871  42.6162195  88.4073353
 105.1139022 104.7923921  28.1487370 104.2088986 105.1040481  28.1570339
 105.0400353 103.8404630  28.2166004   7.6601604 103.3506416  43.3816814
   8.2000736 104.1401218  43.4197712   7.3681263 103.3038829  42.4713230
  88.2794762  78.6150883  32.4987316  88.6036874  77.7769374  32.1691608
  87.3443175  78.6071323  32.2946453 106.0998917  75.2791785  40.3152657
 106.8856908  75.6226729  39.8900986 106.3908959  74.4726156  40.7407093
  15.7414918   5.4916089  31.5389729  15.5039744   4.5820038  31.3588905
  16.3918452   5.4352324  32.2390461  18.8761763   0.4485362  58.3633518
  19.2023759   0.8666842  57.5664997  17.9275756   0.5713217  58.3271790
   2.7205042  78.0392860  46.6246796   2.9220442  78.8513254  46.1596966
   3.2285932  78.0943011  47.4340343  47.6643710   4.0317433  32.7717781
  47.8165583   4.4997494  31.9507790  47.4477057   4.7185176  33.4023571
  44.3792824  95.7977460   8.4308434  45.1577286  96.2812923   8.7073326
  44.4244961  94.9736379   8.9156437  94.0366077  46.3296223  52.9726982
  94.7329426  46.8221760  53.4071350  93.5547924  45.9144115  53.6880159
  33.3922771  95.8717512  12.2200489  33.8099865  95.0816749  12.5628567
  32.4693207  95.7759069  12.4549961  44.6757273  11.9865840  52.2898197
  45.5562071  11.6205399  52.3734665  44.4657855  11.8955081  51.3603783
  31.2762074   5.2082102   2.8990078  30.8714585   5.5018227   3.7152195
  31.0632615   4.2764084   2.8477192  93.1479789  65.9972774  25.0928020
  93.1118394  65.6316124  24.2089367  94.0330172  65.7982932  25.3983212
  12.2651581  73.2643174   1.8914986  13.0967716  72.8843783   1.6081524
  11.6384415  72.5436400   1.8275738   8.1010918  95.5126594  10.0821114
   8.2548813  94.6412395   9.7171307   7.6174740  95.9766363   9.3986893
  74.9095440  28.0553460  87.0368576  74.9331427  27.4560380  86.2908649
  73.9832401  28.1085253  87.2721577  16.7019562  73.0929779  39.5941257
  15.9363274  72.6134931  39.2776966  16.6906361  73.9139365  39.1020584
  87.2929145  80.4026269  10.9592628  86.4311648  79.9892639  10.9068298
  87.5863314  80.4608987  10.0500107 102.8473807  93.8494228  17.8268242
 102.5137854  94.4501518  18.4932137 102.2329713  93.9352201  17.0978737
  23.4643702  50.0442879  25.6773567  23.1590800  50.7381432  26.2618160
  23.9704709  50.5019848  25.0060844  45.6574587   8.2760041  35.1304245
  45.8358721   8.9486210  34.4731712  44.8153834   8.5285180  35.5090714
  60.4121737   0.9917252  24.0438175  60.6382231   1.9210284  24.0047169
  59.9299483   0.8968871  24.8652172  39.9198537   6.3834469   8.5200691
  40.3170209   6.6393941   7.6876068  39.2353778   7.0356791   8.6694431
  39.3177990  89.6437334   3.9810562  38.5415367  89.1226386   4.1862392
  39.8123077  89.1041444   3.3641815  16.9621948  88.6475824  30.3759670
  17.5853256  87.9985927  30.0492382  16.2740139  88.6747502  29.7111988
   3.4512810 104.0562271  32.8314495   3.5310415 104.9777816  32.5852680
   2.5780920 103.9860891  33.2172489  44.6979479  34.4619076  37.2590256
  44.4844107  34.6802895  38.1661892  45.5262904  33.9856236  37.3159504
  11.1321834  87.2546147  44.4921875  11.4672569  87.9059456  43.8759708
  10.7249931  87.7704953  45.1881027  52.3649459  10.7805722  40.3475571
  53.0453543  10.9070485  41.0088348  51.8405585  10.0519650  40.6797886
  53.9763451  81.0447407  90.8835220  54.0108252  80.3466606  90.2295208
  53.9284754  81.8514252  90.3704929   6.3501171 101.6939281  20.5880737
   7.0162109 101.2943529  20.0287056   5.9611610 100.9579013  21.0605240
  81.3397598  58.6753178  89.3547440  80.7054138  58.0768299  88.9602184
  81.1152744  58.6829424  90.2852249  34.8380093  15.9086077  54.7319222
  34.1090445  16.5269368  54.7820473  35.0281243  15.6880419  55.6437492
  96.4391994  57.2550297  72.4637175  97.0306778  56.8333244  71.8403816
  96.9239521  57.2585869  73.2890844  28.0361085   6.9637196  22.2954845
  27.6240353   6.0997622  22.2975349  28.4463267   7.0354741  23.1573486
  68.2601500  45.2747965  87.9179668  67.5589085  45.5951357  88.4852982
  69.0664196  45.5273867  88.3678055  14.7608379 103.0630754  36.8968010
  15.3613857 103.3633875  37.5789928  14.0996555 102.5547479  37.3665619
   6.1783794  96.3711523  52.9406548   6.0052494  96.8201421  53.7681007
   5.3102402  96.1809181  52.5851727  95.6302548 101.7123960  36.1709881
  96.3778640 101.5320562  36.7408943  94.9172450 101.9277786  36.7722034
  68.4490542  26.7135041  32.7602768  68.6507945  26.0264819  32.1250343
  67.9318480  27.3507683  32.2677135  67.2023249  75.3924990  85.4299641
  66.7921305  74.7053528  84.9047947  66.4677811  75.8688688  85.8169460
 110.2275182  73.7841629  19.9402332 110.5349923  72.8782772  19.9728298
 111.0227299  74.3101953  20.0248623  24.2628007  27.2351878  23.3358192
  24.6757035  27.9745858  23.7819481  23.5005288  27.0252555  23.8753605
  61.7171149  33.1613438  19.0663433  61.2874941  33.4342854  19.8769951
  61.3124327  32.3207657  18.8520813  40.5513767  94.4686340  19.2144775
  41.2624363  95.1053165  19.2869759  39.7543148  94.9986671  19.2149448
   1.5485958 101.6766189  36.1676216   1.7037491 101.2395214  35.3303051
   1.6108517 102.6101898  35.9656239  35.5533175   9.9570267  14.0833950
  34.9082093  10.3076260  14.6975231  36.2295203  10.6327527  14.0346336
  29.2742733  85.8481477  38.8087368  28.4188656  86.0624002  38.4364414
  29.1198162  85.8008550  39.7522068  80.4804420  44.3432522  79.7275496
  81.2665653  44.6684170  80.1663113  79.8953772  44.0894890  80.4413605
  18.0758289  75.0269388  54.9132919  17.5833038  75.5103968  54.2500401
  18.0134300  74.1121577  54.6385002  92.7679396  96.0694765  24.5144844
  92.4668456  96.2053560  25.4128742  92.3883010  96.7971920  24.0219975
   1.8078951  73.6058639  17.7352715   1.4529804  74.4222616  18.0870724
   1.6404632  72.9575156  18.4192657  68.1103472   9.4323819  29.1971684
  68.1856208   8.5811083  29.6283340  67.3013549   9.8067753  29.5458794
  17.1759418  98.0680822  28.1195164  17.7921299  97.4283908  27.7626705
  16.3230614  97.6374601  28.0612183  22.8628258 100.5983709  11.9734669
  22.7858261  99.7569679  12.4232864  23.8057236 100.7499431  11.9087124
  24.0541939  46.6312806   8.4707737  24.8627666  47.0672493   8.2017517
  23.5450081  47.3167227   8.9033508  31.2749486   7.4377577  28.3458424
  30.8898358   6.6696255  27.9240704  30.5963616   7.7468960  28.9459991
  30.8979801  84.4928955  22.9644012  31.0884384  83.7836979  22.3504066
  30.0501064  84.2606281  23.3430767  28.7699036 101.6509985  39.3885612
  28.9384369 100.9068655  39.9665642  29.1842083 102.3938917  39.8275280
  36.5973382   4.4692176  20.2592754  36.4660840   5.2631848  19.7409916
  37.4283795   4.6132939  20.7118797  24.6965317  98.9395355  14.5910454
  24.5847610  99.5850061  15.2889729  23.8050560  98.6733411  14.3659782
  43.6088996  19.6591942  39.9923992  44.5305495  19.7236817  39.7421265
  43.6218314  19.2203896  40.8430004  65.2375369  11.6946786   4.2696857
  65.6926779  12.3427479   3.7320232  64.3466239  11.6766303   3.9201546
  29.1014676   2.6107304   4.4174671  28.2238536   2.9861157   4.4889450
  29.1980033   2.4026530   3.4881592  80.0416617  17.3562997  13.0581856
  79.7898249  16.4822095  13.3561325  79.4721560  17.9496138  13.5479450
  26.1485724   1.3366025  12.5577831  25.5216221   1.7437070  11.9599247
  26.8762736   1.9569676  12.6005745 107.1641255  80.2896784  57.1821308
 106.4739562  80.9346388  57.0274544 106.8258477  79.4803451  56.7990112
   0.9637406  40.6809235  76.4823055   1.6409448  41.3010502  76.7526293
   0.1833013  40.9530306  76.9651127  -0.2134367  96.0864900  12.7053738
   0.5624393  95.5606960  12.5109863  -0.3424355  96.6216682  11.9223213
  47.5487999  87.9884432  12.4547100  48.1514839  88.7146829  12.6146603
  48.0093483  87.2175644  12.7861786  36.2933211  12.3021500  37.6623440
  35.6771044  12.8780215  37.2097015  37.1566348  12.6207059  37.3988247
  90.3236914  55.8949961  23.0858231  89.9288750  56.2496014  22.2891998
  90.0510598  54.9775587  23.1003475  99.0520287  78.2790731  23.1071758
  98.5558511  78.3985470  23.9169693  98.6504365  78.8887070  22.4880600
 103.3763600 102.2737001   4.0726280 104.2581130 102.4870895   4.3779278
 103.5163451 101.7389320   3.2911873  56.8803787  26.5496349  73.8706160
  57.5604773  26.1239314  73.3486271  56.2287426  26.8333435  73.2294369
  58.0880308   6.2552607  71.1040258  57.9413319   5.7742053  71.9184589
  58.6750555   5.6944132  70.5969954   3.6015657  39.7355054  22.0324039
   3.7926105  38.8010572  21.9515419   2.6876596  39.8175870  21.7598724
  30.7842735  61.2952976  29.8427773  31.3505367  62.0302700  30.0781441
  30.4188160  60.9980880  30.6760407  58.9870453  21.8784046  73.0701780
  58.8250256  22.0635271  73.9952278  58.1334972  21.6161871  72.7253199
  32.8795818  92.7581476  15.0696945  32.9681972  93.4992002  15.6690407
  33.1148437  91.9944619  15.5966377  25.2470306  90.0604437  20.3814602
  25.1318745  90.9465550  20.0382710  24.8533062  89.4936560  19.7181606
  74.4018841  24.2904568  87.7724075  74.4873476  24.2172480  88.7229633
  75.1269197  23.7703180  87.4259758  25.9508900  85.6640409  11.5964031
  26.6221432  85.2254819  12.1192074  25.1384930  85.2098940  11.8199825
 105.0033665  95.0221799   1.6152191 104.8802520  94.2428802   1.0732174
 105.7937861  95.4341673   1.2663078   6.2867836  63.5107754  58.0764866
   7.1187595  63.8791572  57.7792358   5.8161739  63.3004795  57.2699356
   1.8342308  85.3873466  11.5057659   2.7291159  85.5769967  11.2239075
   1.3010315  86.0563873  11.0764503  60.4558849   0.1757838  71.3457155
  59.5296621   0.3436031  71.1720085  60.7638407  -0.2933353  70.5702686
 108.1484223  84.8288869   6.9569874 107.8993655  85.3071951   7.7478218
 108.9393473  84.3504547   7.2055340 104.0353728  55.7355879   7.2062111
 104.2173768  56.6480719   6.9815350 103.0928088  55.7130222   7.3714256
  84.3682099  35.6451939   6.0970497  84.5077849  36.0732328   6.9417572
  83.4247113  35.7093857   5.9490108 107.5963307  79.9362849   3.7511158
 106.9890786  79.3313621   4.1771984 108.4153558  79.8346161   4.2359734
  31.9868564  95.8247381  85.4485416  31.1224841  96.0736668  85.7758331
  32.0159435  94.8732239  85.5485725 108.1321574  82.7617000   4.7730732
 107.3106147  82.5644086   5.2229309 108.5488892  83.4297012   5.3174496
  84.2732430  19.7748613  82.6069927  84.9398518  19.3710732  83.1627083
  84.4404125  20.7147598  82.6768589  35.8911471   9.8331444  29.7459030
  36.3643984   9.3034737  29.1042519  35.1604943  10.2084773  29.2544746
 100.6299783  52.3190452  22.5685215 100.9119416  52.8199211  21.8031120
  99.7290421  52.6034775  22.7222919  69.3613148  20.8261275  74.6529961
  68.8199615  21.4916253  74.2284012  69.3206787  20.0727463  74.0639353
   7.3155025  76.1205767  42.3436356   6.9814304  76.8873261  42.8091717
   8.0510048  76.4540409  41.8297577  20.1001739  92.1665352  73.8584661
  20.0496053  92.0172316  74.8025990  20.4119062  91.3351661  73.5008621
  53.3728981   1.8647082  48.2240438  54.1475534   1.4140947  47.8877544
  53.1583166   1.4006680  49.0332699  34.7731689  63.1723546  29.5300102
  35.2714638  63.9228891  29.8534870  34.4778351  62.7219378  30.3213024
 105.9815455  87.9583191  45.1421547 105.4249860  87.2412442  45.4459286
 105.4626084  88.3945368  44.4663906   3.6063770  31.2081002  28.0142307
   2.8094868  31.3127707  27.4943924   3.6218647  31.9755815  28.5860443
   7.4688343  41.3662420  19.4783783   7.1413425  40.9325551  20.2663422
   7.1129230  42.2534369  19.5277977  93.7805606  55.3956004  13.0919552
  92.8263474  55.3208871  13.0808067  94.0916920  54.4903775  13.0925655
  97.5102044  65.3586041   3.1673336  97.5285769  66.2227737   2.7561092
  97.6425029  65.5338429   4.0990162  74.8279930  62.1915941  35.9442997
  74.7996450  62.6037602  35.0808430  75.3060985  62.8146421  36.4915276
   3.9048437  48.0549617   8.1258297   4.5413069  48.6854710   7.7887821
   3.2894520  48.5839309   8.6334896  42.3204331   5.5398409   3.8661194
  41.9877534   6.1427395   3.2012367  43.2472186   5.4341309   3.6513519
   9.4752411  57.7766381   6.7198467   9.4860653  57.2704141   7.5321674
  10.0615696  58.5140215   6.8893433   3.4959892  71.9391893  34.9340153
   4.3580488  72.1009885  35.3172874   3.2672790  72.7625273  34.5026875
  19.4273380  66.1381136  19.0716171  19.2933182  66.2881969  20.0074291
  20.3773788  66.1660968  18.9581871 103.1584121  95.6585477  14.1841984
 102.9807378  94.9550317  13.5599136 102.4061442  95.6492494  14.7760105
 109.0673161  47.6991510  58.9961147 109.4659138  46.9968128  59.5099926
 108.3059216  47.9691219  59.5095539  42.3081589   9.4835687  83.5213089
  41.5480566   8.9031881  83.4808731  42.2222614  10.0447822  82.7506733
  70.6061935  46.5631199  89.2105961  71.3138962  47.0607376  88.8010025
  70.8293009  45.6474304  89.0433407  53.7022781  12.6377892  76.8658495
  53.7630653  12.7381885  77.8158283  53.7333250  11.6918933  76.7224979
 107.1798845 104.7550460  85.3793430 107.2154757 104.4410319  86.2828732
 107.7337524 104.1452706  84.8918629   8.7473396  68.3839046  12.6301289
   9.4027809  67.6871108  12.5968266   9.0987591  69.0133892  13.2598019
  25.4131893  96.7325710  16.1619282  25.3578857  97.2711204  15.3725338
  24.5105747  96.6730188  16.4749527  18.5657505  70.1383720  34.4963360
  18.5890106  69.1949605  34.3361282  18.6453728  70.5309747  33.6269951
   9.3177322  47.2639971  14.5265770   8.7417702  46.5882550  14.1689873
   9.5484165  46.9449471  15.3990650  72.9523588  62.0055615   6.9142246
  72.5379754  61.5342300   6.1914730  73.0881811  61.3393746   7.5880051
  95.7336617  65.2790247  32.1369553  95.0583602  65.8953642  31.8535423
  96.5347768  65.8016251  32.1735191 109.6807433  74.1397952   7.1805668
 108.9406920  73.5402535   7.2759914 110.3233910  73.6476158   6.6696930
 108.6404372  67.2667967  19.6553898 107.7914239  66.8800245  19.4413471
 109.2580033  66.8274687  19.0707302  26.6817478  78.2395147   9.9025440
  26.9139389  78.2777046   8.9747143  27.5158504  78.1065129  10.3528976
   1.2699465  66.5861522  19.0328884   0.8240465  65.9039734  19.5349216
   0.6809858  67.3394369  19.0767002  68.9650440   9.0788656  69.1047049
  68.4085989   9.6794432  68.6088133  69.7548342   8.9886171  68.5714865
  26.4038566  64.0009414  11.9233036  25.6627849  64.4689451  12.3080349
  26.9774917  64.6918450  11.5919113  59.0294219  84.3772982  27.8746605
  59.5507527  83.6145996  27.6241875  58.3942152  84.0368317  28.5046005
  31.5117649  96.2288498   0.5021572  30.6556133  96.2501215   0.0746346
  32.1349052  96.1134456  -0.2152061  10.8577827  55.6555791  33.0751419
  10.5808166  55.3739439  32.2032452  11.5231422  56.3238229  32.9108810
  25.5540184  79.5485853  26.1221600  25.0777725  80.3785061  26.1478043
  25.6246094  79.2845081  27.0394993 104.9754477  89.0223740  34.9989986
 104.3534470  88.3556055  35.2901459 105.1598073  88.7961625  34.0873718
  33.8138966  70.4191064  16.1792469  34.3953709  69.7272752  15.8638287
  33.4479622  70.8056377  15.3836823  74.3629313   9.7280419  76.5069294
  75.1376820   9.3601394  76.9319487  74.6876478  10.5005383  76.0442877
  18.4393314  72.4290477  45.9772968  17.8043941  72.3323332  45.2675533
  19.2869572  72.2634064  45.5646038  93.3548642  76.7089056  24.3487453
  93.8932229  77.4741911  24.1469193  93.9490176  76.1109589  24.8022556
  62.3629336   3.4766810   3.4973431  62.9597335   3.2812255   2.7749348
  62.7054267   2.9711001   4.2344379  72.7755404  13.2533169  84.6245956
  72.2576380  13.7539911  85.2549362  72.4213409  13.5034001  83.7712288
  38.1829762  46.3217306  80.3910828  38.8244462  46.9670439  80.6882763
  38.3448577  45.5534172  80.9385490  67.2256494  43.9039807   4.9578762
  67.9456282  44.4271539   5.3102207  66.7251969  44.5170884   4.4194698
  64.0523815  32.1346378  80.8674049  64.3502808  31.2256789  80.8315849
  63.4884501  32.1715951  81.6399574  23.0690197  91.6218446  35.9329605
  22.3342804  91.0716103  35.6616211  23.6086277  91.7056225  35.1468086
  36.4353756  94.0923475  28.2372952  36.6997246  94.3782352  27.3628712
  36.8119053  93.2169126  28.3270931  98.6805297 103.2091402  35.6655025
  98.7841798 102.2962020  35.9338856  97.7410985 103.3081602  35.5109119
 111.2495948  98.0255197  10.3387165 112.0327807  98.5081123  10.6032085
 111.4900304  97.6156829   9.5077705  11.5645794  80.9635495  31.9473553
  11.0886959  80.6296443  32.7078056  11.5417675  80.2445482  31.3158894
  17.8235630  76.3966106   2.0915127  17.9462913  77.3441743   2.1488857
  16.9577793  76.2438844   2.4700928   6.2971214  79.8980902  15.1676273
   6.8369202  80.6862877  15.1076317   5.5061726  80.1836990  15.6248474
 107.1848297  14.9761772  86.6817188 107.1685123  15.8207643  87.1318722
 107.8523254  14.4705033  87.1453667   9.1928772  91.5047501  12.3309708
   9.8370556  92.0128678  11.8379307   9.1023544  90.6895350  11.8375492
   6.2728409  51.4657448  10.8621883   5.4825596  51.4345198  11.4013577
   6.7973808  52.1681740  11.2464905   8.3680824  75.2934764  19.7319794
   7.4558071  75.3703474  19.4525623   8.8758186  75.4279779  18.9317608
  87.7514935  22.5008941  68.5851812  87.2234917  23.2816076  68.4180498
  87.3901081  21.8370891  67.9978228 105.9525538  65.4416417   5.7886314
 105.6820918  66.0540258   6.4727879 105.1527739  64.9669348   5.5622673
  24.5492939  55.9986188  18.5614681  24.1578964  56.6377561  17.9660320
  25.0398353  56.5269320  19.1911411  56.2789683  18.1336873  11.4653969
  56.7094187  17.3840945  11.8765545  56.6778617  18.8973515  11.8824482
   4.5100693  81.8089675  19.1485786   4.5526461  82.5935720  19.6952152
   4.9377064  81.1299823  19.6704388 105.3923893  41.0734749  69.8584080
 106.2374973  41.5177488  69.9265957 105.3880596  40.7010269  68.9766502
 100.9338618  85.5901240  25.2398777 100.2025986  85.8745335  24.6916103
 100.9015847  84.6340989  25.2051449  93.2744790  80.9415101  42.5029469
  93.7008954  80.5628942  43.2717514  93.2972098  80.2434801  41.8483734
  46.8496040  63.3501373  14.0897560  45.9398941  63.6238407  13.9725399
  47.2556213  63.4961032  13.2353115 100.1347829  61.8346189  20.7879353
 100.4364491  60.9391748  20.9409428  99.4928885  61.9926851  21.4801979
  18.0255989  97.1037077  15.6258774  17.8814224  97.4248146  14.7357464
  17.7949814  96.1755632  15.5859661   3.4597019  93.5535644  29.7886753
   2.9906229  92.7757858  30.0907612   4.2430548  93.5890888  30.3376102
   5.8690266  69.9044369  18.0570126   6.0455040  69.2870878  18.7669182
   5.6344608  70.7193338  18.5010242 109.5278454  32.4567437  76.0070038
 108.5988331  32.3265910  75.8166552 109.9791336  31.8401933  75.4304314
  78.5195494  41.4759493  80.9000874  78.2567549  41.0987568  81.7396641
  78.5434914  40.7308006  80.2997398  99.4440937  42.7253914  86.5350628
 100.1863384  42.9329300  87.1027184  99.3174171  41.7825985  86.6415119
   3.6910395  54.4398894   1.2668419   3.3255581  55.2091770   1.7037106
   3.4699634  54.5612197   0.3434563  11.6192631  99.8976635  15.3422642
  11.3258747  99.9173378  16.2531757  12.0712952 100.7322286  15.2181435
   7.4793342 104.4088434  37.9105186   7.2430900 105.2809070  38.2266331
   6.6843323 104.0837167  37.4880409  17.2458938  55.8015676   0.1960945
  17.0742992  56.5096732  -0.4246902  18.1464104  55.9492986   0.4850006
  30.9470657  85.1428150  19.3640232  31.1071495  84.3299674  18.8845634
  30.4850868  85.7021974  18.7396145  11.9667725  78.2791375   7.2674084
  11.2539772  78.6061691   7.8162289  12.2088055  79.0255736   6.7192459
   8.1419186  76.5222024  27.4476147   7.6045040  76.8068479  26.7084312
   8.3136658  75.5962442  27.2763348  76.0473780  12.2087710  24.3382835
  75.3090529  12.1476214  24.9443913  76.5347247  12.9787152  24.6313763
  92.1812344  47.0405769  63.5075617  91.7956829  46.5746927  62.7655840
  92.8459358  47.6069117  63.1155491  72.4130058  83.0167961  86.0163212
  72.4706221  83.9095497  85.6758595  73.2644653  82.8608608  86.4248943
  49.6785168 101.1239027   8.8890362  49.6893314 101.0388731   7.9356861
  48.9311222 101.6938280   9.0702057  23.5260776  92.7948879   1.1911774
  22.6162437  92.5852989   0.9802437  23.9698414  91.9469069   1.2065506
  42.8957038  12.4485676  36.7013073  43.2939677  12.9506390  37.4123287
  43.5535864  12.4546807  36.0060501  98.5877705  74.4908308   9.7338963
  98.1161404  73.7834810   9.2940712  98.1537820  74.5764922  10.5827522
  12.1919445 102.2323869  22.7751255  11.7144207 102.3939060  23.5888290
  13.0183510 102.7027248  22.8849983  19.7931961 103.6710094  32.1049213
  19.3918136 104.2924713  31.4975357  19.8380474 104.1434978  32.9361725
  95.0342704  89.8523544  52.4756241  95.4018117  90.1554893  51.6454124
  94.3291474  89.2567299  52.2221279  65.8645988  84.9478243  -0.1184368
  65.9570170  84.1519617   0.4052925  66.7016006  85.4007028  -0.0156784
  21.5364365  73.7474965  28.6257839  21.8401722  74.6532796  28.6852360
  21.1235527  73.6893962  27.7641678   1.3774876  71.6837917  47.3094845
   0.6060223  71.2925957  46.8995476   1.6455702  72.3752879  46.7043400
  95.7569505  83.2361101  18.4608078  95.0485230  83.8242172  18.7225151
  95.3160716  82.4193882  18.2266712  11.0638718  84.1007589  10.3926086
  11.1295990  83.1458853  10.3813076  10.2935795  84.2941545   9.8583126
 107.0661736  67.2044586  22.7752018 107.2804929  67.8217338  22.0757294
 106.1386920  67.0070873  22.6446056  12.8312591  68.7636863  37.2977543
  12.3647694  68.2766341  37.9770184  13.6932663  68.9366363  37.6762390
 106.1163378  90.5092357  13.3084106 105.3231145  90.8040713  12.8610802
 106.3410331  91.2296246  13.8972950   6.0497383  70.7959937   8.5616970
   6.2883953  70.7435917   9.4871902   6.7169002  70.2769719   8.1125450
  59.6028042  18.7489510  70.1132727  60.4990816  18.4415388  70.2490091
  59.6416187  19.6879983  70.2946997  28.7337641  10.7455247  15.8367729
  28.2145409  10.4962676  15.0722408  29.4193892  11.3137858  15.4857349
 108.1139756  60.1699208   4.1420364 108.3708859  59.4855486   4.7599888
 107.6781417  60.8290671   4.6822262  40.2604202  96.5674709   0.0850773
  40.1498512  97.0787929  -0.7165146  40.3187374  97.2223447   0.7807636
  44.1293955   9.1973186  85.5216503  43.7188911   9.8298162  84.9320126
  44.8182058   9.6938258  85.9635162   8.4945015  81.6598843   6.5984535
   8.5504345  80.7950472   7.0048523   9.3807510  81.8331264   6.2810135
  76.2432886  76.3324879  15.9231758  75.3986002  75.8822392  15.9264088
  76.8536711  75.6992839  16.3009548  28.4000210 101.2740015  32.2342300
  28.4245685 102.0806144  31.7194366  27.4707321 101.0500978  32.2844315
   2.8099589   7.6556389  22.8982162   3.4589581   7.2759049  23.4905243
   3.0164246   7.2783797  22.0430660  20.3635315  71.4996158   8.8951015
  20.7161049  71.0701464   8.1156921  19.4497303  71.6814278   8.6756992
  58.5715961  19.9780858  83.3205509  58.5012197  19.1448414  83.7863636
  57.7341890  20.4133177  83.4804058   4.0912250  66.3646363  37.8138447
   4.4123033  66.4816021  38.7079716   4.5118765  65.5596636  37.5116825
  43.9460567  58.6172532  12.2628880  44.8616127  58.8765238  12.3666096
  43.9337543  58.0980979  11.4587975  50.4117397  83.3516859   2.7744770
  50.8513645  84.0853666   2.3447418  50.2302460  83.6666225   3.6599731
 100.5760574  28.0797291  64.0653706 101.3725662  28.5303760  64.3459272
 100.3693295  27.4866724  64.7877169  94.8014260  42.0406579  32.4206829
  95.4744244  41.9830786  31.7424583  94.5023680  42.9492341  32.3848343
  51.5787601  17.1812379  80.8751106  50.7104254  17.1611130  81.2773800
  51.5002918  17.8214300  80.1678467  46.6197352   7.6813786  19.3620777
  46.8251853   8.3980744  19.9623871  46.7082266   6.8905490  19.8940468
  13.8491062  69.8431729  75.6600952  14.7954754  69.8846339  75.7975388
  13.5093216  69.4330393  76.4554405 107.9850578  56.8846846  82.3668289
 107.7927399  57.7277565  81.9563675 108.8893414  56.9665432  82.6698112
  76.5235973  65.0518786  12.1206951  77.0028020  65.8791159  12.0730019
  76.5286875  64.7200345  11.2228680 106.1150885  98.0131839  42.0040417
 106.9756222  97.6201604  42.1497917 105.6388903  97.8562568  42.8194141
   3.5547212  90.6279610  42.1251678   2.8821520  90.0636910  41.7437458
   3.2414869  90.8085154  43.0114651 108.9236928  95.4227041  43.3219910
 109.8742247  95.3850244  43.2157040 108.6199761  94.5499920  43.0722618
  95.5809975  25.9817910  78.7639284  96.0096550  25.1812005  78.4613705
  95.4883862  25.8614111  79.7090006   0.9975484  35.1140189  83.4256268
   1.3561490  35.7625580  82.8197956   1.4586785  34.3035603  83.2094097
  10.2115730  95.6653141  30.5594254   9.6611217  95.8769249  29.8054695
  10.5731968  94.8024105  30.3572941  39.7400574  68.2579027   6.4853668
  39.7455982  67.8163515   7.3346138  38.8314918  68.5340081   6.3648987
  37.0628123  16.3424962  16.5453434  37.4165063  16.1412900  17.4117374
  36.9142871  17.2879737  16.5609264   7.5997547  82.3660420  17.1525860
   7.2670654  81.7283701  17.7841949   7.6477054  83.1865285  17.6432228
  96.3499738  82.1559762  28.2727432  96.1440755  81.4224385  27.6933002
  96.4548016  81.7568420  29.1364193  26.3555054   2.7481120  29.4907761
  25.8312516   2.3559373  28.7925053  25.7187991   2.9802315  30.1667690
  19.2547326   3.6763709  39.0844631  20.1661734   3.9418452  38.9618874
  18.8800912   4.3571131  39.6434498  44.1664127  74.9368404  44.8790932
  43.7623695  75.6519555  45.3706074  45.1038174  75.1289438  44.9037361
  81.8294907  35.7718849  87.1551418  81.7896271  35.5966020  88.0953121
  82.7440262  36.0035205  86.9932556  55.5154948  12.8364556  16.5340042
  56.1858992  13.4908431  16.7304039  54.8748259  12.9308932  17.2388840
  69.1688490  55.6318283  84.2995548  69.5386648  55.3344297  83.4682751
  69.2702627  56.5834379  84.2800140 102.9740047  58.0157328  62.4099064
 103.3681870  57.5662518  63.1574440 102.4456024  58.7118244  62.8003931
 109.8596192  78.2733201  17.8445339 110.4430915  78.9835642  17.5774193
 110.1129008  77.5343941  17.2912979  12.5090984  75.0058530  23.0697250
  11.6911129  75.2509569  22.6372051  12.4134163  75.3309058  23.9649391
   6.4392331  21.9110560  77.3421526   7.0317701  22.5519609  77.7350521
   5.6120542  22.3814964  77.2387266 107.6654435  81.7341231  20.0397682
 107.5069094  80.8238982  19.7895908 106.7937423  82.0910047  20.2100849
  15.4260448  61.0195618  20.0651169  15.6522468  61.9495855  20.0760460
  16.2577633  60.5726044  19.9079609  43.7007765  11.1722796  17.7462864
  43.3063845  10.7700627  16.9723988  43.8150172  10.4475014  18.3610058
  75.8414745  38.8107848  67.1255445  75.3071785  39.1700006  67.8338718
  75.2213669  38.6547446  66.4132595  17.1085075  84.6034168   0.1741505
  16.7452530  83.8136195   0.5747700  16.6472248  84.6822952  -0.6608582
  67.7157164  43.6753702  85.7877064  67.7669525  44.4152927  86.3927841
  68.1608200  43.9810324  84.9973392  19.6911053  81.9342087   9.8566723
  18.7475590  81.7731284   9.8536873  20.0524906  81.2306641  10.3958035
  24.2267040  86.7246603   7.4789333  24.0822033  85.7788895   7.5083733
  24.3529800  86.9762467   8.3938122  95.4653168  62.4635486  18.5295677
  95.7637025  63.3694683  18.4489155  96.2685252  61.9564210  18.6474991
  14.0553860 104.3136047  22.3037529  14.5243076 104.2023634  21.4767265
  14.3032364 105.1881002  22.6038647  24.6713643   1.9578974  34.5596695
  25.3449492   1.6394465  33.9587593  25.0628428   2.7279751  34.9719238
 103.4387302  50.1749802  82.8651810 104.1761494  50.7450771  83.0829716
 102.8450108  50.7328033  82.3626232  83.2338862  14.3816130  51.5003204
  83.6867766  13.6865180  51.0228634  83.9283518  14.8369448  51.9763565
  33.7460903  81.9493936  10.6226444  34.5802692  82.4186777  10.6102276
  33.3574966  82.1739720  11.4680958  14.7398476  94.1298364  26.0318661
  15.2158264  93.3931326  26.4152145  14.5980839  93.8750290  25.1201630
  33.4837631  86.6325735  33.6896229  33.1349377  86.0271906  33.0353546
  33.5478023  87.4702166  33.2308292  47.1320395  29.3144887   5.1174831
  47.9736857  29.6084015   4.7689533  46.7684798  30.0875466   5.5492687
  63.5667853  24.0674870  27.2151852  62.6571517  24.3635171  27.1809959
  63.9307360  24.3131631  26.3646412  41.4430908  61.3135712   8.2366848
  41.9573883  61.4965032   9.0229893  40.5611423  61.6174422   8.4512806
  93.8137531  38.7306905  73.5813236  94.7294903  38.7136436  73.8594675
  93.4690189  37.8759098  73.8396597  79.3634510  26.0811615  89.0623379
  78.9366293  25.2254820  89.1055012  78.6407375  26.7080188  89.0312386
  73.9332442   0.9773343  18.1381035  74.5419745   1.6144221  18.5120010
  73.6084513   1.3957303  17.3408127  68.3734564   8.4760134   3.5803318
  68.5335116   7.6103585   3.9561653  67.9239230   8.9588587   4.2738819
  53.0428032  98.8704799  47.2079945  53.6836056  98.2209133  47.4972534
  53.1659702  98.9228653  46.2601948  56.0397625  61.1838150  83.3506298
  55.4551983  61.8289661  83.7485027  55.9305716  60.3986549  83.8871288
  20.3436855  96.9878124   0.9308529  21.0012821  97.3932623   0.3656864
  20.4251102  97.4517892   1.7641163  16.9737915 102.7340959  25.9449959
  16.2216762 102.4621605  25.4190540  17.3935036 101.9139694  26.2047291
  33.1934456  95.6743501  21.3363934  32.6120666  96.2349008  20.8225822
  32.6420597  95.3433345  22.0453644  41.2539772  82.1389030  36.8264294
  41.9756607  82.3069190  36.2204933  40.4814533  82.4871062  36.3812447
 103.5342026  16.3912666  72.3291445 103.3998489  16.0087335  71.4620495
 104.0511513  15.7385969  72.8013802  11.1975197  84.8819016  12.9608917
  11.8043713  85.5821704  12.7208996  11.0317806  84.4170569  12.1407223
  36.2065177  32.5834172   6.5500641  35.6349377  32.6495259   7.3150158
  36.3590006  33.4907143   6.2858772  64.7175316 102.6623033  20.0821018
  64.2683033 102.1110891  20.7228661  64.0268997 102.9433130  19.4818592
   0.6070188  39.1295481  84.7656727   0.8517316  38.2549953  85.0681686
  -0.1767394  38.9886737  84.2345238  42.7733187  14.9400275  11.0837078
  43.3610396  15.3750222  11.7014408  43.1929927  15.0564473  10.2313232
   5.2670387 102.0634578  23.7200832   4.4282345 102.2555946  23.3008862
   5.8482937 102.7644847  23.4252262 103.4852029 104.4919513   0.6640434
 103.0419541 105.3113531   0.8839226 104.3860818 104.7513555   0.4707432
  95.2838612  48.7305832  76.8984938  96.1551189  48.4162760  76.6569376
  94.9048138  48.0159712  77.4102402  11.8894390  99.5169614  22.7303505
  11.8022255 100.4700063  22.7486134  10.9896282  99.1932510  22.7725029
  74.7579193  51.5097237  73.1177139  73.8762331  51.4967060  72.7453041
  75.0956631  52.3793173  72.9033184  26.8371682  37.9383366  27.4914169
  26.8294959  37.5469010  28.3648872  27.5680308  37.5116818  27.0441628
  71.4119481  96.7228704  73.4666634  72.3151922  96.7512911  73.7822008
  71.4125871  97.2797149  72.6881027  15.0698952  90.1757501   1.1494637
  14.1951088  90.3802060   1.4798737  15.2206425  90.8188866   0.4567242
  19.7698407   0.3032057  34.5702839  20.2237515  -0.3050573  33.9870071
  20.1266389   0.1141636  35.4381466  94.5528793  81.6958237  61.5152407
  95.0157928  81.4010620  60.7309866  95.0499630  82.4569798  61.8148947
  46.6273884 102.0004533  11.8748188  46.9073204 101.2870239  12.4483013
  46.6432098 102.7773307  12.4337769 108.9113808  62.9787827  79.8841429
 109.3797112  62.1681643  79.6846342 108.0613899  62.8758621  79.4561863
  49.7547869   3.2941716   8.4532166  49.1586547   2.5747006   8.6611271
  50.4688792   3.2034772   9.0841579  46.5395021  42.0414591  89.0292645
  45.9958982  42.7979612  89.2493439  46.0091925  41.2847042  89.2789173
 104.7170592  82.6291965  46.9052887 103.7729741  82.4713849  46.9005394
 104.8687173  83.1509660  47.6933193  74.4881058  58.3671999  87.8948212
  74.1174555  58.5788441  87.0380497  73.7740660  57.9366922  88.3649635
  96.0570483  12.6156275  37.1918774  96.0365634  11.7178433  36.8605232
  95.4277091  13.0868619  36.6458988   6.9192699  88.1019376  26.8245792
   7.8724674  88.1218599  26.7394447   6.7648033  87.9956554  27.7632332
  23.0118565  52.7503439  41.7554951  23.5007290  52.9231844  40.9509087
  23.6709980  52.7862097  42.4486542  14.3313746   7.4836438   4.8523903
  13.6805682   7.6005070   4.1602707  13.8849978   7.7652781   5.6509209
   5.1831296  68.1197596  79.1173410   5.3236154  68.7808132  79.7952080
   5.9418920  67.5403833  79.1868877  73.5336018  36.9106364  87.7347469
  73.4905195  36.9423819  86.7790413  74.3669319  36.4788294  87.9227257
  33.7966493  42.9162741  79.9218702  33.6093000  42.0724583  80.3330994
  34.4302705  42.7120972  79.2340755  25.0555424  93.9617799   3.3218765
  24.5541099  94.5923875   3.8387203  24.4025425  93.5312103   2.7701187
  58.0002551  15.3805201  59.6368885  58.2476954  16.3039582  59.5892811
  57.3131041  15.3506987  60.3025913  15.9598736  83.5960315  25.6626320
  16.0285667  83.6880897  26.6129112  16.2016491  82.6857041  25.4920864
  20.1919273  72.2393130  20.7179260  20.0957493  72.2932004  19.7670937
  19.4187645  72.6861714  21.0625649  64.2946868  12.2773593  27.1498966
  63.8732390  12.1514313  26.2997437  64.1573290  11.4494698  27.6102924
  62.3278289  14.5076697   4.4221973  61.8039946  14.7799389   3.6687374
  62.8803401  15.2649062   4.6159840  75.9986930  13.7699406   6.0772228
  76.4981131  13.4120696   6.8112183  75.3789763  13.0771296   5.8487415
   5.3650574  90.2526401   6.0236454   4.4501881  90.3969501   5.7819462
   5.6496719  91.0882472   6.3937664  17.0495323  75.1164936  15.0107765
  16.1161140  75.1965927  14.8144436  17.1618751  75.5873941  15.8365250
 106.1018658  98.5538934  30.6552792 106.3169003  99.4624113  30.8664417
 106.8486834  98.2438396  30.1430702  11.5868095  75.8671068  52.0780468
  12.2887424  76.3706587  51.6657829  11.9849018  75.0196026  52.2767735
 102.7227116  74.3921946   0.3824234 102.8001929  73.4649109   0.1579857
 103.0933715  74.4573878   1.2625313  65.3959846  93.4977531  77.1770811
  65.9174776  94.2919922  77.0610666  65.7950163  93.0566406  77.9270315
  62.5539832  11.6958897  43.4106922  62.1322875  10.9448092  42.9932213
  62.5299410  12.3841422  42.7458954   3.2396320  97.9979490  44.8223972
   3.4178928  97.6725315  45.7047558   2.3314098  98.2982563  44.8568153
  58.6886028  84.7967003  37.3498535  58.3309082  84.1988467  38.0062580
  58.3954624  84.4365595  36.5128326  73.6537313  36.9210744  69.4020462
  74.2877388  36.7169881  68.7145758  72.8253269  36.5694642  69.0759277
  16.4143089  87.9438280  40.7301044  16.7430309  87.0497249  40.6365204
  16.1455826  88.1939672  39.8461056 108.3281136  43.5186148  78.7556744
 107.5630569  43.2458687  79.2621660 108.8847160  43.9727068  79.3883038
  38.1587081  12.9659312   7.3469162  38.1469969  12.9582636   8.3040142
  37.2480683  13.1232827   7.0974922  42.5612931  22.5084489   3.7533093
  42.6713471  22.0409052   4.5812798  41.7081217  22.9354231   3.8309288
  46.3665442  23.0175440  14.8144722  46.7864566  22.6868432  15.6085396
  47.0799594  23.0958216  14.1811085  41.1067394  83.4179257  11.2069702
  41.0562805  82.9642676  10.3656101  41.3419918  82.7340911  11.8340778
  19.4737390  45.2602625  70.0834370  20.0715402  44.9442768  70.7609463
  19.9722913  45.9322357  69.6185446   4.3329052  80.8769845  16.6118050
   3.4771541  81.2169407  16.3503551   4.5304254  81.3301705  17.4314690
 110.3786851  96.5158676  25.0866508 111.1608411  96.0155176  24.8540115
 109.6487427  95.9529518  24.8286819   1.9914631  59.6317785  57.7022076
   1.5859083  58.7655030  57.6658344   1.3734583  60.2048080  57.2484016
  82.2431278  76.5989113  84.4888783  82.5142479  75.7717228  84.8869705
  82.5682354  76.5499878  83.5899067 103.9753342  94.9996875  64.8272991
 104.2577840  95.5772184  64.1181374 103.9590073  95.5618261  65.6018734
  38.0747466  16.2069934  19.0550709  38.7851481  16.2434619  19.6955681
  37.3148493  15.9118788  19.5567608  99.0695572  32.0690918  36.0522103
  98.9168644  32.8757954  35.5601239  98.3887100  32.0664477  36.7250252
  34.1823486  80.5882524  60.1132202  34.8094276  79.8764061  59.9856377
  33.7440876  80.3765343  60.9374332  32.7961396  92.2559899  88.3560753
  32.5074958  93.0637067  88.7809372  32.0573663  91.6555994  88.4559727
  48.4484820  28.3485310  36.5688610  49.2476706  27.9288380  36.8872929
  47.7457289  27.7516167  36.8258858  21.4795212  92.4291466   9.8249817
  21.0134796  91.6204570  10.0372505  22.1005539  92.1755193   9.1421795
 104.2707443  63.1543922  84.4236183 105.0857830  63.1524038  83.9216900
 103.9551926  62.2522068  84.3715572  27.9955868   3.4137957  12.7502060
  28.7962584   3.0387251  13.1169224  28.2700638   4.2557519  12.3868847
  42.3146156  99.0569185  34.2651844  41.6061024  98.5829137  34.7005749
  43.0612091  98.9688753  34.8577118  17.6408199  81.6922759  38.0462360
  16.8410686  81.7570995  38.5681820  17.3606781  81.2803100  37.2288990
  93.1782775   7.2271674  20.7858849  93.9459471   6.7365306  20.4923153
  92.7321200   6.6344397  21.3907433  27.1590332  68.1633090  10.2109337
  27.0394043  68.9487945   9.6771431  26.4746384  67.5643562   9.9124432
  93.9086533  69.9903631  85.9538174  94.2913151  70.3541613  85.1554108
  93.5790157  69.1308975  85.6913567  14.7375157  53.3999586  87.8044415
  13.8700059  53.6509609  88.1217003  14.5941499  52.5731373  87.3439503
  71.8117194   1.3093798  11.5423393  72.1054797   1.6096156  12.4024487
  71.4266066   0.4488127  11.7077160  25.3148893   6.9024611  49.2135334
  26.1223367   6.4278066  49.4109058  25.1197770   6.6754949  48.3043289
 110.4033184  46.0743046  60.5901718 109.7470379  46.3988638  61.2067652
 111.1259460  45.7778978  61.1435175  89.7895432  25.9568453  29.4425535
  89.0093231  26.1953402  28.9419460  89.4514847  25.6709599  30.2912092
  19.3909744  96.6987108  27.0203209  20.2788738  96.4150404  27.2380447
  19.4752697  97.1107744  26.1604786 101.5894699  61.9188499  91.2606430
 100.9638691  62.4299288  90.7471657 102.2966766  62.5332737  91.4570618
 108.5634042  74.0988587  38.3074856 107.6468850  74.1346787  38.0337429
 108.7752009  74.9992798  38.5536957  96.3944627  71.8875323  23.4212208
  95.4564620  72.0617496  23.3435059  96.8138171  72.6643609  23.0512047
  94.5679569  35.3230453  71.4505148  94.5869255  36.2565279  71.2396049
  93.6501980  35.0723124  71.3452339  77.8338242  68.4180641  65.5325794
  77.3356390  68.3923006  64.7156429  78.7465191  68.3248568  65.2595711
  90.5148463  34.7062962  27.4710274  89.8955874  33.9764683  27.4609089
  90.8115058  34.7812836  26.5640450  17.9366115 105.3583740  12.0916843
  18.0400375 104.5155023  12.5333881  18.7584022 105.8194231  12.2599888
  47.2610096  99.9439787  31.8064880  46.7001823 100.7044338  31.9594955
  48.1464199 100.2588676  31.9884872 107.2415543  28.4497786  82.2116184
 106.7501450  28.1443095  82.9741383 106.5719891  28.7743115  81.6094589
  53.2250838  19.1947644   9.5526886  52.9114585  18.3046191   9.3929482
  53.3103614  19.2514889  10.5043983  49.8716930 101.0322116   6.0437298
  49.3721870 100.2912496   5.7006550  50.3252033 101.3894151   5.2801991
 100.2241039  14.7733259  77.3599482 100.9559441  14.1564214  77.3516750
  99.5503330  14.3386388  77.8827429  91.5911441  39.3419736  21.1503887
  91.9792800  39.7762482  20.3907967  91.0948710  40.0308221  21.5924644
  85.8568911  20.3423588  39.9468327  86.4215712  20.7932942  40.5745506
  85.6825308  19.4916861  40.3495598  20.3881601  21.6554999  42.2846127
  19.4935849  21.7693186  42.6055813  20.8424714  22.4539948  42.5533819
  84.6659184  59.3497467  80.2532864  84.5512581  58.4595060  79.9207878
  85.6146908  59.4678450  80.2993965  55.1825480  59.1743462  35.1160908
  55.0335841  59.2823403  34.1767406  54.6900229  58.3869546  35.3477287
  17.0477966  90.0525664   5.5220032  17.1104530  90.8539389   6.0417271
  16.9842724  89.3510889   6.1701775  40.3095917 101.4909004  17.2665310
  41.0526756 100.9034704  17.4043465  40.2634338 101.5999435  16.3166809
   2.4911359  74.5211363  78.9875364   3.0680040  73.8757610  78.5789442
   2.2713807  75.1276541  78.2803774  13.6641888  79.7121214   5.6389236
  13.2667545  79.7659277   4.7698021  14.4162086  79.1314005   5.5228710
  33.9368633  83.1090520  15.9032059  33.6275677  83.2082318  15.0027943
  33.1381897  83.0947732  16.4305973  71.9924693  30.4259293  33.1054020
  72.1208434  29.5513814  32.7381039  72.7819399  30.9076302  32.8585625
  73.1112437  25.5322878   9.7565079  73.0314021  25.6985228   8.8172340
  73.5649066  24.6913331   9.8131847  71.6681533   6.3835614   5.4081154
  72.6182131   6.3675397   5.2925777  71.3181452   6.1633151   4.5448494
  64.2729048  29.0294259  19.6447277  64.0317206  28.3151715  19.0548992
  64.2646556  28.6335461  20.5161858  64.2800955  16.0263627  12.8604984
  63.9878516  16.6736977  12.2187901  65.2064376  16.2253468  12.9966259
  19.9284271  75.2921651  14.4044113  19.0491871  75.1604127  14.7591019
  20.3537563  74.4395231  14.4956684   1.2227110  83.6033033  34.6209431
   1.2284521  83.1770872  35.4780006   1.8279365  83.0842804  34.0912724
  60.0922637   0.1858704   0.5438519  59.2041735   0.5423396   0.5225468
  60.3770880   0.3064721   1.4496994  73.8471942   5.0135987  22.2134876
  73.6352019   4.1945355  21.7657948  74.0114169   4.7552769  23.1204224
  41.3286451  34.8672485  72.4858809  41.5375569  33.9457560  72.6389742
  41.6741803  35.3219938  73.2540226  96.7625904  92.3831081  55.7099438
  96.5732288  91.5400696  56.1218405  97.4447727  92.7699661  56.2587547
  20.5389360  78.5271692  78.8311672  19.8464254  79.1717768  78.6857796
  20.7654145  78.2170630  77.9543686  31.7552903  36.7224979  83.0868244
  32.2621110  37.1839094  82.4186420  31.2547830  37.4105167  83.5254097
  50.9400134  24.6101039  19.0764236  51.6520171  24.3166154  19.6448803
  50.1761489  24.6524136  19.6517181  71.3268237  18.9963334  12.0003605
  71.7410521  18.2842105  12.4877167  71.8097453  19.0341752  11.1747742
 109.3536282  18.6972475  87.2187996 109.6934223  18.6554015  86.3249207
 110.1083946  18.9502227  87.7503586   3.6675122  44.1610527  67.9014540
   3.4319738  43.3612442  67.4312830   3.1649831  44.1174603  68.7149668
  17.5841478  67.0768452  83.3955479  16.6654065  66.8084764  83.4071445
  17.6772168  67.6455402  84.1598511  28.4964612  51.5853786  89.8090935
  28.1563619  52.4031496  89.4460201  28.4561303  51.7092752  90.7573891
  99.5251799  29.0716838  10.6037998 100.3452731  29.4311665  10.2654934
  98.9662219  29.8367880  10.7394791  48.5957289  48.4108877  87.1571541
  49.1499805  48.7687874  87.8506565  48.6256838  49.0691853  86.4628983
  72.7041912  15.4552054  78.7837458  73.6490011  15.5852532  78.8653278
  72.3554468  16.3308096  78.6166334  67.4599313 103.6781987  59.5580959
  68.3031129 103.9459452  59.9236012  67.3498391 104.2278358  58.7822056
   8.4596161  80.0913380   2.0809555   8.9595703  79.4416236   2.5750732
   7.8570370  79.5740937   1.5465546  88.5385133  30.1972769  29.0384865
  89.3123914  29.6592592  29.2054749  87.8030158  29.5896624  29.1164303
  42.7778152  81.1636304  28.5473633  42.1403602  81.3428997  27.8561783
  42.9034523  80.2151893  28.5171986   2.0959190  78.9315604  13.7933540
   1.6545729  79.2087172  14.5962429   1.9099144  77.9948186  13.7289333
  48.9480925  19.6674037  62.9472065  49.8281908  19.9593818  63.1847143
  48.5159349  19.5030749  63.7853432  53.0737448  16.1853576  90.0183773
  53.5667515  15.6006527  90.5939579  53.3900213  17.0614159  90.2391052
 103.3140755  71.7609833  33.1635571 104.1117240  71.2473034  33.0365944
 102.6037551  71.1595212  32.9401207  71.9139957  35.6823039  74.1035652
  71.9352293  35.7886815  75.0545979  72.4070263  36.4308953  73.7677574
  63.1362915  20.0784683  79.2416620  63.2033682  21.0330033  79.2173052
  62.2933197  19.9082494  79.6619701   5.5329517  73.2196711  22.1910572
   5.8245567  72.9087328  21.3340187   4.7988848  72.6480912  22.4161720
  45.2558041   8.3780968  46.6447830  45.9424829   8.1307179  47.2640610
  45.7140970   8.8683063  45.9622192 104.5356608  83.7375663   2.1199989
 105.3749085  83.3949016   1.8126297 104.6208382  84.6875547   2.0393658
  44.7043180  99.2236167  51.8915749  43.8060998  99.5003730  52.0727873
  44.9197625  99.6406531  51.0573721  86.3911580 100.6644165  72.4817896
  86.5560197 101.6045695  72.4099159  85.4938745 100.6029519  72.8094339
  86.2365818  12.2223949  88.6462593  85.6622410  12.3561776  89.4002247
  87.1185207  12.3698676  88.9878464  59.4783448  88.3242267  72.6632500
  59.1914510  87.7448076  73.3690786  60.3591871  88.5968119  72.9202271
  60.0920534  12.9125750  71.1374760  60.8340406  13.5109794  71.0502958
  59.7600269  12.8111899  70.2454519  91.4080429  30.9198141  75.4874516
  91.3543987  30.5810118  76.3810778  91.9090462  30.2583957  75.0102139
  88.0978012  15.6080079  88.6360836  88.2047749  15.7880080  87.7020645
  88.7120152  14.8959100  88.8146496  89.3207217  46.8950479   2.4211597
  89.8577357  47.6748447   2.2805977  88.5153104  47.0678167   1.9336224
  65.6489229  26.4897275  87.4886227  66.0765076  27.3391533  87.5976181
  66.3625097  25.8538985  87.5410366  17.7610687  24.9423550   3.8751888
  17.2408298  24.1529034   4.0246677  18.5533813  24.6281503   3.4395790
  55.0887203  21.8655705  91.4979744  54.2097521  21.7938900  91.1258030
  55.6749153  21.7787385  90.7462597  81.0157777 105.3142379  31.3932991
  80.5062295 104.5123743  31.5099430  80.8633233 105.8137249  32.1954823
  40.7795524  97.0118767  85.1195812  41.5019655  96.4556205  84.8281479
  40.6639385  96.7898386  86.0434628  81.0942078  29.0718865  67.2418880
  80.5086422  28.8714266  66.5117121  81.7666054  28.3917141  67.2033691
  15.6288865  14.9707425  56.2497568  14.8407224  14.4461703  56.3906574
  16.3225988  14.4854736  56.6964293  78.8225889  52.6348162  85.7953358
  79.0259743  51.7309666  85.5546761  79.5732498  53.1403732  85.4836369
 108.0670929  14.4898200  78.4683990 107.4705887  13.7809539  78.2277250
 107.6040363  15.2886128  78.2159281  70.2173138  15.8730674  63.9079475
  70.6255054  15.3562939  64.6026134  69.9123907  15.2238297  63.2741165
  89.4600105   8.7858528  87.2460270  89.7233200   8.0127198  87.7451897
  88.9286327   8.4387934  86.5294933 100.9148598  53.1005310   2.8808689
 101.7032195  53.5468434   3.1899357 101.1170436  52.1690398   2.9684830
  93.7563380  89.2498010  67.1463585  94.5426818  89.7775966  67.0073366
  93.3854743  89.1374248  66.2711048   0.4342417  81.4161156   3.3909321
   1.2528423  81.6489075   3.8290310   0.5440048  81.7327283   2.4943066
  49.4437695  13.4404397  68.6281347  50.1073599  13.8658273  68.0850649
  49.9423170  12.8673089  69.2105436 102.4834251   0.6267983  54.5133352
 103.4159756   0.4326237  54.4190693 102.3027039   1.2715846  53.8293600
  14.4401840  39.2625867   5.7075882  14.6457676  38.6157893   5.0325966
  14.1976646  38.7412988   6.4728832  49.8839998  94.5336455  55.9933472
  49.3626355  95.2485972  56.3583851  50.2327298  94.0765387  56.7586422
  68.8734198  26.6535044  66.6255856  69.7065449  27.1205235  66.6890430
  68.3150387  27.2296381  66.1035585  80.9757042  23.2122755  82.9533195
  80.7047176  22.3305368  83.2089233  80.3457069  23.4709191  82.2806931
   0.2245569 105.3144071  60.4198170   0.6701040 105.4468153  59.5830441
   0.9326076 105.1761334  61.0489273 112.1105338  61.4481114   8.8322830
 111.5265752  60.7517146   9.1327095 111.5731669  61.9713627   8.2375717
  72.0036654   2.5469964   7.8491211  72.4081473   2.9733555   7.0935726
  72.1985964   3.1277363   8.5846329  48.9598512  98.5895431  54.9779654
  49.3206071  97.8889632  54.4345713  48.3592462  98.1440502  55.5754948
  24.8462299  67.4071025  25.6932640  25.7855991  67.4106728  25.8771133
  24.5817760  68.3229719  25.7797146 105.9927893  43.4922992  16.7653561
 105.7584334  44.4024812  16.9466782 105.8788634  43.0441193  17.6034355
  15.0367264  77.8849743  60.3028965  14.1298679  77.7364849  60.0349712
  15.5216030  77.1519779  59.9236393  38.4697060  28.9350699   2.1553898
  37.8049282  28.2526277   2.2479725  38.9758114  28.6736463   1.3861370
  23.9708237 104.4263815   5.3958702  23.3623890 105.0702499   5.7584572
  24.3011955 103.9526485   6.1591911  11.8668416  22.3046756  89.4017029
  12.3759225  22.6147556  90.1506424  11.1229470  21.8453407  89.7914028
  29.9018959  93.5287403  10.0083923  29.7618393  92.7238725   9.5095921
  29.1176514  94.0522073   9.8435593  76.3769842  75.2398919  19.3129063
  75.4253770  75.2130579  19.2131233  76.5178729  75.6899737  20.1458550
  79.2615843   0.2109145  87.0244980  78.8475609   1.0739391  87.0272636
  79.7063589   0.1559285  87.8703022  59.5388842   3.7296894  88.1403542
  59.5525265   3.8800409  87.1951389  59.3721867   2.7915108  88.2312679
   2.8760293  11.8751884  80.2124405   3.1710771  11.2597549  80.8835697
   2.2218660  11.3879049  79.7115755  60.7118896  69.6313702  19.0084171
  60.2820782  68.8393603  19.3312359  61.6470722  69.4329988  19.0566731
  89.3643809  61.0352777   0.5508709  88.8524295  60.4000960   0.0501919
  90.2754260  60.7951026   0.3819084  84.9238777   8.2529396  54.7805929
  84.0081310   8.4640646  54.5987701  84.8864365   7.6287949  55.5053473
  10.5331615  88.4370230  23.3557224  10.5716328  88.5141443  22.4024105
  11.4085964  88.6864637  23.6517239  11.7766765  77.8496598   1.0050583
  11.5233234  77.8760933   1.9277382  12.1381573  76.9720672   0.8809757
  79.7450165  59.6339892  21.0448074  79.6930889  59.4023578  20.1175117
  80.3119663  58.9644252  21.4275455  20.7583908  50.8750400   9.8167706
  20.0690464  50.8287142  10.4792595  20.4346088  51.5103888   9.1782379
  29.7602510  19.7726047  90.7481289  30.4400301  19.2829299  91.2111092
  30.2290273  20.2341509  90.0528145   3.2788376  77.3192261  10.6641197
   2.3634056  77.4719523  10.8984184   3.7231783  77.1948885  11.5027714
 102.7412319   7.6436585  64.9118710 102.4415684   7.2562194  64.0894794
 103.4106064   8.2754230  64.6491051 100.6305885  29.4416070  79.0786409
  99.8964024  28.8392043  78.9589691 101.3807297  28.9831567  78.7000322
  98.9410210  50.8619308  77.2960043  99.4273090  51.3359690  77.9705763
  99.2651272  49.9631453  77.3540974  66.2960868   8.9630597  21.1969948
  66.5311961   8.3505051  20.5000496  66.4340357   8.4700530  22.0057964
  24.3957809  92.9994320  13.4396744  23.5664657  92.5340532  13.3306885
  24.1638283  93.9245151  13.3581257  26.1028007  73.8748835  23.0226994
  26.4654068  74.1392993  22.1772194  26.6567139  74.3133782  23.6685562
  86.3853073  64.7595215  84.5620251  85.8680630  63.9745998  84.3815231
  87.2166634  64.6070814  84.1127586  88.3827115  52.4019315  20.3429794
  87.6656533  52.1623422  19.7558975  88.3883096  53.3590898  20.3360271
  96.1139679  43.8029909  72.1019697  95.5714226  44.0702009  71.3600302
  96.5662575  44.6033859  72.3684931  24.1877750 101.9693493  46.9671917
  24.7071270 101.4530777  46.3507748  24.8210911 102.5548147  47.3823643
  34.7324180  93.2438725  73.7736607  35.2054691  92.4942523  74.1349363
  35.4139566  93.7930697  73.3862066  81.0748005  30.8716297  89.3506145
  81.1137009  31.0935974  88.4203148  81.9655228  31.0178185  89.6691704
  14.9284653  50.4740213   2.4189281  15.4571442  49.7945760   2.0004940
  14.6082214  51.0093622   1.6929150  13.7281898  93.9760612  10.2122688
  14.3165211  93.2219194  10.2492332  14.0032390  94.5304273  10.9425163
  28.0250744  48.4971048  38.6357498  28.5509876  48.4182652  37.8398609
  28.3049206  49.3247865  39.0267277   2.0330290  47.6727961   4.1547585
   2.6314405  46.9367813   4.2828941   2.4529890  48.2085814   3.4818554
  77.5622848  54.6941543  10.2552509  76.6143230  54.7255583  10.1263618
  77.7293495  53.8133492  10.5906677  32.2641090  79.2707275  64.6124554
  31.4223198  79.6840547  64.8042583  32.2769836  78.4872054  65.1621532
  91.7723465   0.1427655  84.8134232  92.7058029   0.3502213  84.8564529
  91.3966179   0.5684247  85.5840588   4.6653465  56.4791246  12.7665615
   4.9146656  56.5356060  11.8441296   5.1851562  55.7529737  13.1111336
  80.7628441  20.5073833  74.4193220  81.6690826  20.4157591  74.1250896
  80.5776787  21.4428759  74.3368816  16.2546543  43.9286481   9.3032646
  17.0233444  44.4965498   9.2500973  15.8083633  44.0505897   8.4652996
  12.8193478  52.8482083  29.2524052  12.7807526  51.9220196  29.0138340
  12.7410129  53.3135246  28.4195900  77.5355054  64.5650934  33.8962460
  78.1211472  64.5461475  33.1393433  77.9213954  63.9433359  34.5132828
  15.4649261  68.1479214  14.1930294  16.2745575  68.6218535  14.3830872
  14.9369816  68.7678646  13.6898613  22.2236637  32.4421857  19.1866684
  22.8947262  32.9492496  18.7297249  21.8580059  31.8677496  18.5139465
   2.0678285  27.4656725  58.5849476   1.4750627  26.8661928  58.1316328
   1.9058946  27.3052335  59.5146084  11.3874630  70.9250640  16.8074608
  12.1781448  71.2720810  17.2205448  10.7030968  71.0386597  17.4669743
  48.8773112  30.5036919  19.3228340  48.0801062  30.3572552  18.8136673
  49.5050101  29.8719113  18.9719963  40.9957074  89.6404570  86.6440964
  40.5799770  90.4844337  86.4677334  41.6781854  89.5656222  85.9771156
   2.1088746  10.5217922  85.8878708   2.2748998  11.4625335  85.8272648
   1.1555055  10.4492688  85.9333134   1.5827802  31.7201138  76.6613054
   1.1007550  31.1682987  76.0453653   1.5566400  32.5938296  76.2712193
  89.0476371  91.4334391   8.1288528  89.3668748  90.6505655   8.5776615
  88.2465554  91.1478184   7.6896286   8.1986145  92.8921531   8.7940884
   9.0130714  92.5245951   8.4508896   7.7738384  93.2861160   8.0321217
  85.6067562   1.0669722  58.3010197  85.9890938   0.9745779  59.1736698
  86.2694645   0.7094224  57.7100849  86.9681740  12.0037937  70.8859682
  86.9870949  12.9353225  71.1053467  87.8687286  11.7080128  71.0192013
  36.8595557   4.3796246   3.1256199  37.4137454   4.9087756   3.6993027
  36.0365348   4.2878859   3.6056709 101.0397530  46.5088606  86.4322567
 100.9704971  47.3123693  86.9478226 100.2763844  45.9922028  86.6902447
 107.6775265  11.1499012  86.0421848 106.8173122  10.9017229  86.3808060
 108.2856941  10.5446661  86.4665127  19.0612797 102.4894022   5.7006645
  18.5620598 103.2866977   5.5236816  18.4011940 101.7973446   5.7402992
  15.1482204  86.9809221  10.7427788  15.7323555  87.2944521  11.4332294
  15.6570438  86.3126348  10.2837276   8.4405998  75.1554869   9.5141029
   8.0056003  75.4584383  10.3111172   7.9562477  74.3696951   9.2607880
   2.6107983  52.1304224  11.3628960   3.0858377  52.5039610  12.1052170
   2.4514965  51.2205450  11.6138554  24.2479900  90.2145623   1.6615963
  24.9286274  89.7381376   1.1862183  23.6776737  89.5306777   2.0126915
  97.2942162  71.5175390  55.8859015  96.5484619  70.9814215  55.6163597
  97.0673180  71.8184042  56.7658091  46.2112812  70.5547141  16.8468380
  46.8167118  70.4533182  17.5812817  46.2037853  71.4955484  16.6707516
  48.1729511  92.6136683  11.9021320  48.9691929  93.1030630  12.1088314
  47.8287128  92.3454593  12.7540684  91.7609978  40.5154441  17.2991848
  90.9767581  40.2245318  16.8338203  91.5003062  41.3354395  17.7185631
  90.7431030  44.5422077  88.6493969  89.8180962  44.6632862  88.8636875
  91.1298943  45.4109907  88.7582493  19.0851406  79.5410012  34.6858501
  18.8983253  78.6073135  34.7836113  20.0080685  79.6268939  34.9247456
   1.8862203  80.6715869  20.3580856   2.3763279  81.4581297  20.1185417
   2.2815088  79.9744056  19.8347092  21.9977478  80.6398772  39.2859173
  21.2002949  80.3671716  39.7397327  21.8393520  81.5544318  39.0519714
  37.1332263  89.5048362  88.9089870  36.7128467  88.6453539  88.9373398
  36.5188455  90.0868302  89.3562603  24.2570499  87.5340437  10.0288677
  23.4281067  87.5974654  10.5032825  24.9026302  87.3196887  10.7022953
  89.1616821  54.9515772  53.3446598  89.8402691  55.4000330  52.8400421
  89.4050980  55.1001883  54.2583895  83.9958858  24.0839696  62.3942757
  84.5586777  23.8829780  63.1420040  83.7119102  23.2287407  62.0715141
  72.3180676  47.8458023  87.7447128  73.1695557  48.1938505  88.0094051
  72.1418095  48.2605362  86.9002247  93.1356716  32.8635263  87.2421074
  93.6664200  33.3468246  86.6089058  92.5854778  33.5308027  87.6523018
  26.8916845  89.8706943  80.4028511  27.1950864  90.6589085  79.9524117
  26.9523429  89.1795987  79.7433567  84.7731972  16.0912395  63.4885263
  85.0323391  16.9755471  63.7475252  85.4233170  15.8328140  62.8352308
  21.3932232  43.7150459  51.8145943  21.0518650  44.5084529  52.2271633
  20.6574921  43.1028615  51.8274403  26.0750393  78.3948849   5.1388359
  25.4781631  77.7558325   5.5281639  25.7491974  79.2424511   5.4416275
  87.8735161  22.8910446  79.3451548  88.7302971  23.2993841  79.2209959
  87.2463131  23.5936761  79.1743898  85.3694820   8.4113163  83.4555912
  85.4567051   8.4425968  82.5028801  84.4344807   8.5403395  83.6148643
   7.9531101  90.8979796  46.1414719   8.5459618  90.2971386  46.5928650
   7.8067402  90.4929207  45.2866364 108.0785847  34.7961283  87.1116352
 108.8340378  35.3729153  87.2249508 107.3591709  35.3854442  86.8849564
  96.6565037  42.8738356  53.7468004  97.3162842  42.7436781  53.0656385
  96.4580250  41.9912815  54.0597582  14.0241483  34.8950815  84.8373032
  14.8729661  34.5964766  84.5108414  14.1915658  35.7778096  85.1674461
   8.3564809  28.0911589  66.3690996   9.1965249  27.7421117  66.6669893
   8.1216291  28.7448478  67.0277071  10.2305272  61.3660908  87.3024368
   9.7886041  62.0600939  86.8132591   9.9388555  60.5556726  86.8848515
  45.0796417  83.9270042  27.9188347  45.2747635  83.3680938  28.6710167
  45.2760795  84.8134922  28.2217979  18.3363632  81.6898297  28.0173969
  17.7237800  81.3979744  28.6925220  19.1627983  81.8179201  28.4830475
  83.0998898  33.8288903  63.4944010  83.4761429  34.6785331  63.7241220
  83.8012028  33.2012749  63.6690235  99.5613956  28.6765862  73.3386421
 100.4094410  28.3374977  73.0521679  99.3977833  29.4265914  72.7668428
 106.1259270  88.8300370  37.6308823 105.8085442  89.0090917  36.7457581
 106.8135691  88.1750773  37.5108337   4.6733431 101.1565517   5.8220482
   4.7303108 100.9544633   6.7559338   3.7447647 101.3334726   5.6714821
   4.4179300  64.8500262   7.2533894   3.6205057  64.5084129   7.6579285
   4.2825846  64.7247885   6.3141251  68.0574989  28.3873367  87.7550030
  68.5117149  29.0196753  87.1981716  67.7838182  28.8944244  88.5193348
  27.2183517  88.7613057  24.6494389  27.7687935  89.5433711  24.6897125
  26.5261845  88.9222954  25.2907085  80.7145214  27.7904701  90.8952045
  80.9765148  28.2198286  90.0808048  80.1930428  27.0391011  90.6128216
  12.8457359  72.3926591  18.6784554  13.3309463  72.3711120  19.5032883
  13.2405952  73.1129597  18.1870461  82.2010231  19.5650768  91.4977837
  82.0427418  20.0964427  90.7175159  81.4042187  19.0443528  91.5986347
  24.2305759  65.1528667  40.1729393  23.3285049  65.0283884  39.8779583
  24.5068935  65.9709774  39.7599316  29.8733333 100.9196733  10.3227329
  29.2958454 100.9748100  11.0841084  30.7294468 101.1944412  10.6510639
  18.0149750  45.5649237  29.6278667  17.1133617  45.5282091  29.3085098
  17.9392723  45.9013413  30.5207920  28.3813667 100.7583767  61.4496660
  29.2126893 100.6344425  61.9076824  28.6131334 100.7320878  60.5213261
  87.9393439  26.7349141  27.6891994  87.1124510  27.1892684  27.8505993
  87.8870253  26.4602988  26.7737389 104.5814514   8.5840303  57.7942228
 105.0277233   9.4267321  57.7110052 103.9273834   8.7259310  58.4785366
  29.9843983  81.5777873   1.8418312  30.3086285  80.8344220   2.3502731
  30.7601646  82.1152805   1.6820621  91.5635968  51.4129961  14.9189568
  92.3761416  51.6596818  14.4772053  91.8295623  50.7517074  15.5578613
 101.8395901  72.0224047  79.1520929 101.2064743  72.7383518  79.0989542
 102.6302814  72.4278164  79.5080233  32.3811726  75.0594710  14.5096874
  32.5334171  74.7362350  13.6216640  31.7856316  74.4190787  14.8988533
   8.9196400  75.6305741   1.7010784   8.5960010  74.8372577   2.1278572
   9.8460487  75.6694840   1.9387341   8.9975312  29.6422291  60.9854031
   8.5298684  29.5430565  61.8146753   8.5000566  30.3060317  60.5077839
  64.4656043   0.9951871  25.9306526  64.9404864   1.8213647  26.0208988
  63.8988642   0.9592812  26.7012119   7.7683023  15.6707013  72.8703690
   8.0557206  16.5695691  73.0305481   6.8153432  15.7320917  72.8045750
  16.2253097  89.6708654  25.3643227  16.4089493  90.1155637  24.5368195
  15.3282551  89.3504737  25.2701283  10.6331638  63.6442076  15.7662869
  11.2234787  64.3107055  16.1177635  10.4857067  63.9095591  14.8584938
  30.9391598  82.1051334  45.9551048  30.5604462  81.5802215  45.2499294
  31.7843536  81.6926859  46.1333275  16.0794929  74.7074007  18.1802273
  16.6787151  75.4482554  18.2713604  15.8101467  74.5055698  19.0762997
 110.6373215  76.4818144  79.0717030 110.7307625  77.2833395  78.5568666
 110.8033848  75.7754469  78.4474373 103.2028294  28.4375715  82.9651737
 102.4975777  28.5048342  82.3214912 104.0030003  28.5798669  82.4594975
  24.0312627  26.3142562  86.7660904  23.1417897  26.6189051  86.9456768
  24.0722516  26.2435913  85.8123779  10.6343750  72.0531808  30.6666851
  11.0682205  72.4126659  31.4404869  11.2915806  71.4838956  30.2663994
  75.2779150  35.0511980  71.5840721  74.9042702  35.7175684  71.0073805
  76.0464621  35.4717851  71.9696569  28.7653020  23.1836295  72.9260063
  28.0141214  23.5887909  73.3593702  29.0679410  22.5180793  73.5438156
  17.4597649  79.2362999   2.3682117  18.3706478  79.4408105   2.1567631
  17.3331837  79.5895122   3.2488060 109.8927260  69.4317804   3.5410023
 109.5881940  68.5364328   3.3932018 110.5929518  69.5554505   2.9001999
 111.4658546  34.5740581  55.6775570 110.9446621  34.2500496  54.9429798
 110.9842777  35.3382659  55.9942675  65.4954863  43.4008503  88.9515209
  64.9579430  43.4072685  89.7434998  66.2192059  43.9955711  89.1484261
  33.7392811  97.5927757   4.6632862  34.2920879  97.6832269   5.4394627
  32.8511146  97.7540992   4.9816799  29.7639278  73.6090802  26.0370064
  29.2748264  73.0039142  25.4795265  30.6739143  73.5104464  25.7569504
  96.8483448  31.3612175  76.2021351  96.3183498  31.8282223  75.5561876
  96.2493992  30.7202411  76.5850782  35.1875118 102.0655893   9.1664314
  35.1951984 101.4157032   8.4637070  35.0218872 101.5576147   9.9606419
  59.5793919  95.7352995  28.9488697  58.8514618  96.3428758  28.8177586
  60.1079754  95.8200239  28.1553555  34.3261436  86.7450975  10.5567169
  34.3385509  87.6921319  10.4181290  34.8236278  86.3887833   9.8206520
 100.8708286  54.3556452  44.5533180 100.8331013  53.4645796  44.2057323
 101.1007786  54.2434025  45.4756784 109.4519043  30.0178146  82.7078724
 109.2609978  30.6609106  83.3906651 108.6563301  29.4889617  82.6477718
  26.2610772  16.0959136  65.1706076  26.1100629  15.1647782  65.0080967
  27.2136930  16.1806965  65.2103138 106.3716125  36.8623209  73.1815052
 105.5570126  36.3727880  73.0674744 106.6549492  36.6519046  74.0712690
   3.3570722  57.4167681  70.2289391   3.4026864  56.9470978  69.3961382
   2.6302865  58.0298376  70.1186752  82.6226902  34.2053556  74.9403524
  81.8067169  34.3765569  75.4105759  82.4102306  33.4855938  74.3461847
  44.5139412  82.7219556  30.2916241  43.9998726  82.1947979  29.6800137
  43.8615898  83.1472038  30.8482552  43.4251170  22.8256505  23.6538410
  43.5660700  22.8358309  24.6005440  43.9540343  23.5525649  23.3250999
  20.1914361  25.9218121  60.5214596  20.2059510  25.2501035  59.8396778
  21.0193875  25.8074641  60.9880018  94.1120434  39.2589593  39.8785210
  94.8313522  38.6702180  39.6500254  93.4238434  39.0530753  39.2458868
  13.6682514  99.5464157  30.5248928  13.4940246  98.6099599  30.6193638
  14.5704559  99.5914434  30.2083015  92.9521370  18.5895085  86.2744904
  92.5017166  17.8004980  86.5758419  92.5630760  19.2980087  86.7872238
  32.7173809  93.0638193   9.7805882  31.7721657  93.1731533   9.8847389
  32.9950909  92.6098941  10.5762386  27.2898868  71.9509553   2.7829552
  27.2962192  72.3992418   1.9372463  27.5491814  71.0522627   2.5796223
  82.3661613  67.6528502  57.9710102  82.8356361  68.1302881  57.2869968
  83.0522537  67.3506117  58.5661221  51.2212138   2.2944777  20.5215931
  50.4722170   2.7395575  20.1251698  51.9731574   2.8406184  20.2923870
  97.0227146  23.5588408  77.6288557  97.7173328  23.0004048  77.2797155
  97.1728420  23.5650754  78.5741901  21.5654568  81.5378998  49.3072987
  20.7955936  82.1040486  49.2523193  22.2391132  82.0878385  49.7072887
  19.6568158  41.7645884  79.5800591  19.3907312  42.6835632  79.5497465
  20.4787210  41.7369366  79.0902281 109.1133499  53.7975740  81.9075871
 109.6498871  53.6721039  82.6902771 109.6021748  54.4299984  81.3809681
  52.8726630   9.6276181  28.3212376  52.6158576   9.0832465  27.5769711
  52.0894389   9.6679299  28.8700295  11.4479211  57.1574593  79.3918753
  12.3633340  57.1428490  79.6712351  11.4864495  57.3499060  78.4550142
  86.9166851  33.1488705  80.2965450  87.1964169  34.0449691  80.4835987
  86.0785389  33.2488823  79.8451662  28.5477996   5.1286721  76.3854694
  27.9840541   5.1707703  75.6130409  29.3925953   5.4627764  76.0839272
  28.4120087 101.2663768  12.8981495  27.9331783 100.4377054  12.8822136
  28.2026390 101.6476081  13.7508297  45.7295326  61.5061186  16.8768692
  45.1934341  61.5685158  17.6673985  45.7133201  60.5765204  16.6492367
  50.0517802  19.2210095  15.4199314  50.5671935  20.0180905  15.2964592
  50.2084593  18.9732163  16.3311291  78.7729216  45.7158422  90.6069946
  78.7882185  44.7876787  90.8404636  79.0164852  46.1697865  91.4137459
  59.3186478  71.7587875  45.5119514  59.1763691  71.3255869  44.6703339
  60.1275257  72.2562431  45.3915596  50.2963500   9.6738331  29.4695282
  49.6620040   8.9900725  29.2543411  50.2950816   9.7092764  30.4260635
  79.4809437  76.1070108  66.1716986  79.7790575  76.1604357  67.0797253
  79.6562862  75.2017212  65.9149170  10.8340362 103.1135868   0.7530689
  10.1904873 102.4095987   0.6725311  10.6274799 103.5324930   1.5885830
  52.5690464  80.1506256   3.1219006  51.9569687  80.7725261   2.7284050
  52.8831200  79.6254014   2.3858738  60.9062438  16.0856383  16.6779423
  61.2573008  16.1075680  17.5681686  61.5974288  15.6756537  16.1579323
  21.2572817  13.0818884   8.0221748  21.9925074  13.2206099   7.4251556
  21.0420661  13.9571135   8.3445072  62.8627543  17.4055617  31.1662102
  63.5545306  17.5618975  30.5233669  62.1296649  17.0676749  30.6517792
  92.0690918  50.9434271  87.2309113  91.4704418  50.2211046  87.0409012
  92.2732449  50.8469343  88.1610966  80.7532120  45.3524065  77.0025778
  80.4186726  44.4600964  77.0925856  80.2538395  45.8610010  77.6414776
 110.6140804  31.4928269  60.2354383 110.8718109  30.6266403  59.9199581
 111.3946629  31.8295288  60.6753826  17.3588852 102.0602535   2.8796673
  17.0823482 101.4335464   2.2110844  16.7768101 101.8923019   3.6207581
  85.2078299  29.6761601  40.8862591  84.2969851  29.5206826  40.6364059
  85.6711917  29.7730916  40.0543213  50.3770546  75.9781026   0.3166199
  51.0721306  75.4988359   0.7676315  50.1173977  76.6614197   0.9345913
 101.7550087   2.7918041  73.5508347 101.8586922   3.0544898  72.6362467
 101.5318489   3.6020970  74.0089369 104.3572903  47.4381685  61.8718100
 104.6255112  47.3008776  62.7803469 105.0380135  48.0014420  61.5036249
  61.6159200 103.3131981  70.9918261  61.2340783 102.4381998  71.0611439
  61.3223218 103.6358380  70.1398087  54.6201710  84.6309255   7.4372005
  54.1495804  84.1193508   6.7791176  53.9809231  85.2748226   7.7421474
  25.9589295  32.9863064   7.9634476  25.4741149  32.7002328   8.7376213
  25.6300501  32.4313443   7.2562790 107.5956107  89.2443536   6.9655514
 108.5324527  89.3937062   7.0930386 107.5464631  88.3996700   6.5179729
   3.4101155  24.1616178  90.7937050   3.7376741  23.6670232  91.5449142
   3.7060311  25.0584221  90.9499454 105.8329964  10.7223654  82.1416759
 106.3423538  10.7894313  82.9493141 105.4371071   9.8517036  82.1797848
  34.2052559 105.1535677   8.7160397  34.6499351 105.9912323   8.5863781
  34.8142532 104.5026039   8.3673382  79.5060401   8.3601468  10.2295303
  78.6992888   8.8673108  10.1391125  79.2341284   7.4519770  10.0971508
 106.7887355  93.5348152  13.0030441 107.1923733  94.0349268  13.7124062
 107.5277520  93.1640934  12.5207043  28.0471519  97.0057319   2.6299286
  27.6722530  97.2575782   3.4738827  28.9609817  97.2860645   2.6805687
  67.9205656  15.1110983  90.1181507  67.9753208  15.1099515  91.0737801
  68.2104301  15.9868550  89.8626900 104.0899372  30.1662564  72.3113871
 104.2971802  30.9437132  71.7928839 104.5481014  30.3023410  73.1407213
  34.8172478  97.9836200  43.2865334  35.3597454  98.7185787  43.5724735
  34.4258121  97.6470207  44.0925694  37.6189045  72.1837448  28.8435268
  38.2210735  71.5031193  29.1441631  36.9380764  71.7080580  28.3676910
  89.7743607  34.6460867  82.9926395  89.7812462  34.3417525  83.9001465
  90.5079460  34.1891360  82.5812054 101.1786842  30.9959984  70.0513411
 101.1200523  31.4223003  69.1963196 101.8358517  30.3102612  69.9325132
   7.6378492  36.0924625  42.0990133   8.1683210  36.5124726  42.7760792
   6.8100408  35.8897185  42.5347519  23.6745361  77.5714992  12.9917717
  24.0292171  76.6994523  13.1648731  22.8718952  77.6111697  13.5118008
 110.5604553  32.8987360  87.4539185 110.9760094  32.5720692  88.2519341
 109.9022579  33.5207248  87.7639866  69.8121405   3.9956412  88.2204914
  69.9890280   4.9270815  88.0887318  70.2838373   3.5595438  87.5108814
  32.0691112  92.1744727  22.7606201  32.3332504  92.1108841  21.8427849
  32.5258163  91.4522050  23.1918716  53.1139135  94.1426748  48.9403963
  52.3591089  94.5972246  48.5663939  53.3887147  94.6961289  49.6714258
  40.2340320  67.3809730   9.1743660  40.4708294  66.8311928   9.9212933
  40.1314739  68.2574819   9.5450974 110.0084114  24.5471406  80.5187702
 110.0803947  24.2121649  79.6249866 109.5445347  25.3792763  80.4260445
  11.9376854  87.9647945  20.9787369  12.8113083  88.1138395  21.3403988
  11.8939308  87.0186518  20.8404350  26.3836101  93.7967561  21.9740105
  26.9708160  94.4323419  21.5647888  26.7989925  93.5915826  22.8116226
 104.3458748  10.2588868  48.3190155 104.7164059   9.4286728  48.0195427
 104.1340923  10.1082063  49.2402506  97.2739792  45.4008198  83.9880466
  98.1553078  45.7666016  83.9126492  97.1185112  44.9748755  83.1450558
  83.4846592  10.5990469  76.6718769  84.1777706  11.1141634  76.2589836
  83.8242340   9.7041482  76.6807079  47.4548630  79.8348902  11.6170502
  47.6694874  78.9171790  11.7843246  46.9053654  80.0911997  12.3577213
  41.6225484  45.4391050  71.5217209  42.3388818  45.9159088  71.1024857
  41.1472180  46.1069536  72.0159531  81.6640759  42.8711081  75.3660011
  81.4695740  43.4798384  74.6533680  80.9991264  42.1873379  75.2851200
  22.6587395  65.3754650  14.8218250  23.0803017  65.2537273  13.9711189
  21.8503479  64.8662065  14.7636127  41.2420372 100.9795879   7.5204182
  41.5456489 100.0832485   7.3768330  41.5081505 101.4518808   6.7315292
  40.3363755  24.8016977  49.9094582  39.4722703  24.9103880  50.3066158
  40.6349805  25.6947231  49.7374916  77.7958827  37.6118653   5.6454754
  77.4844412  38.3892338   6.1090851  77.8876452  36.9468110   6.3277531
  16.8838695 100.3509878  29.8736191  17.5525860  99.8501085  29.4065285
  16.9439415 101.2324213  29.5052528 104.1968918   6.1255836  82.1781540
 103.7310314   5.6418544  82.8602123 103.8687611   5.7582688  81.3573933
  24.5825485  99.6000265   9.1791534  24.9367908 100.0379633   9.9530792
  24.8499874 100.1549409   8.4465027  47.8101734  66.1152004  15.2226925
  47.6235012  65.1778935  15.2759838  47.0274357  66.5359162  15.5784225
  83.8927416  20.1322692  22.5996399  82.9991011  20.0139420  22.2777081
  84.0693526  19.3430274  23.1116390  64.4594959  80.9386181  11.4055824
  63.7769226  80.2997922  11.2001133  65.2658752  80.5418848  11.0760498
 111.0687257  47.2579311   0.9423733 110.6651307  46.5994404   0.3769302
 111.1792088  46.8156378   1.7840385  36.9916824  89.8431085  25.7832336
  37.0848373  89.0354966  25.2779484  36.0680298  90.0772976  25.6923676
  10.6842950  64.7452593  89.9966335  11.0680440  65.6208706  90.0442982
  11.0413030  64.2855978  90.7565594   5.6519750  63.1812859  87.6674175
   4.9355176  63.4706974  87.1024704   5.9590963  63.9814377  88.0936432
  68.0638556  11.1771004  11.7924118  67.4399047  10.9090607  12.4670029
  67.8845172  10.5938571  11.0549259  17.4333051  47.6558685  85.6672668
  17.9022077  46.8270874  85.7646847  16.7973188  47.6567554  86.3826275
  52.6064114  95.7112812  22.9525375  53.4190658  95.8452200  23.4402752
  51.9545368  95.5099414  23.6239147  25.2332024 104.7753404  19.8478699
  25.4314236 104.1926311  20.5809402  24.6208290 105.4158233  20.2098370
  96.3688140   8.6436646  11.6801167  95.4961257   8.2534449  11.6314125
  96.2267069   9.5720379  11.4952755  95.2416325  42.1007299  66.2351370
  94.3794918  42.0343590  65.8246183  95.4079533  43.0416441  66.2922001
  70.3469233  13.7642663  10.0713253  69.8544364  13.2663577  10.7238388
  71.2082152  13.3470910  10.0517082  55.1012424  91.7032646  12.3191452
  55.1781372  91.6181897  13.2694530  55.8813385  91.2676333  11.9757748
  67.8969054  25.2915375  35.0382996  68.5348849  24.6278041  34.7762394
  67.8951506  25.9202378  34.3165207 111.1671066  57.2132969  78.1950617
 110.8115959  56.6387033  77.5170612 112.0718002  56.9211149  78.3064461
   5.5228856  54.4018030  82.7359486   4.5791104  54.3575191  82.8894806
   5.6383279  54.0534258  81.8519020  91.6997242  37.1127510  85.8600140
  92.2950172  37.1775055  85.1132393  92.2221184  36.6998196  86.5476322
 107.9335403  25.7732725  88.2274246 107.9869366  25.2012658  88.9930630
 107.5713062  26.5923738  88.5652065  55.3900866   0.5441992   4.3577099
  56.1943011   0.7493775   3.8808727  55.3020243   1.2529843   4.9949741
  87.4610762  16.4668648   6.4702988  88.3892207  16.3689892   6.6829014
  87.4553542  16.8447487   5.5908680  62.8556113  37.3437111  13.8859749
  62.2854380  37.8393071  13.2981586  63.3971743  36.8121712  13.3025360
  79.2864799  64.4664431  83.7708569  79.0918112  64.4990635  84.7074795
  78.5477924  64.9128819  83.3570099  89.8007107  28.4138751  57.4822426
  90.0291920  29.2126203  57.9576731  90.5304813  28.2777858  56.8779612
  35.2887157  84.9259804  20.1841831  35.7526497  84.0887283  20.1871109
  35.0258926  85.0509833  19.2723084 101.4103127  37.0327449  76.1272430
 100.8324146  36.4425755  75.6435347 102.2679520  36.9165301  75.7183599
  16.6383317  51.3638163  81.5916729  16.1850408  52.0504618  82.0808411
  17.4869683  51.2803841  82.0265007   8.9827302  60.2947044  90.2428722
   9.6287301  59.6890783  90.6063652   9.5016244  60.9329033  89.7532940
  17.5411323  63.9785253  31.1561394  16.6788677  63.7934004  31.5282345
  17.3679069  64.5967184  30.4461575  53.9653591  55.8932655  11.9949341
  53.2168201  55.2971475  12.0188618  54.1056923  56.1383628  12.9095173
  98.2373333  23.3366776  85.5542946  98.4418869  23.8220453  86.3535404
  97.3181725  23.5390067  85.3798294   5.9044316  37.2666407  81.8675995
   5.2970460  36.8414092  81.2622166   5.9228757  36.6909981  82.6321411
   1.5387777  85.0162506  80.5895329   0.7450917  85.5480099  80.5301762
   2.2107175  85.5392265  80.1522446  54.2768291  96.7320608  30.9624958
  55.1848129  96.7704509  31.2630367  54.1095642  97.5995754  30.5941677
  82.2617678  10.8586066  18.6919022  81.5163664  11.1834328  19.1969872
  82.0910887   9.9224799  18.5881424  46.7575077  90.8257555  21.5683365
  46.3749031  90.6083439  20.7182884  47.6006893  90.3727268  21.5743828
  65.4762702  24.8571675  19.3881035  65.1841502  24.2183297  20.0383282
  65.7886939  24.3269675  18.6549568 100.2049541  36.0319662  84.4987106
  99.4943047  35.3907633  84.4904423  99.9744701  36.6538620  83.8085270
  32.1812966  55.9931040  88.1458378  32.0160535  56.6469288  88.8251305
  31.4961579  55.3369188  88.2732582  77.0280890   6.5366929  12.6113987
  77.2923712   5.7092803  13.0136108  76.2635474   6.8147557  13.1157684
  45.5389027  87.2152470   1.7759132  45.1388172  88.0108975   1.4250565
  44.8620705  86.8331240   2.3345852 106.4814810  10.2947848  16.9312572
 107.0047812   9.4987338  16.8380260 105.8791976  10.1026766  17.6499939
  85.2534728   1.3084834   4.0393448  85.1501040   1.8260472   4.8378944
  85.7104926   0.5171721   4.3242836 110.0966358  18.3107889  78.4070635
 110.4239178  19.2027640  78.5232544 110.5788803  17.9752600  77.6513529
  76.8411879  19.0548174  40.8385277  76.7014365  19.0087550  41.7843437
  76.1918406  18.4552472  40.4709816  50.1239017  87.4192046   1.4216900
  50.6661323  88.1671213   1.6723633  50.6311230  86.6540669   1.6928482
  32.1386388  28.2704401  77.6822233  32.1215299  27.3828650  77.3242378
  32.9988530  28.6111212  77.4368572   2.2821859  27.9978108  55.8445883
   2.5100091  27.8013873  56.7532921   1.4685395  28.4984279  55.9044933
  73.4931426   0.8457034  33.7564182  73.6808448  -0.0364883  33.4358978
  72.5918345   0.7979958  34.0751648   8.6467794  33.5185146  81.7471695
   9.2522290  32.9208350  82.1858501   8.0547956  33.8110518  82.4401379
  70.4161882  40.0371647  79.0994883  70.6798601  39.2625546  78.6028099
  71.2001753  40.2861357  79.5889854  95.5442047  30.0259137  51.6353559
  95.7017517  29.0843511  51.7051220  96.4105892  30.4030395  51.4824057
   1.3950209  33.6203729  14.0173531   1.7155842  34.1530179  13.2895088
   1.5571932  32.7177261  13.7432003  84.2606163  38.4643841  72.0832253
  83.6665630  38.9825130  71.5401936  83.7787342  37.6568985  72.2621012
  73.8619094  29.6880047   6.2390041  72.9974608  30.0728696   6.3834095
  74.4314055  30.4371731   6.0639286  79.4147538  91.2494975  89.3354511
  80.1492833  90.7547801  88.9722061  79.6509217  92.1664601  89.1953373
  94.2038441  12.3254812  79.4818926  93.9326096  13.1376243  79.0540028
  93.4261322  12.0342314  79.9578762 104.2839718  39.3995976  58.6899471
 103.5559082  38.8263917  58.4499836 104.6084213  39.7369933  57.8550053
  56.6201257  83.7199074  58.5889482  57.3584699  83.4888488  58.0253029
  55.9224653  83.1185990  58.3283091 110.3200817  20.7797194  76.0518932
 110.7310486  21.3715839  76.6819954 110.4319382  21.2146282  75.2065706
  74.1048861  45.8137846  86.2934589  73.6445475  46.6120005  86.5526390
  73.6199236  45.4938984  85.5327225 100.8056450  62.9528570  78.5552549
 100.8036041  62.3451042  79.2947531 100.1163769  62.6276922  77.9761028
  12.8560165  83.8827990   1.0486984  13.1617550  84.6552538   1.5241623
  12.8651146  83.1814645   1.7000675  13.2854561  44.0136193  38.7229919
  13.5015682  43.2601653  38.1735992  13.9893154  44.6407478  38.5571003
  32.6115321 102.0595756  68.0550814  33.1392955 102.8044796  68.3428621
  31.8470859 102.4551856  67.6363420  50.1172356  44.5954143  13.9884758
  49.7129444  44.8689287  13.1650925  49.5785145  43.8631784  14.2882061
  89.7090530   4.8235834  71.9104433  89.2122841   5.1833683  71.1755848
  89.3771553   5.2922410  72.6762342  43.6747745  36.7482232  13.1590557
  43.1775764  37.2708117  13.7882805  43.6233715  37.2443150  12.3420620
  92.3210144  13.6516535  62.2760582  92.8068352  14.1214180  62.9539490
  92.6782036  13.9831316  61.4521790  47.6767301 103.6990143  75.7904387
  48.2653283 104.0061748  76.4799595  46.8108796 104.0045956  76.0609293
  11.8607476  18.7763393  71.4471579  11.8229249  18.5347927  72.3726034
  11.0216382  19.2042434  71.2768126 106.6329242  60.7613288  21.2313175
 106.1413480  61.1869972  20.5288982 107.4793626  60.5501817  20.8373737
   3.9858297  16.1718273  47.5948668   4.3375352  15.3088701  47.3761606
   3.9826921  16.1936891  48.5518122  86.6309166  26.6560936  39.0292788
  87.3953056  26.9322252  39.5349383  86.9585228  26.5556359  38.1355143
  91.6710377  46.5072680  71.2819052  91.5810680  47.2901917  71.8251991
  91.3766766  46.7829943  70.4138327 109.3370391  40.4971861  43.6944866
 110.1502038  40.5984782  44.1891956 109.6213914  40.2536141  42.8135490
 101.4003181   9.3036014  78.2586241 102.1300220   9.9229711  78.2707644
 100.7175446   9.7477072  77.7558136  80.7453156  34.3507743  56.9507742
  80.8642578  35.1300335  57.4937677  80.7309532  34.6839571  56.0535479
   4.7511724  44.2030059  10.7172871   4.2791990  44.2387967  11.5492725
   5.4270986  44.8761515  10.7962227  45.2869558 103.9466668  51.5249872
  44.7756433 104.0785134  50.7266092  45.8839654 103.2295991  51.3113832
  87.1982384   6.4176911  62.8927040  87.9200268   5.8578664  63.1788063
  87.4852276   7.3057991  63.1051588  84.5230770  49.5651484  81.4085484
  85.0002575  50.3546667  81.1532211  84.5537376  49.5656395  82.3652554
  14.6498970  71.7096614  38.8779259  14.8314194  70.7782720  39.0036106
  14.7856907  71.8559478  37.9417610  32.0697549   4.2263979  89.2350197
  31.3104013   3.7666708  88.8768673  31.7015317   4.9981409  89.6652031
  95.9742069   9.3251598  70.0073862  96.2569427   8.6439550  70.6175137
  96.7850685   9.7558099  69.7366953  52.8885984 100.7841888  53.7405014
  52.4813604 101.5364432  53.3109570  52.4886464 100.0228888  53.3201504
  98.9163303   7.3498392  71.4691973  98.0856323   7.4691635  71.0088253
  98.7225914   7.5828493  72.3771620  72.8271198  11.6817582  90.7907677
  73.6453438  11.3011348  90.4716110  72.2583628  11.7066658  90.0212669
  98.2560062  45.4050398  86.9861507  97.9527092  45.1817656  86.1061478
  98.5817528  44.5791435  87.3439503  79.8475742  30.1605320  74.7164869
  79.6734953  30.4748750  73.8292885  80.7739067  29.9195600  74.7077560
   4.8247436  86.2425731  16.1098576   5.3762440  85.5231594  15.8024216
   4.8457054  86.8816994  15.3976059  91.3141155  24.2734790  82.9094791
  92.1857166  24.3097639  82.5154877  90.8677292  23.5694671  82.4390125
  32.9261116 103.1789039  18.7869644  32.5305370 103.6197780  19.5388889
  33.4673695 103.8509868  18.3727455  51.5151596  20.9729600  51.7272997
  52.2948837  20.4556847  51.5255690  51.0444021  21.0308099  50.8958721
  52.1048073  74.4183944  22.2983933  51.6813282  74.5714687  21.4537239
  52.5430683  73.5734843  22.1969700 106.6514969  79.2440033  86.5223217
 107.0369148  78.3701086  86.5855217 105.8650780  79.1988325  87.0661449
 105.1637268  20.6935430  75.4141951 105.3770542  19.8614514  74.9918842
 105.8920479  21.2713885  75.1864290  17.4673370  84.4453214  31.6891098
  17.7565197  85.1018284  31.0553837  17.2906784  84.9439667  32.4868393
  43.8581470  67.1975206   0.6548214  43.8603977  66.6810070  -0.1510620
  43.1930260  66.7820989   1.2036991  37.4472669   2.0240387  40.2830982
  36.5874627   2.1852611  40.6716442  37.9993013   1.7665684  41.0214758
   3.3902887   8.1191242  76.1045790   3.2918313   8.1669259  77.0554972
   3.8798955   7.3103631  75.9548330  83.5346555 101.7349711  68.5719395
  84.2053746 102.4093249  68.6797047  82.8186082 102.1796763  68.1183529
  36.1996845  66.0534428  19.6991444  36.2368397  66.8091653  20.2854347
  35.9911636  66.4252220  18.8420963   5.9174255  84.3112014  11.6785431
   6.7256836  83.9108537  11.9989586   5.3562406  83.5695861  11.4520168
  40.9302238  41.9931840  13.1888390  41.6469387  41.3764261  13.0399609
  40.4943184  42.0633565  12.3395538  20.2831796  20.3233385  88.7662697
  19.8449662  19.8277152  89.4580555  21.2141374  20.1409745  88.8939285
  31.1964134  74.6269892   5.7100296  32.0746616  74.5608448   5.3351593
  30.7051853  75.1520060   5.0781345  60.0627903  71.1697458  26.0795307
  59.9750141  71.4401327  26.9935417  61.0075859  71.1302827  25.9311104
   5.2747682  70.1686811  47.2203302   4.5659021  69.6537781  47.6058340
   4.8508886  70.9726763  46.9200706  10.3607896  39.7621250  87.1786880
   9.8281243  40.4993439  86.8803406   9.7736123  39.0076685  87.1311665
  67.2201395  23.3186316  78.4843349  67.6227236  22.7629590  79.1517067
  67.9021215  23.9499497  78.2550573  97.9979610   2.5420678  77.9650211
  97.5358677   1.9204158  77.4026537  98.8646984   2.6260954  77.5676107
 109.7862053  42.3677683  40.2053261 109.0728664  43.0013990  40.1284790
 110.5438614  42.8128767  39.8257613  28.2610134  78.4396766  27.3682117
  28.7636188  79.2524885  27.3138618  27.5376228  78.5638450  26.7537785
  62.3211292  70.4313217  44.4272327  61.4926628  69.9531470  44.4622803
  62.9492859  69.8542868  44.8616123 108.3637333  18.1888139  82.9368210
 107.4366188  17.9981828  82.7941704 108.7746334  18.0288517  82.0872307
  15.7398561  46.0850620  72.0477676  15.4742768  46.0901165  71.1281633
  15.3831342  46.8984985  72.4045610  15.3486493  36.6644907  90.1447392
  15.7550576  37.4369788  90.5375767  14.7262338  37.0182681  89.5093918
   5.4753545  30.0100088  71.0610914   5.0020555  30.8320022  70.9324455
   6.2916997  30.1250267  70.5746937 101.7745972  39.1456914  67.2034788
 102.4323654  38.5299873  67.5267172 102.2832870  39.8639512  66.8272161
  99.1877937   7.7663761  79.8667049  98.5702419   7.8723711  80.5903149
  99.7379684   8.5487378  79.9048138   3.0726961  65.1971553   4.9229050
   2.3392633  65.8019339   4.8108768   2.7125791  64.3395136   4.6970749
  44.7651771  91.4298986   4.8213387  44.3354896  90.9990023   5.5602074
  44.6240238  92.3642658   4.9738693  57.8702549  87.5977443  30.7273674
  57.8219036  88.5525702  30.7742977  58.2888893  87.4202369  29.8850632
  22.7194551   6.2446117  90.9267807  21.8483022   6.5877187  91.1258125
  23.0304483   6.7866355  90.2017117  80.3142452  37.5311327  61.8365192
  81.0436726  37.6095486  62.4513388  80.0561428  36.6107798  61.8872213
  95.6092548  31.7753959  79.1075850  95.8087254  31.0868406  78.4732819
  96.3154984  31.7199588  79.7513008 109.4567585  12.3752058  67.3319244
 109.2304611  12.8850102  68.1098223 109.7492695  13.0271578  66.6950369
  12.6791623  14.2324257  84.8495674  13.4423593  14.7285402  85.1455879
  11.9619802  14.5442438  85.4015350  71.2399006  39.0949321  87.2380066
  71.7055798  38.5847759  87.9006672  71.8990755  39.6965909  86.8919945
  48.2616333  98.8485788   2.6719856  48.1650642  98.6019014   3.5917950
  48.5677532  99.7551368   2.6980019  12.7625660  82.5666021   3.5874653
  11.9036297  82.7582763   3.2110024  13.1005386  81.8445610   3.0576992
  26.5057138  45.1107025  91.1407852  27.3316911  45.4797506  90.8280659
  26.3654855  44.3387222  90.5924988  80.2815437  33.4272003  76.7961502
  80.3094006  32.5897813  77.2589445  79.3724155  33.5119510  76.5088511
  47.2528508  18.3453190  81.2763596  47.5826409  18.7833071  80.4917336
  48.0240014  17.9269075  81.6591167  93.6042881   9.6290350  73.3684969
  94.2418861   9.8304456  72.6835585  93.7580299   8.7071609  73.5752439
  48.0569939  98.5708831  -0.1531219  48.0535511  98.3948539   0.7877445
  48.9326671  98.9149974  -0.3292179  54.4533109  98.9837241  83.1130409
  54.1666745  98.1013405  82.8775120  53.7157010  99.5461970  82.8768253
  43.9616684  49.1976880  11.2636757  43.3824066  48.9144991  10.5562210
  43.7067989  50.1045878  11.4334011  90.2199650  34.0974402  89.6226978
  89.9598217  34.3822050  90.4987431  89.4527721  33.6368132  89.2829037
  22.9122356  96.0710214  17.2837162  22.0308403  96.3722490  17.0631504
  22.8879932  95.1265405  17.1301174  55.4938129  97.2367738   8.0370140
  54.8072533  97.8904317   7.9043484  55.8390144  97.4257015   8.9095783
  21.8671754  25.7439733  79.0675974  22.1919206  24.8838735  79.3340635
  22.3067239  26.3585401  79.6552515  98.0573368  47.4135351  64.3922424
  97.3385239  47.9547358  64.7187948  98.7693787  48.0326939  64.2313910
  88.3049583  55.8237553  79.1907358  87.4808311  55.8488274  79.6769571
  88.0397987  55.7823944  78.2719231 105.0219440  29.1163850  80.8052921
 104.5615292  29.9126077  80.5401897 105.0099182  28.5617733  80.0252247
  35.3844693  15.8150589  73.0171394  34.8460343  16.3022554  73.6408043
  36.0072759  15.3345859  73.5625648  98.4243107  32.4887729  54.1510630
  97.7332973  33.0632997  54.4806767  99.2271233  33.0015707  54.2447281
  87.4697114 101.2577747  56.0289097  87.6695967 101.6148018  56.8942451
  86.5702010 101.5361904  55.8568764  22.8130250  30.9691422  29.5877647
  22.2529606  30.1937859  29.5503712  22.8136305  31.2198346  30.5115509
  90.3968192  80.3209590  31.4646244  89.6693230  79.7556184  31.7241859
  91.1639453  79.9323248  31.8849850  85.1677037  90.3472541  30.2068233
  85.8056308  91.0127591  30.4644775  84.5803786  90.2744840  30.9591389
 106.2218190  87.7923010  12.7921581 105.3072835  87.7126907  12.5210190
 106.2900258  88.6785029  13.1474400  67.2642589  80.8597063  38.2845211
  66.8780566  81.1969303  39.0928268  67.3866773  79.9247979  38.4494209
 102.0967055  93.0298685   0.7261372 102.9278184  92.7289747   0.3587914
 101.9567538  92.4715255   1.4909267  28.1926541  36.5122693   4.7538757
  28.0863289  35.9863370   3.9612103  27.6179843  36.0960667   5.3963375
  98.7007094  60.5553965  33.7911892  98.2904721  61.2798922  34.2634678
  97.9664088  60.0264321  33.4793758   9.1101651  22.7288811  45.6358337
   8.3969788  22.3596947  46.1567020   8.9058404  22.4748604  44.7358608
   1.5442543  24.0147059  21.1960793   1.9016914  23.5361235  21.9440269
   0.8807473  23.4288256  20.8317566  25.7579713  26.4087384  33.6269856
  25.6397395  27.2897809  33.9819813  25.6816010  26.5200942  32.6793575
  20.4721503  19.2609208  39.1222763  20.3937726  18.6529677  39.8574543
  21.2326913  19.8006718  39.3378639  47.5723033  12.2718899  20.5995560
  47.2532611  12.2589438  19.6971798  46.9860892  12.8782838  21.0521793
  17.4373059  28.8945000  16.6690540  16.9214444  28.8879674  15.8627796
  17.6178269  27.9711716  16.8453884 108.5326911   3.9329569  39.4063663
 109.4277431   4.0744059  39.7147655 108.6098482   3.2297318  38.7615776
   0.4980521   8.9015143   0.0574112  -0.0160690   8.4158270   0.7024097
   1.3171963   9.1056292   0.5086041  17.1304803  17.9380076   7.4332142
  17.6085381  17.9849475   6.6052723  16.3111310  17.4953644   7.2119236
  12.8169398   6.4730780  27.4794102  12.6147418   7.1623366  26.8467426
  11.9817309   6.2906449  27.9099655  38.4222321   4.3210356  24.5221710
  37.4988179   4.5696061  24.5640183  38.4859852   3.5424321  25.0752926
  88.0629683  89.1098760  10.1785183  87.6426554  88.5156273  10.8001614
  88.9991523  88.9362501  10.2767372   3.3330874  12.8752320  20.8799362
   3.2847981  11.9260352  20.9936333   3.4152465  12.9993193  19.9343777
  52.8309823 100.6062006  14.2305660  53.1453920 100.9654449  13.4009171
  51.9756938 101.0159658  14.3602085  15.8065276  24.2440407  42.7447987
  16.2194590  24.7957938  43.4090996  14.9672227  24.6690934  42.5683594
  12.7115922  17.9441350  11.4735508  13.6605172  17.9401629  11.3480186
  12.5670581  17.3697178  12.2254753  39.6426634   1.1719744   3.9867401
  40.0954775   1.9998925   4.1471672  39.8453955   0.9607785   3.0753994
   5.2882962  47.8255456  29.4418049   6.1667161  47.4511330  29.3753147
   4.7021584  47.0698636  29.4014645  35.1219201  32.9182768  89.8432827
  34.4406104  32.2538805  89.7401905  35.9316397  32.4712586  89.5967865
  81.7690039  90.2711414  18.6012840  82.0982600  90.3967141  17.7113152
  80.9164286  90.7062672  18.6048698  97.5399590  78.6268471   9.8806095
  96.8161298  78.0841802   9.5678520  98.3168507  78.2524465   9.4652843
  81.6334654  32.5159829  38.4762287  81.9906504  32.0211785  37.7387905
  80.6951894  32.5717538  38.2952404   2.2361784   2.2030919   9.1424751
   2.9604439   2.0724766   9.7545242   2.2043185   1.3934844   8.6328220
 107.2897530  60.6970953  29.9172783 106.3427163  60.5777799  29.8457718
 107.5460292  61.0857152  29.0809059  34.9417357  60.8075516  40.6093407
  34.1541342  61.3096707  40.8185959  35.4208712  60.7577984  41.4365006
  54.2333043  83.1092046   9.8521614  53.9781106  83.5482286   9.0407658
  54.1901816  83.7944888  10.5190659  14.0622668  11.5261166  19.6918106
  13.3095078  11.0023301  19.4175339  14.5759062  10.9365361  20.2439022
  71.2240697  99.3923639  43.5530758  72.1301389  99.6757053  43.4306431
  70.9010196  99.9290203  44.2768669  91.8124713  10.3720181  23.8119793
  91.0114624   9.8554890  23.9003754  91.6817273  11.1186545  24.3965054
  56.0699058  72.9349111  33.7096119  56.2910093  72.5977765  34.5777607
  55.1942063  72.5902485  33.5347080  76.7132164  95.5511163  37.1447086
  76.6052819  96.0542320  37.9518318  75.8816505  95.6579660  36.6828537
  84.9431731   6.5996831  14.3321705  84.4715662   5.9526150  14.8566914
  84.4811089   7.4221509  14.4942665  55.7295681  87.9123424  21.0495472
  55.6031562  88.1570791  21.9662571  55.2460063  87.0920752  20.9517670
 107.1601249  69.2431377  21.0520267 107.9374362  69.1241573  20.5062580
 107.2235060  70.1452588  21.3656998  84.8333121  23.4527777  32.5461483
  84.2658664  24.1086053  32.9512787  84.4605304  22.6136349  32.8165340
  18.8228659  30.3226845  41.6470432  18.6918549  30.1625817  42.5816250
  19.3439345  31.1248677  41.6122055  30.4679017   7.3683589  17.4380875
  30.9223513   6.5299599  17.5205517  30.4674964   7.7288048  18.3248329
  78.0823184  55.6345822  31.0588264  78.1746341  54.7358357  30.7426548
  78.9382029  56.0330840  30.9010601   2.2412185   7.4539225  66.3538170
   2.0272712   6.5523236  66.1138725   3.1941180   7.4579804  66.4443874
  59.6938515  64.8046303  80.3003788  58.8660908  64.5352745  79.9022675
  59.8390055  64.1710949  81.0030842   4.8736338  99.4963955   1.8430233
   4.0433220  99.7190593   2.2640133   5.1491455 100.3062318   1.4135075
  22.8326993  50.6234639  18.2101822  22.2181134  50.1263039  18.7499332
  22.3437218  51.4030259  17.9467106  96.1514522  12.6182644  25.6849957
  95.6462099  11.8477671  25.9444046  95.5347826  13.1511967  25.1830673
   1.6323809  89.5663594   3.8043404   1.7206482  89.8554681   2.8961182
   2.3422245  88.9356516   3.9249802  70.3121877  93.7199234  24.6267319
  70.8292509  94.2116617  23.9887142  69.8645926  93.0514215  24.1080952
  20.6441121  12.1767275   4.1107559  20.0345807  12.7092021   4.6218014
  20.4974894  12.4480336   3.2045937  79.7173977  45.9015656  87.8070450
  79.4587231  45.9276533  88.7282562  80.6427383  46.1464453  87.8110695
 106.1002160  79.1473077  21.8554211 105.4089499  79.8066949  21.7955017
 105.8980609  78.6602925  22.6542854  53.3625846  41.5354340  27.5222015
  54.2088084  41.7466538  27.1278477  53.5711722  41.3042824  28.4273529
  94.8729134  90.3179549  13.7830639  95.2807952  91.1816214  13.8458729
  95.0905085  90.0138234  12.9019356  22.0712237   3.7302296  19.3574810
  22.1445040   2.8502457  18.9880276  21.7257075   4.2627661  18.6410618
  24.6031336  11.9017594  30.6642151  25.0125603  12.3610871  29.9309921
  23.6689715  12.0894139  30.5728149  90.7830811  25.6820178  85.4481030
  90.6513596  25.3773212  84.5503044  90.6808758  24.8962736  85.9851265
  25.3105311   6.0666268  19.2556858  25.0788645   6.2474578  20.1666546
  26.2668185   6.1050933  19.2395782  40.6284189  48.8669205  88.2407188
  40.0311232  48.5726976  87.5530434  40.0673962  49.3286753  88.8638306
   7.0885329  -0.2361400  49.8482513   6.3811593   0.3978293  49.9663067
   7.8886132   0.2879756  49.8857021  23.5161976   5.5734484  29.9109173
  23.2091241   4.8697178  29.3393421  22.8146796   5.6840842  30.5526924
  83.8828660 104.6720909  14.8080063  84.0828276 105.5438827  15.1489353
  83.2386208 104.8270248  14.1172314  50.2765326  24.5479863  43.5602283
  50.4592375  25.3315489  43.0416870  49.3725352  24.3215649  43.3417130
  62.5794554  89.5297145  30.4380226  63.2500268  89.6976470  29.7759247
  62.8958655  89.9826931  31.2196350  78.3444072  48.2981290  12.2685146
  78.6055852  47.4407034  12.6044273  77.5159312  48.4859665  12.7096272
  86.3004971  85.1678728  47.2047710  86.1923075  84.2181252  47.1547318
  86.1754323  85.3747080  48.1309509  27.1554856  12.7308695  36.4774799
  27.8654246  12.9599517  35.8776951  26.8004851  11.9137566  36.1274242
  43.6998224  57.4853086  89.9576759  43.9311123  57.3221827  90.8720684
  43.9504385  56.6826344  89.5003605  22.2062354  12.4941819  29.7257900
  22.3866515  13.3160346  29.2694569  21.9901757  11.8753379  29.0282345
 107.8437091  13.7450640  23.8224506 107.2206570  13.0385535  23.9923859
 108.6813928  13.4069817  24.1390228  47.0029788  23.3108657  38.0679512
  46.3847117  23.3155148  38.7986755  47.2759680  22.3966496  37.9909992
  87.5620963  26.8484824  36.2858677  88.0039360  26.1031573  35.8790493
  87.7624179  27.5880139  35.7121086  13.4378390  43.0044644  27.8657913
  12.5912337  42.5929062  27.6922607  14.0007214  42.7045815  27.1520329
  12.9503922   1.1002295  39.5090771  12.9651026   0.2055733  39.1690731
  12.0712714   1.4194386  39.3054104  14.5874838  50.2214997  10.5189228
  14.2909293  49.4453614  10.0436401  13.8237099  50.7981961  10.5361176
  68.6817551  93.8526414  48.5453892  68.4956098  93.1216072  47.9561710
  68.2239605  93.6295580  49.3558788  38.2281069  24.1131394  31.6504860
  37.5614886  23.7195819  32.2134876  38.6489682  23.3683961  31.2209988
   2.4768381  31.4618008  55.6119633   1.7348914  31.6230576  56.1948395
   2.1192341  30.9105008  54.9159622  78.9809609  92.0566724  56.7312622
  78.3279897  91.3572525  56.7052937  79.1063405  92.3014568  55.8144283
  20.6210856  12.9037230   1.3361168  19.9011235  13.4654372   1.0491276
  21.4090352  13.4221118   1.1728859  95.0151253 101.5356229   1.6439152
  95.8867741 101.1670230   1.7874432  94.5324136 101.3276027   2.4438858
  32.8619051  31.7630625  72.5535250  32.9301882  32.1200728  73.4390259
  32.0050287  32.0554066  72.2428322  43.0934668  53.5182619  83.1920052
  42.1750641  53.2573462  83.2604980  43.2192230  54.1419888  83.9071178
  82.5571658  27.6103680  10.9068775  82.9929848  26.8481152  11.2880135
  82.5616528  28.2635586  11.6065598  94.9798824  24.2205184  17.5448227
  94.7443511  24.5496075  16.6773796  95.0384833  25.0046342  18.0906773
   3.6501221  86.0151862  25.7190037   3.6709360  86.9639491  25.5939007
   4.4099096  85.6929420  25.2341175   9.1297345  17.5444119  25.4125023
   8.3389477  17.1975844  25.8255386   9.6411948  16.7680304  25.1847458
  24.9110608  13.0480998  26.4866829  25.5126242  12.3456042  26.2400150
  24.9444918  13.0672448  27.4431133 110.7539345   3.2272856  15.0604153
 109.8130824   3.2200806  15.2364254 111.1433651   3.5932343  15.8545589
  51.4089584  12.7084434  80.0390530  52.2902870  13.0741489  80.1148891
  50.8407021  13.4720206  79.9377251  17.0223820  49.7663069  89.9773788
  17.8185654  49.3517828  89.6449757  17.1327329  49.7688723  90.9281921
  48.7422804   0.8105366   9.6198559  47.8777175   1.0740273   9.9350166
  48.9243846  -0.0099618  10.0779438  16.6783766  23.4719794  17.8102207
  15.8890872  23.8160269  17.3920250  16.5997319  23.7385695  18.7261772
 100.8314158  10.8432763  23.0011082 101.0441805  11.7751067  22.9495907
 100.6935622  10.5784361  22.0916653  60.9551382  31.3979244  81.9332695
  61.1012363  30.5136871  81.5970898  60.6012774  31.8823171  81.1873627
  46.3090567  56.3060658  21.0058403  45.7484107  56.1580365  20.2442646
  47.1575884  55.9424203  20.7528973  94.3667937  89.9862765  30.8205795
  94.7403193  89.6460436  30.0075912  94.0504456  90.8601664  30.5915165
   9.2657761  20.3765290  29.9169922   9.8073535  19.9334996  29.2638111
   9.4632725  21.3059609  29.8013401  46.4995055  35.5881875   1.6228390
  45.6299071  35.8278840   1.9431114  46.6447596  34.7050755   1.9623375
 107.9123260  16.7287819  33.1929493 108.8071753  16.4374011  33.0181122
 107.6624228  17.2183554  32.4093056 112.1155526  11.1230271  22.1253681
 111.3251616  11.3018649  21.6159248 111.8082143  11.0585730  23.0295849
   9.5343547   8.0703919   3.8804722   9.2475514   7.7798121   3.0147171
   8.7626652   8.4909384   4.2597771  80.0083733  53.7259388  81.6130638
  80.7666874  53.6679459  82.1942997  79.2755651  53.4130573  82.1434689
   3.1699471  62.3043816  47.9691792   3.0556016  62.0990365  47.0412827
   3.4408240  63.2223885  47.9797268  84.4935513 102.2670244  58.7527943
  83.7133122 102.8208421  58.7254334  84.3029166 101.6179489  59.4299889
  38.5736088  12.5021212  23.8830280  38.9285092  11.6152709  23.8215446
  38.4990601  12.7937882  22.9743958  11.1450629  21.8618434   4.7121620
  10.7415967  21.3850968   3.9867878  11.4655690  21.1775248   5.2997112
   4.0920881  92.8794454   0.7686424   4.6791557  93.6117910   0.9564114
   4.4910435  92.4389742   0.0182724  79.9428654  91.0666131  37.6602650
  79.8079587  90.8531617  36.7369747  79.3178941  91.7696618  37.8373623
  24.2396073  35.7389443  33.6303711  25.0029235  35.8839409  34.1894436
  23.5322814  36.2184136  34.0616798  59.7773314  89.0840149  65.9729528
  59.5841885  88.3515930  66.5581846  59.0982485  89.0383244  65.2999067
 108.4948970  91.8056320  10.1668835 109.0879584  92.4041198   9.7126579
 107.8410245  91.5707944   9.5084476  95.3403712  94.8050188  27.4976254
  95.5538989  94.0827154  26.9069290  96.1479903  95.3158020  27.5530910
  20.6945662  25.4825490   6.1929512  21.4041381  25.6666701   5.5774593
  20.1720290  26.2844746   6.2029266   3.4081130  12.7985089  18.0147362
   3.6142497  11.9249766  17.6820469   3.6623530  13.3905547  17.3068619
  93.5902478  36.5617173   4.8308849  93.6341859  36.0166733   5.6165218
  92.9022933  37.1997731   5.0201988  44.2992930  11.5284340  23.7756157
  44.5710997  10.6745331  23.4391594  43.4224181  11.3785641  24.1289902
 109.4900061  45.7189839  32.8386879 109.6883847  46.2734406  32.0840645
 108.5423924  45.5899518  32.7985764  30.7417492  95.4252981  12.5083160
  30.6350140  94.4799112  12.6136112  29.8810009  95.7333921  12.2247028
 100.7843161  61.4811920  50.0254440 101.0983897  60.5858533  50.1517773
 100.8789588  61.6378854  49.0859127  10.4915290  15.7542937  41.3497925
   9.9489741  16.5196221  41.1596870  10.7299952  15.8527510  42.2715664
  11.0504489  25.4624884  40.3191185  10.5910735  24.8411458  40.8840466
  11.8194394  24.9828856  40.0111103  95.9462977 103.4718250  34.0050125
  95.3521634 102.8571104  33.5744667  95.8463717 103.2872509  34.9389172
  12.8927474  16.6271680  21.0066605  13.7640576  16.5634625  21.3978004
  12.8476815  15.8877270  20.4004955  33.9896826  15.8379738  29.9871159
  34.7200112  16.2222951  30.4720402  33.3746628  15.5558818  30.6641674
  93.9787341  83.0803059  32.2108459  93.8402367  82.8698014  31.2874031
  94.2033721  82.2428392  32.6163292  67.8566074   7.1632427  88.4125137
  67.4130487   6.3924682  88.7666225  67.3522758   7.9047239  88.7473011
  67.1366501  46.7349625  84.2924595  66.5236235  47.2938204  83.8148499
  66.5801811  46.1890697  84.8479652  81.3995696  78.6410664  13.7009811
  80.5763150  78.9228057  13.3021069  81.8417931  78.1446050  13.0123615
  74.2383909  26.6347551  84.5459557  73.7395382  25.9219050  84.9449825
  74.1914845  26.4627671  83.6054993  74.9831343  83.0612873  11.5987015
  75.6416631  83.0105637  12.2915268  74.9719859  83.9844559  11.3459778
  26.5869335  79.9257063  40.5247974  26.8164734  80.2644442  39.6594715
  25.6752209  79.6470879  40.4388237   5.1830915  63.8291882  32.8644371
   5.5603413  62.9496275  32.8813076   4.7639469  63.8936030  32.0062923
  86.8789817 100.5811285  25.0336742  86.5325976 100.5026792  24.1448021
  86.9025470  99.6822189  25.3617573 102.6067210  77.8379296  12.8320885
 103.2400037  77.3720311  12.2860813 102.6738930  78.7505172  12.5511837
  57.3111725  47.7167177  87.6097870  56.6729641  47.0372677  87.3923779
  57.7783918  47.3718023  88.3706856  76.6109800  17.1168315  65.8158827
  75.8179855  17.1553516  66.3505840  76.7697144  18.0246234  65.5571365
   5.5616383   9.2352860   9.0974522   5.3405575  10.1224940   9.3806934
   5.5564503   8.7183945   9.9030781  44.8783445  57.1575403  86.4297676
  45.3738499  57.1889257  85.6114006  45.5301189  57.3232889  87.1109009
  63.0544043  28.5980034  87.5662613  63.2668400  29.3646431  87.0339394
  63.6205196  28.6753297  88.3342266  73.2590675  18.4134376  65.8364010
  72.4004745  18.8084662  65.9880543  73.3008432  18.2878196  64.8884010
  95.8150864  54.8799144  39.9927235  96.0523225  55.6920989  40.4402828
  95.3667069  55.1669605  39.1972446  93.6404022  99.3466192  89.6713638
  93.5488351  98.5922426  90.2533913  94.5744678  99.3775320  89.4644833
  69.3676043  31.2477660  77.3524475  69.6893311  31.2196422  78.2535172
  68.4143734  31.2595487  77.4387360  90.1827002  92.3925637  33.5216904
  89.9730111  91.6760372  32.9226494  89.7236157  92.1698116  34.3315411
  78.6121083  50.5583634  31.6231442  79.4808627  50.2430588  31.8723011
  78.1234504  49.7652377  31.4031506  79.9397088  84.4630288   8.1199360
  80.5306102  83.8074826   8.4905148  79.1605902  84.4240354   8.6746311
  18.6947540  87.8304719  32.7713871  18.4671596  88.7496494  32.6315689
  18.7895874  87.4704074  31.8895721   0.1113323  37.5719927   4.0404034
   0.2859024  37.8662311   4.9343681   0.3395466  36.6424106   4.0453434
  14.4550899  77.7998947  17.0118237  14.3816189  78.1882571  16.1400414
  13.8111214  78.2722257  17.5394917  38.3860373  25.4720950  81.9684315
  38.5843563  25.9964395  81.1925602  37.4380898  25.3436613  81.9348145
   1.9409184   5.2062314  14.5530415   2.5596885   5.7460683  14.0611744
   1.4902548   4.6895211  13.8850975  23.6188512  17.6545375  21.7911434
  24.0341620  18.3216612  21.2446117  23.3715968  16.9624179  21.1778927
  68.8763237  40.2039146  89.7369194  69.7048521  40.0853729  90.2013683
  68.2139730  39.8625159  90.3377247  92.6782656  81.5241908   0.5467701
  93.6072970  81.2981008   0.5916691  92.2244740  80.7289599   0.8258915
  87.2459889 100.5121444  52.0475769  87.7717734  99.7851299  52.3810959
  86.3400222 100.2290176  52.1712589  94.0488101  88.8429593  -0.0443840
  93.4183551  88.1250046   0.0130749  94.7367574  88.6080121   0.5783176
 102.5951983  11.3225691  27.7654743 101.9901682  10.7662337  27.2749043
 102.1872999  12.1884339  27.7539444 103.9080144  80.8999895  21.4640903
 103.1905747  80.3081225  21.2378120 103.5866404  81.3867401  22.2230530
  79.4872475  18.8326800  87.3544979  80.0728321  19.4324517  87.8166676
  79.8473024  18.7811553  86.4690971  45.0901890  22.3051476  81.9679642
  44.2792511  21.8948984  81.6674423  45.7403231  22.0615625  81.3090038
  37.3364425  19.0901804  84.6015453  37.1394992  19.0754700  85.5381489
  36.5078783  19.3295228  84.1862965  81.6582776  71.1032115  32.6287365
  81.3495255  70.9548079  33.5225391  81.4294148  72.0141922  32.4444389
  14.9083523  96.6412757  27.3383999  14.1262154  97.1655153  27.1661472
  14.9082092  95.9772276  26.6489983  26.4501524  32.0012331  62.7260923
  26.2094164  32.3490572  61.8674326  26.6488361  32.7763653  63.2513762
 101.3527871  97.1601699  63.6314869 101.4291240  96.2159847  63.4939289
 102.0544577  97.5370620  63.1005955  82.3137283  25.3562307  75.7194233
  81.4318657  25.0398564  75.5233383  82.4879360  26.0130906  75.0453186
  96.6113282  83.2360958  43.4928799  96.9482327  84.0862368  43.7756920
  96.2933303  83.3884810  42.6029968  49.2279005  37.3959470  73.8538980
  49.3711710  37.1849012  74.7764826  49.5866966  38.2774091  73.7513208
  22.6411823  69.6188377  10.5726528  23.1878952  69.7522615   9.7983646
  22.7029804  70.4436039  11.0545063  76.5574646  27.9170346  77.3398113
  77.0212173  28.7464166  77.4551105  76.3785887  27.8712010  76.4005947
   4.5125775   6.0930483   6.7921162   4.4779448   6.5066331   7.6546574
   4.0665154   5.2544539   6.9105053   3.4428219  74.7714590  34.3537140
   3.4571937  74.7622918  35.3107548   3.4103540  75.7000040  34.1235447
  88.4146310  98.3918260  22.6604939  89.2420102  98.4871601  23.1322861
  88.6604024  97.9989885  21.8229389  93.9157677  77.5394391  16.1538696
  94.7310067  77.2790121  15.7251549  93.9742184  78.4925054  16.2208366
 103.0452681  93.9614509  41.9037628 102.7433682  94.6976112  41.3716412
 102.3425055  93.3148216  41.8387413  49.4315243  29.0430593  89.1675091
  49.8803902  28.9284205  90.0051308  49.8947001  29.7661161  88.7445545
   0.8192067   0.8138363   3.7957573   1.6893320   1.0853474   3.5035419
   0.9844331   0.2651398   4.5624828  74.2283488  70.8285640  28.0161190
  73.7587453  71.6618179  27.9788017  74.6388126  70.7462107  27.1553230
  88.9307357  74.2401122  26.5090561  88.6243630  74.6257661  27.3298168
  89.6537638  73.6688112  26.7680645  36.5152267  85.0575017   6.2327671
  37.0219807  84.3506955   5.8329487  35.7470993  84.6220659   6.6023827
  64.4653703  49.0618055   2.8168297  64.4086242  49.7588776   2.1632957
  63.5559846  48.8838728   3.0568028 102.9463340  79.6898936  16.8739605
 103.4921265  79.0584754  16.4052963 102.5617743  80.2319049  16.1850643
  60.9795261  65.6839524  24.0951824  60.4335643  66.4326511  24.3351936
  60.7939316  65.0272320  24.7663784  70.6863929  58.8732104   6.5765858
  71.2320066  59.3562673   5.9559441  70.7484127  59.3737804   7.3901081
  93.0775071  75.9474443  20.9426212  92.8507233  75.3531407  21.6578865
  92.5499535  75.6448911  20.2034378 102.5854970  83.3868860  15.5999470
 102.4692393  82.4374722  15.6364632 102.0939160  83.6587499  14.8249245
  77.4563027  87.0243286   4.8275280  77.9653455  87.7065538   5.2653408
  76.6237260  87.0066379   5.2994728 110.1618577  96.2846874  38.3609200
 110.5268670  95.6499504  38.9774513 110.9177447  96.7901062  38.0618954
  15.3744511  70.5178939   9.1726494  15.5374817  69.6180175   8.8900280
  15.9981254  71.0431253   8.6712551  18.8984732  16.1285870  23.6918354
  19.7990994  15.8071272  23.7338638  18.4911017  15.8055251  24.4955254
  91.9626189  69.5351623  52.0669460  92.7130080  69.3544971  51.5008068
  92.3502160  69.7995316  52.9012775  49.5483160  13.8630807  62.1555614
  49.1809273  14.5912683  61.6545630  48.8135147  13.2620883  62.2784805
  18.5490612  90.3608893  31.9005299  17.7408127  90.1482748  31.4338779
  18.3242611  91.1233352  32.4337959  84.2039061  78.7199806  30.0928020
  84.4594670  77.9011510  29.6680164  85.0251580  79.0858863  30.4212666
  98.2773448  82.6384758   7.5986099  98.1075001  82.2921966   8.4746647
  98.2265044  81.8739699   7.0248699  78.1744815  77.1752571   0.8178902
  78.8798142  76.5468334   0.9722328  78.2392121  77.7918385   1.5471840
  11.8723492   4.5408337  11.7336369  12.0506053   4.0882866  12.5580502
  11.0132413   4.9429267  11.8620300  37.4369530  79.8884343  16.3654041
  38.1199745  79.7708915  17.0256329  37.8076176  79.5112394  15.5675507
  57.7420521  58.3986759  88.1449509  58.0009127  58.4067440  89.0664482
  57.9819489  57.5248957  87.8364182  75.4155588  34.0815592  84.0506458
  76.1708784  33.5091090  83.9163685  75.3821182  34.6229267  83.2619572
  71.2381649  50.6667328  82.6623535  70.6127167  49.9658966  82.4783039
  70.8184958  51.1888123  83.3461285  60.9912682  46.2762785  89.1574860
  61.6592312  46.0401678  89.8011494  61.4696312  46.7547894  88.4804153
  95.5199385  93.1091093  14.7965145  95.2514268  93.9079641  14.3426800
  95.3203870  93.2781480  15.7172966  65.3818512  48.3044481  83.2668304
  65.4521227  49.0990162  82.7377224  64.5186424  48.3647633  83.6760616
  79.6461106  71.4461957   8.0448723  79.5890761  71.8835913   8.8943863
  78.9936782  71.8897532   7.5028133  64.9325275  45.3403854  82.7802849
  64.9213362  46.2747431  82.5727272  64.7237396  45.2998352  83.7135601
  40.7177786   1.1730569  43.1140518  41.2794881   1.8740885  42.7834892
  39.9417548   1.6244214  43.4461498  95.4997159  98.4537767  11.9193745
  96.1279107  97.8418087  11.5358353  95.9895850  98.8972162  12.6119232
   3.4381060  88.2168459   1.5009308   2.5745300  87.9690884   1.1706543
   3.6380104  87.5584053   2.1663094 100.7949019  89.1143654  32.0811462
 101.2964440  89.7218894  32.6248360 101.2700129  89.0880512  31.2506008
  44.3450122  10.3857176  31.7590046  45.2608447  10.5215256  31.5160179
  44.2308859   9.4355099  31.7413044  79.0397692  83.1705712  29.0655708
  79.9885464  83.2914446  29.1035080  78.9247943  82.2485589  28.8355541
  26.5783930  29.6039629  83.9254379  26.4664650  29.9402165  83.0362606
  26.4975238  30.3760433  84.4854259  98.5202885  99.0942548  37.6960659
  97.9053450  99.7302698  38.0615330  99.1323186  99.6209358  37.1820068
 101.2798548  64.8062049   3.9164925 100.7549191  64.7219835   4.7124672
 102.1667147  64.5699714   4.1883469  51.3519144  46.2860250  85.0113201
  50.5420780  46.1889124  85.5122852  51.8508291  46.9489098  85.4887104
  54.4248061  10.2437060  30.4024220  54.0469508   9.8922246  29.5962524
  55.3222899  10.4765360  30.1646328 111.6418625  23.1119292  53.4841824
 111.9435908  23.5291093  52.6772404 111.3692523  22.2353118  53.2131577
  97.6323128  85.0019239  14.3007088  97.9436827  85.9046148  14.2341709
  96.7172337  85.0431179  14.0229416  26.1108927  32.6878827  16.1925220
  26.6712002  32.9922764  15.4786396  26.7134671  32.5300305  16.9193077
  29.1969971 102.8684066  22.3244667  29.2370991 103.4018205  21.5306854
  28.6201195 103.3564161  22.9120827  24.4929986  36.0023110  30.6311798
  24.5381598  36.1134808  31.5808296  24.4374184  35.0553219  30.5032635
  80.0732136  70.4960966  85.4031372  79.8003197  69.6052170  85.6224346
  80.5349827  70.4067659  84.5694542  18.8009552  92.1747826  27.4196434
  19.3185619  92.2491001  26.6178989  19.4214348  92.3634838  28.1236649
  40.0609593  26.3211386   1.3863945  40.0499539  27.0106213   0.7225323
  40.6703429  25.6677144   1.0429955  15.5056003  96.5909790   5.9837914
  15.0608257  96.0019945   5.3742790  16.1243824  97.0770238   5.4387188
  61.9839478  64.6147585  90.0074673  61.5605688  64.1994333  90.7587910
  62.4377441  65.3723097  90.3768063  42.5135902 102.1713327  43.7396622
  42.9259304 101.6424345  43.0566692  41.6513256 101.7742227  43.8622856
 102.2180129 104.8489927  28.2470798 102.1706296 103.9676832  27.8765678
 101.3086177 105.0767683  28.4403610  77.4179936  69.6567975  16.7936802
  76.9556309  69.4255172  17.5992584  76.7327429  69.9795543  16.2084484
  95.7094241 102.4587415  14.5461178  96.6657067 102.4916814  14.5201874
  95.4299594 103.0901979  13.8832474  34.0015606  95.1243375  29.2721176
  33.8008598  95.4129242  30.1624393  34.7585682  94.5471738  29.3723392
  80.9630538  84.9323343  14.2056465  80.4819775  85.6851624  13.8620663
  81.3862324  84.5478653  13.4379673   3.8571744  48.5435288  13.4651947
   4.4169621  48.1193345  14.1155243   3.8602786  47.9440396  12.7189732
  93.0354262  99.3388771  30.5769730  93.4945918  99.5104335  29.7548008
  93.0505563  98.3858942  30.6654167  16.7181877  98.8016819  19.6658897
  16.4351276  99.4646762  19.0361691  16.3492206  97.9831623  19.3340397
  30.2948002  35.1710789  49.8586559  30.8770709  34.5302861  49.4505215
  30.3847031  35.0120919  50.7982731  16.5963225  13.8359778  15.6157589
  17.5289635  13.7504571  15.8135033  16.4407591  14.7802966  15.5984783
  85.5039359  95.2059005  20.8003140  85.6054545  96.1411499  20.6235790
  86.3218594  94.8141264  20.4941368  20.1655296  59.7970508  15.5656815
  20.0298504  60.5243133  14.9583054  21.1166672  59.7032969  15.6184196
  84.0795708  96.0785793  14.9072456  84.2784024  95.7101654  14.0464497
  83.2458974  96.5331434  14.7864628  95.7496501  91.6374849   4.1785049
  95.7967425  92.5092672   3.7860680  96.6276408  91.4842414   4.5276356
  86.1739779  91.0373567  11.4567089  86.2185860  90.7187770  12.3582363
  86.9777871  90.7152675  11.0488129  84.6687175 100.2603220  30.2387047
  84.3991900 101.1356186  30.5169773  84.8976184  99.8103403  31.0519409
   5.0027470   0.3402894  22.4400234   4.7541051  -0.5206687  22.1036243
   5.9435849   0.2714722  22.6022530   3.8376526  87.4925779  36.7287254
   4.6597246  87.5425838  36.2409496   3.5086874  88.3914422  36.7364693
  19.5272116  15.6882279  36.7534161  20.1497559  15.1413672  36.2742329
  18.8531546  15.0779956  37.0525646  75.5294133  67.2669123  15.0261402
  76.2605787  66.6843711  15.2317429  75.8306909  68.1341766  15.2969074
  48.0039458  16.6175263  20.1888752  48.0636458  17.5173228  19.8678875
  47.5519900  16.6925328  21.0293198   6.7434410  71.7585896  24.7072029
   6.6563801  71.8774580  23.7614155   5.8524231  71.5827201  25.0095177
  81.9049931  59.0459108  82.6683140  82.0316982  58.2966948  83.2504177
  81.4041901  58.6950541  81.9318867  47.6974826  10.3073208   1.5407562
  47.0387129  10.2905123   0.8465195  47.5074534  11.1065953   2.0319653
  68.8348818   8.6199331  53.3228302  69.0974474   7.7973789  52.9096794
  68.4600449   8.3568174  54.1633654  63.4426046  79.6936344   6.3320923
  64.1528035  80.2193044   6.7002201  63.1774808  79.1150139   7.0470238
   8.0924992 103.4574770  27.9659462   8.1656174 104.2678045  27.4617100
   8.9819435 103.1041168  27.9817390  49.2625904  52.0404196  89.0393639
  48.4465837  52.1855354  88.5605049  49.9501181  52.2924137  88.4228897
  11.6547779 100.6593488  38.5598850  11.9210342  99.8134445  38.1996346
  10.9126762 100.4545377  39.1287231  61.6491604  31.4148855  67.9002094
  62.4743128  31.8837047  68.0249643  61.4218521  31.5699124  66.9834089
  28.9408974  37.9368966  10.8170891  28.5326581  38.0774396  11.6713810
  29.1741709  38.8149636  10.5157375  39.9308066  20.5362599  27.8291416
  39.1153483  20.0806849  27.6200581  40.0200944  21.1955254  27.1409321
  79.6005345  91.7707966  17.1419811  79.5274926  92.6226066  17.5724602
  79.9159194  91.9737624  16.2613106  93.6226559  72.0655595   5.4278088
  93.4613419  71.2520240   5.9056854  92.8123618  72.2234498   4.9433231
  60.4326630 105.0966905  29.1512299  60.8041859 105.9737419  29.2460155
  61.1442066 104.5069383  29.4004917  28.8224225   8.2578366   7.8392887
  29.7716813   8.3070223   7.7265263  28.5059743   9.1252320   7.5868702
  41.8004135  81.3564418   6.4342880  42.3603076  81.5163969   7.1940041
  42.4118853  81.2197994   5.7106400  44.8009325  79.0606927   3.5534000
  45.2865649  78.9119385   4.3647385  45.4592539  79.3772458   2.9348278
  52.6655531  64.4530964  83.6916542  52.1135330  65.2325487  83.6286736
  52.3802471  64.0220022  84.4972515  16.6542344   1.1678259   8.6046696
  16.9518475   1.8389027   7.9904079  15.7921652   0.9098046   8.2783222
  94.1128254  39.6238852  64.8344612  94.3830776  39.4343281  65.7329416
  94.8311710  40.1428795  64.4727230   5.2929072  10.6581919  35.9760761
   6.0394339  10.0617068  36.0320759   4.5260958  10.0888627  36.0400867
  41.2632183  92.4293660   4.1719437  41.1817554  91.5051316   4.4072819
  42.1945576  92.5478314   3.9854145  24.7702221 101.3596939  19.6103001
  24.8858074 101.1750959  20.5423927  23.9587692 101.8653988  19.5651245
  93.6273956  84.2686844  74.7546577  93.9561939  83.4819412  74.3197441
  93.7715435  84.9709511  74.1204071  89.5688678  88.8022469  13.0739689
  89.8220778  88.0696176  12.5123882  90.3609992  89.3349789  13.1443787
  73.3475257 105.2862714  35.9838009  73.8144279 104.6012329  36.4622879
  73.5272885 106.0872816  36.4760304  51.2914801  30.2937365  85.2539253
  50.8301878  30.8029890  84.5875168  52.2043657  30.5714965  85.1783085
  59.3441443  23.2647555   5.0129890  59.3122344  24.0640013   4.4872379
  60.2609019  22.9916756   4.9782848  14.3699840 103.9873718  31.9044495
  14.2958645 103.5086702  32.7300358  15.2709965 104.3103717  31.8949413
  91.1529494  75.8532141  38.4828568  92.0118571  75.8411263  38.9051819
  91.0955287  76.7203520  38.0815983  52.2200775  39.6838713  76.0163975
  52.5622559  40.3162193  76.6482830  52.0161057  40.2066040  75.2409124
  47.5421143  48.1834602  91.1263466  47.0644760  48.4756231  90.3499794
  48.3829308  47.8752089  90.7883453 107.4956656 104.6159004  27.1743774
 106.5870286 104.4738792  27.4397850 107.6347495 105.5558942  27.2897244
 108.2656861  97.2567199  10.6864929 108.0454303  97.2479890   9.7550201
 109.1718961  97.5636076  10.7154655  19.9975066  10.7735102  11.1748123
  20.8466248  11.0952656  10.8719921  19.6695475  11.4661925  11.7482758
  62.6469541  94.2922186   8.5552883  63.0752850  93.5479187   8.9781189
  62.8161360  94.1671203   7.6215076  69.5129156  53.5724354  82.1311951
  70.4144621  53.7272358  82.4131298  69.5896435  53.3205986  81.2109184
  68.6189604  75.9179926  78.9096355  69.0689230  75.8183956  78.0706787
  67.9052925  76.5293503  78.7275648  89.4700671  96.3203262   1.9066429
  88.9605523  97.0799564   1.6245270  90.3012563  96.4023803   1.4390659
 104.7101641  91.7495583  18.5344887 104.6867848  91.1349176  17.8010750
 104.1967107  92.4997352  18.2347679 107.6983929  96.0399412  32.5900364
 106.9858790  96.2295745  33.2004452 107.5492097  96.6351627  31.8554020
  78.4914828  58.5060643  12.7138901  79.2987824  58.2023476  12.2988510
  77.9610348  57.7154784  12.8130245 111.7684651  83.1675123   0.7797432
 111.9242430  82.3978160   0.2324486 110.8304215  83.1413196   0.9684849
  67.9697943  95.6246780  35.5116940  68.9214946  95.5899452  35.4153061
  67.8220511  95.5589985  36.4551353  24.0834240  83.6664890   8.6164665
  24.7305015  83.0197166   8.3350372  23.8605408  83.4087394   9.5109653
  70.2480698  58.1447935  84.3902016  69.6724653  58.4933901  85.0709248
  70.2739334  58.8313389  83.7237072  76.8768501  70.6026554  74.4429541
  77.2149944  69.8456621  74.9213362  77.1492481  71.3571978  74.9651575
 106.3250733 103.1997417  33.6275482 106.9010592 103.0661176  32.8748131
 105.6984092 103.8615631  33.3351135  30.5016708  43.9540005  74.5346403
  29.7995806  44.4569635  74.9473524  31.0474992  44.6126080  74.1050625
  69.7689109  33.4262745   0.1354218  69.0293555  33.1500714   0.6767178
  70.4689746  33.6096566   0.7619190  98.4208871  76.2246083  21.6043854
  98.8251687  76.7336796  22.3069763  97.6076556  76.6900419  21.4087868
 100.2926160  78.8132499  39.1123867 100.5834819  79.7209118  39.0241814
 100.3960944  78.6180090  40.0437260  15.7765774  96.0668682  35.1303959
  14.9544624  96.5395902  35.2603626  16.2208752  96.1219619  35.9764481
  21.5538172   8.1136029   8.9321423  22.0006327   7.3318236   9.2568111
  20.9397130   8.3452313   9.6288872  64.0920877  32.6919603  83.7210941
  64.1080523  33.5250115  84.1922569  64.9814081  32.5917649  83.3815289
  43.6675882  28.9661312  84.9553299  44.1237450  28.6407232  85.7313919
  44.3506098  29.3912625  84.4367027  75.1975704 103.4467577   5.3217983
  75.1377989 102.5117134   5.5176163  74.4998456 103.8454555   5.8418465
 105.4496527  87.2719811   4.2009544 105.2452088  88.2070922   4.2014503
 106.3309289  87.2192930   4.5708275  94.7109462 102.5898479  23.3568764
  94.2956639 102.7937769  24.1948414  95.5917025 102.2971271  23.5910130
  71.4146019  94.6268819  43.0224133  72.1513201  94.4352363  42.4421120
  71.3162375  93.8366769  43.5535717  32.7701049   1.9963687   3.9342785
  33.1902795   1.1744492   4.1875267  33.0055861   2.6100724   4.6300888
 105.9559061   3.3993571   4.4393158 106.2408568   2.9782050   3.6283493
 105.4121615   2.7414649   4.8726177  68.8683033  54.0492773  86.3626099
  68.7765121  54.6877050  85.6553459  68.0957890  53.4898472  86.2820339
  18.4145550  86.2323783  29.9149036  18.2130817  85.6820558  29.1580772
  19.3480495  86.4257501  29.8287106  31.4157109   4.7765391  23.8856030
  30.6963114   4.3079798  24.3088627  31.0246520   5.5983203  23.5890007
  74.7896385  21.4233994  90.5236530  75.5512571  20.9364176  90.8383179
  75.1105261  22.3168445  90.4011059  24.0555243   9.9486630  10.6394386
  23.3184390  10.5519335  10.5445671  24.6487765  10.1811354   9.9251270
  84.4027997  89.3670391  13.0579758  84.0705348  88.4740232  13.1493759
  85.2536059  89.3520688  13.4963036  44.4806342  19.6842616  50.5673027
  44.6986441  20.5804341  50.8233929  43.9399962  19.3548100  51.2852287
  14.6254925 100.2051948  26.3565063  14.4911674 101.0115121  25.8584690
  15.3940395  99.8004697  25.9543133   9.2416099  61.1578433  22.9017162
   8.3872131  61.2709473  22.4852467   9.0761188  60.5575775  23.6287117
  83.1130219  90.3412007  22.4644566  82.7001954  90.8966278  21.8031597
  82.4450780  90.2392076  23.1424522  59.1025405  20.6602471  19.4756413
  58.7565283  19.8148673  19.1895676  60.0532012  20.5535166  19.4426060
 111.3836385  91.3833021  27.7426720 111.3474465  90.4870533  27.4085140
 110.6749583  91.4284133  28.3845139 106.2935878  81.8379830  16.5244007
 106.0020066  81.2378787  17.2107601 106.0205365  82.7028273  16.8305397
  90.6063700  66.6839217  42.6015091  89.7948552  66.3497733  42.9836369
  90.6769324  67.5787781  42.9339027 110.7987548  95.9085296  19.4251156
 110.7430983  95.6942915  18.4938622 110.1742984  96.6241811  19.5439816
  51.7463450  11.7795985  15.2173710  51.3625197  11.8968146  14.3483639
  51.1344103  11.2019580  15.6735516  90.7053376  95.4991649  22.2280121
  91.1912871  95.0803588  21.5176010  91.3200951  95.5156683  22.9615211
   6.2955002  84.0599297  15.3212929   6.6557983  83.3836411  15.8949184
   6.9980911  84.2445682  14.6979904  49.5520973  45.7059669  86.9536304
  49.1865969  46.5906286  86.9576454  48.8901949  45.1713610  87.3921680
  86.8124962  60.9164095  85.1772118  86.0589790  61.1787701  84.6484280
  87.5638771  61.0259581  84.5944214  79.7975493  92.4506806   8.5276222
  79.8506070  91.5213512   8.3045387  80.6334401  92.6431178   8.9524651
  38.1124692  22.7490847  20.3302479  38.1178717  23.6570971  20.0273991
  38.8828711  22.6800864  20.8941174  21.8194728   4.6933549  26.4318943
  21.8600850   4.1509764  27.2195530  21.1793856   5.3733199  26.6420460
  33.1037287  17.8035634   8.0606651  33.2529788  18.2993977   8.8657188
  33.2108550  18.4467309   7.3598957 101.5622330  80.8345388  14.7165966
 100.9509135  81.5319847  14.4797611 102.1655799  80.7829355  13.9752865
   5.3786759   8.4810631   0.8969307   5.1598744   7.9231446   0.1505566
   4.5398860   8.8489716   1.1749744  50.5676794  34.9503493  85.1959229
  50.6846762  35.1897621  86.1152840  51.3857555  34.5152593  84.9557495
 108.8907958  98.2498907  26.3509941 109.5203830  97.8970932  25.7221890
 109.4126273  98.8142847  26.9214153  60.2558208  77.8946780  21.8223095
  59.6648169  78.2572268  21.1623764  59.8021937  77.1177291  22.1491241
  91.5625859  86.5636872  15.4524708  90.7786608  87.0589923  15.6898880
  91.6879321  86.7456435  14.5211220  53.8417196   9.9935412  76.4350367
  54.6456814   9.4972736  76.5886402  53.4294415   9.5569015  75.6896496
 103.2437420  97.5777435  84.5510292 103.3713055  97.8193951  83.6336613
 102.6919270  98.2738781  84.9075794  32.2625451   9.0120738   7.7835655
  33.1066613   9.3882792   7.5342274  32.0580630   9.4193595   8.6253166
  14.2437033   2.8714173  13.1951046  14.5644622   2.0570080  13.5825062
  13.4171443   2.6288455  12.7777386 110.1664353  63.9372264  33.6380577
 109.6155978  63.9692806  32.8559017 110.4270125  63.0189942  33.7100315
 103.8952828  78.3826207   7.8502178 103.1449176  78.9473079   8.0354309
 104.6017838  78.7387131   8.3889961  19.3434274  51.1955547  78.7260580
  19.0581942  51.8885851  79.3215275  19.3697846  50.4083061  79.2699099
  39.7383952  43.9164495  83.3334351  39.5746350  43.3224154  84.0659237
  40.3021336  43.4177542  82.7420521  50.8441596  34.8542683   7.7957916
  50.6215529  34.7543423   6.8702126  50.1592211  34.3731778   8.2601643
  33.2018571   3.8918393   5.9907532  34.0481333   4.0286534   6.4165783
  32.9042296   4.7721140   5.7610321 110.9303523  71.5440868  22.2979927
 110.5133582  71.2237011  21.4981842 110.2114869  71.6333102  22.9236889
 102.9939557  96.6670869  11.0591793 103.2894421  97.4563287  11.5130711
 102.8212405  96.0382818  11.7599010   6.6829400  16.1353724  16.9424438
   7.3713212  16.5189593  16.3991070   7.1378045  15.4931014  17.4872589
   8.4106068  89.5191930  20.4838276   7.9478554  90.0347470  19.8233032
   8.0114273  89.7796963  21.3139057  67.6403809   7.6712632  91.4379787
  67.6261091   6.8012381  91.0391235  68.4152937   8.0925328  91.0661316
  38.0220342  26.9675136  79.4599438  37.8951716  27.7322674  80.0214481
  38.2797098  27.3321366  78.6132574  41.0808663   9.9388211  33.7728214
  41.8673377   9.9439566  33.2272339  40.6439213  10.7662051  33.5709667
  26.4423661  20.0785391  43.5937881  26.7400317  19.5766585  42.8350067
  27.2466044  20.3096669  44.0585518 106.0611392  50.9612219  16.1015511
 106.1607075  50.3680182  16.8461514 106.8647528  51.4812564  16.1004925
   0.4976467  83.1161569  12.2345829   1.0475592  82.4416040  11.8360806
   0.8532576  83.9411353  11.9041538  99.5567323  76.5307115  26.1734390
  98.7961198  76.2564801  26.6857815  99.4941903  77.4854158  26.1441135
  46.1349630  47.0176268  86.2789059  45.7111168  47.0502090  85.4212761
  46.9871712  47.4310207  86.1407566   5.6606964  95.3884576   1.1727905
   5.6336502  96.0470365   1.8668938   6.5838341  95.3400634   0.9243774
  75.8355523  75.8453773   0.2079487  76.6241074  76.3267659   0.4582977
  75.1949764  76.5259455   0.0012493  13.2920078  97.6143097   8.0399704
  13.3915523  98.5557006   8.1817627  13.8816742  97.4180721   7.3119450
  66.1895466  36.0583019  76.8467712  66.6862917  36.2087584  76.0425043
  65.4238701  36.6269207  76.7652893   0.4614738  70.8928596  26.1578560
   0.8202366  70.0469099  26.4259720   0.7952312  71.5113746  26.8076801
  53.4117794  34.0481353  85.6939888  53.4822273  33.1156373  85.4897404
  54.0225315  34.4721723  85.0911522  86.1494065  76.8710397  31.7278290
  85.6147385  77.1397971  32.4749088  86.1097861  75.9146999  31.7366314
  98.2877875  85.7436393  47.0143700  97.9640961  84.9076818  46.6787624
  98.0364419  85.7444118  47.9379845  83.3050538 104.6537088  25.2976227
  83.6408759 103.7669252  25.4282761  83.1422330 104.9809240  26.1822987
  93.3042193  78.4392522  35.2635956  94.0074492  77.8021883  35.3894901
  92.6385356  78.1910728  35.9050751 110.5156089 101.9394277  19.8932171
 110.0127793 101.9477390  19.0787697 110.9675837 101.0956787  19.8870564
  77.5987149  58.2493632   9.5828056  77.9694367  57.6490919   8.9359093
  77.8778363  59.1174387   9.2916489 108.5870840   0.8793585  31.2850571
 109.1742708   0.8249228  30.5310822 108.1186964   1.7054122  31.1647129
 109.3025400  20.1341670  19.3250656 108.9201714  20.2307789  20.1972485
 109.8756982  20.8947795  19.2292309  43.5816574  17.4173009  84.0296078
  42.8248262  17.1807158  84.5657635  43.7317991  18.3428001  84.2223358
 109.1741849  71.2128483  30.8650398 109.9043036  70.8959018  31.3967419
 109.4242621  72.1042083  30.6217957 105.4164888   2.0728533  41.9582367
 104.4878150   2.2305482  41.7881584 105.4246713   1.3843386  42.6231480
  95.6639863 104.8582290  41.6557026  95.4214669 105.6204914  42.1814156
  95.8005048 105.2081131  40.7752609   5.0139431  96.0843347   5.9436989
   4.3737892  96.4991878   5.3654861   5.8585075  96.4265035   5.6506634
  45.3444628   3.2605116   3.5604095  44.9322943   4.0674250   3.2517910
  45.9840254   3.0436318   2.8820610  95.9277106 104.5171283   0.8622646
  95.3172684 103.8040374   1.0495949  96.5748692 104.1298030   0.2728653
  50.8919768  13.4265225  31.9898605  51.5316634  12.8742545  31.5403843
  51.4074759  13.9187710  32.6287556  73.1631708  70.5752182  87.3435783
  72.7394819  71.3720274  87.6626682  72.7353001  69.8671675  87.8250599
  14.9792485  58.9191907   8.2268238  15.7737975  58.8590424   7.6964474
  15.0897507  58.2484238   8.9006901  50.0729041   9.7585909  34.8379707
  49.3314128   9.8022263  35.4417229  49.8844580   9.0029662  34.2814159
 102.5699473  62.6853548  22.3118019 102.4478579  63.4453677  22.8807545
 101.7989493  62.6845054  21.7445278  97.9058409 101.6659235  43.9878273
  98.2847691 101.1249660  44.6806526  97.0446683 101.9156145  44.3228817
  90.3552533  94.7390054  54.1165638  90.5033494  93.7994550  54.2240143
  89.7514916  94.9686311  54.8229504 111.0844136  79.4434999  48.2768631
 110.2677775  79.4128822  48.7752628 111.4803172  78.5826586  48.4126759
  10.5376439  12.2216790  26.0577011  10.5637126  12.2865718  27.0123386
  11.4494424  12.3256438  25.7855797  11.6571622  14.9803202   2.0115185
  11.5735440  15.8817427   1.7005825  11.2222390  14.9797671   2.8641987
  80.5978966  57.5097990  80.6897354  80.5175114  58.2629299  80.1044464
  80.1659775  56.7953730  80.2214718  57.3895316   1.6932576  11.9721603
  58.2152228   1.2651007  11.7459965  57.6136450   2.2789090  12.6953602
  99.2966271  89.9250482   2.0423985  98.5998917  89.8862289   1.3872051
  98.9573241  89.4223164   2.7829170  44.4925742  12.0935671  14.6733093
  45.2764182  12.3348467  15.1668739  44.3044619  11.1956732  14.9464893
 110.2028061  25.8161442  21.2036705 110.9069897  25.5050843  20.6348133
 109.5395113  26.1530583  20.6013775  32.7458815  14.7273200  37.7492237
  31.9188790  14.4297068  38.1283379  32.4861769  15.2993434  37.0270252
  72.9641772 100.7936452   7.6826668  73.1797386 101.2108825   8.5167408
  72.6221085  99.9335359   7.9264641  58.0656485  15.3315108  48.1808472
  57.7253585  15.5017226  47.3025131  57.3256354  15.5059664  48.7623787
  21.4679055  46.8445962   2.8301716  22.2410063  46.7622273   2.2718143
  20.8121924  46.2838833   2.4155808  20.5681205  51.4483643  88.1649876
  20.0097609  50.7949686  87.7436352  20.1742864  52.2881794  87.9286861
  97.9657746  97.5946544  33.7718868  98.9068652  97.5408910  33.9383125
  97.6714564  98.3376907  34.2986774 108.1610347   3.7295859  19.5024967
 107.8501107   4.5222895  19.0652561 108.9050342   3.4407179  18.9740562
  86.9605828 102.4309133   0.7966900  87.2514296 102.4145149   1.7084789
  86.0192729 102.2633623   0.8424950  13.3308081  10.3821461   1.9045258
  13.4509806  11.2726538   1.5747070  13.9210419   9.8481267   1.3728523
 101.9544554 104.7247528  43.9404106 101.7230130 105.1184915  43.0992031
 102.1482993 103.8108801  43.7318707   2.4155311  10.9179251  14.9506569
   1.8308572  11.6758053  14.9530315   2.0071177  10.3022616  14.3420601
  23.3169369   0.6987469  25.4824924  22.3877101   0.8191722  25.2868843
  23.4460454  -0.2493770  25.4575062  86.4138317  69.2251921  83.0874157
  86.8783760  70.0574446  82.9992104  87.0569229  68.5637140  82.8322601
  12.1047501 105.3445409  31.6196156  11.9803814 105.7129644  32.4942780
  12.9932979 104.9888538  31.6336632  59.9625544   5.6239884  28.6914635
  59.9888281   5.8756201  29.6146202  59.4904380   6.3374179  28.2620907
  16.1919263  75.3403187  90.6411934  15.6706670  76.0829353  90.3361702
  15.5494741  74.7277069  90.9992313  71.4801645  48.7825060  85.0342369
  70.7598543  49.0545368  84.4655609  71.2808752  47.8725719  85.2545357
  84.6512318  48.4412479  75.0497723  85.3245640  47.8096533  75.3026199
  83.9377975  47.9050970  74.7036695  48.2202105  40.2915852  29.4316292
  48.3123068  41.0265439  28.8253403  48.3815913  40.6717484  30.2951431
  94.7853185  17.4694531   8.5339451  95.1755287  17.2177737   9.3709850
  95.5014874  17.8804104   8.0497551  14.3715434  29.4337838   3.1217289
  14.0183453  28.7855904   3.7310982  13.7742476  29.4101231   2.3741341
  30.3402142  19.6863692  44.3784428  30.5457310  18.8212960  44.0239811
  30.0179104  20.1830046  43.6263180 111.1718941  86.9832443  25.4805756
 111.8810845  86.4409302  25.8257961 110.6937981  86.4034031  24.8877525
  16.4539866   4.4759839  25.8323956  17.3051076   4.5747845  26.2590885
  15.8205800   4.5180314  26.5488148 101.0049010  97.9342149   6.6476727
 101.1619378  98.1579708   5.7303429 100.9562064  98.7789034   7.0952892
 107.4785377  19.6015256  33.6671638 107.6764752  18.8479416  34.2231846
 108.1867887  20.2211135  33.8424492  56.1172442  19.4776194  20.6937027
  55.2024989  19.5417016  20.9682369  56.4487795  20.3735297  20.7541752
  95.4730988 102.2374128   7.6555252  95.3323413 101.3611864   8.0141926
  95.9932280 102.6878809   8.3209419  43.6103873  30.2037900  11.5346432
  43.7674956  30.7117932  10.7387161  44.1063170  29.3954651  11.4046574
  64.2527156  25.2739756   7.8268147  64.4990306  26.1976235   7.8761959
  63.9040236  25.0723260   8.6951351  43.2337141  34.7005749  80.0860691
  43.8290358  33.9953351  80.3399563  43.8098812  35.4313684  79.8620129
  16.3320307  41.8149178   3.5214520  15.4144435  41.5838711   3.3769512
  16.5295939  41.4764207   4.3947315 109.2970801  87.4575971  39.1191769
 108.8067342  88.1649684  39.5380020 108.8360453  87.3019694  38.2948780
  85.8909278  12.8886550  36.7151260  86.6068701  12.4324601  37.1573353
  86.3174395  13.6056702  36.2458515  59.1506529  69.1407061  90.4383945
  59.4182444  69.4739580  89.5818996  59.0435982  68.1987524  90.3061104
  96.2613822  73.6348199  53.5305214  97.1232129  73.2217406  53.5838985
  95.6637049  72.9161905  53.3241463  53.8816071  63.2715845  86.8852901
  53.6087751  63.7079287  87.6923847  53.5256577  62.3861408  86.9596100
  41.1765818  13.0694287  26.6178989  41.0226922  13.9592307  26.3004112
  40.3810362  12.8466933  27.1013641  56.8477683   3.5883515  56.8142414
  57.4423556   3.1503384  57.4232101  56.1640505   2.9414885  56.6400623
  52.0796013  29.0799165  72.3236799  52.9329205  29.3748283  72.0057011
  52.2315931  28.8515306  73.2407236  61.2414412   2.6137536  30.1007462
  61.1371665   2.3974650  31.0273361  60.3661017   2.8764241  29.8161316
  14.4030575  75.6582259  29.5109463  15.1762489  75.9898685  29.0544128
  13.9461044  75.1306032  28.8559341 111.4633776  15.9217351   9.1598415
 111.9321753  16.3772004   9.8591423 110.6009962  15.7357638   9.5312595
  81.6267967  28.3016300  88.1799889  81.2573719  28.9798641  87.6145172
  82.5613689  28.5048723  88.2186413   7.9603676  93.4403108  50.5480385
   8.7346367  93.9541648  50.3184795   7.8710464  93.5515808  51.4945507
  66.8511347   1.3175719   9.1060066  66.0322432   1.1463635   8.6408901
  67.2448496   2.0522015   8.6353207  74.8638535  62.2767830  61.9641829
  75.8081532  62.2239542  61.8167353  74.7761345  62.7670145  62.7816248
  14.5739464  98.2409547  12.0740509  13.6949161  98.0425476  11.7513084
  14.7859291  97.5109790  12.6558018  34.6408324  20.1155608   0.5320072
  34.3761592  20.0993960   1.4517403  35.5168109  20.5013173   0.5416012
  24.7278504  14.4134610  28.9475060  24.6254401  14.7335570  29.8437691
  25.4049496  14.9741547  28.5688305 111.2383939  89.0502452  43.5711002
 111.1580086  88.4341954  42.8429127 110.4926873  89.6414589  43.4680843
  23.6550860  27.0241110   7.9066944  23.7454753  26.3697522   7.2139549
  23.4089665  26.5196459   8.6820412  75.7676601  50.6138754  75.4786968
  75.4330063  50.8688259  74.6189070  75.7984543  49.6576071  75.4498005
  47.7727891 104.7941564  12.8742790  47.0781309 105.4158186  13.0915642
  47.9424454 104.3286775  13.6932945  23.6247352 103.0742525  32.5446892
  22.8008179 102.5967048  32.4480724  23.6592296 103.3071016  33.4724903
  78.3885098  79.9270630  84.5114040  77.4901295  79.6648884  84.3103790
  78.8645601  79.1014957  84.6010876  70.3959179  81.8061352  80.4857826
  69.6816254  81.1694050  80.5100918  70.8193588  81.6588688  79.6400547
  54.0828089  24.5766537  47.1723747  54.5056681  23.7727158  46.8705463
  54.1134410  25.1620381  46.4156532  52.4863009  20.6268351  25.3773499
  51.5790324  20.7358496  25.0923538  52.9317622  21.4143508  25.0649261
  21.0426334  98.2762312   3.2665157  20.6546978  99.1407179   3.1308365
  20.3971485  97.8039001   3.7923336 110.9506130  90.4438686  88.7882042
 110.2414322  89.8161983  88.6491966 111.6485691  89.9304390  89.1950130
  24.0994649  14.3076460  34.2458534  24.6462445  13.5666936  34.5071125
  24.3199687  14.4555133  33.3262062  22.0865111  33.9553540   8.3805943
  21.8770699  33.7112897   9.2821503  22.5923304  34.7638409   8.4626770
  96.1008930  41.5425968  80.4001522  95.7998085  42.1665049  79.7396040
  96.8439198  41.0997343  79.9902630  43.2652807  42.9908514  72.2939634
  42.7862692  43.7403965  71.9404602  42.5880051  42.4316072  72.6744604
  32.3008636  84.2853068   8.7948132  31.5620808  84.8842643   8.6867428
  32.0339397  83.7013911   9.5047569  31.8221049  16.6780179  31.5408897
  31.7213254  15.7393401  31.3828945  31.0482745  16.9196694  32.0498371
  19.2016081   0.8284705  19.6208382  19.2166094   0.2628510  20.3928947
  20.1196007   0.9018080  19.3597794  44.1438727   4.7359555  19.0068340
  43.4259181   4.1036646  18.9753914  43.7634520   5.5472319  18.6701679
  71.4966631  33.6158419  81.2374210  71.3357878  34.5477319  81.3855076
  72.4486685  33.5453463  81.1671066  42.3043732  41.7704861   8.6879826
  42.4336390  41.3385861   7.8435993  42.2887664  41.0546582   9.3232536
  78.6398364  93.6035131  29.2207813  79.2933942  94.0289997  28.6657524
  79.1530848  93.0896066  29.8442459   6.4330963  86.8742369  34.1338158
   5.6162933  86.3925766  34.0031910   6.8061546  86.9556378  33.2560730
  81.8224716  64.1707325  82.8555107  80.9156704  64.4500637  82.9817104
  82.1736813  64.0895319  83.7422371   6.0491184  90.7922362  48.3498764
   6.7825607  91.1377739  47.8410530   5.9125141  91.4386390  49.0425015
  47.1522188  52.5667858  87.0869160  46.2734795  52.5736046  86.7074299
  47.6596689  52.0001793  86.5058041  67.7152681  65.4564619  60.8520126
  67.7097130  65.9245777  61.6869164  67.6115942  66.1421776  60.1922607
  96.0585499  78.0899096  81.9891834  95.7104301  77.4718237  82.6318550
  96.2074757  77.5615931  81.2050056  41.2550978   0.7269137  77.7654266
  40.3950553   0.8504241  78.1670570  41.2738757   1.3535636  77.0421028
   8.3323006  80.9445690  20.4481316   9.1722778  80.6920622  20.8314133
   8.2037929  81.8507050  20.7285595  33.5127643  94.8988412  17.2489262
  34.2099003  94.8481821  17.9028797  33.7713150  95.6229757  16.6788197
  85.7019711  84.8668194  86.5517998  86.3344574  84.1498852  86.5987587
  85.7530212  85.2878475  87.4099159  92.5807381  70.8293056  73.5110521
  92.9108238  71.7273235  73.5399437  93.1582642  70.3427982  74.0992785
  87.5505639  98.1387447  44.6953869  86.9853402  98.4554981  45.3999615
  87.7006675  98.9072918  44.1448975 108.6359883  80.5396436  15.5539417
 108.0215264  81.2689565  15.6362343 108.2299186  79.8274230  16.0479832
  65.3718042  22.6689792  80.5075836  65.4280806  23.6161280  80.6339741
  64.4337702  22.4797034  80.5297375  55.4103041  64.2648411  83.6604404
  55.7160616  64.1261053  84.5568275  54.4806433  64.4727230  83.7539673
 110.0426914  51.4300530  33.3656788 110.7720996  52.0394890  33.2525921
 109.5118429  51.8182747  34.0611744  93.3851672  92.8122257  24.6549416
  94.1742373  92.2784947  24.5615006  92.8273297  92.5449418  23.9244461
  26.3512902  22.8619521  11.3579178  25.7869630  23.1968396  12.0547867
  26.3919024  23.5740798  10.7195950  30.8071904  18.8038056  16.8583012
  30.0186448  18.9519112  17.3803043  30.6735949  17.9430239  16.4615154
  69.2697049 100.6506275  13.1490707  68.6985827 101.1958240  12.6079559
  69.5818258 101.2392257  13.8363647  26.0556130  18.8350384  19.4291019
  26.9450335  19.1011756  19.1960144  25.4906373  19.4012015  18.9032745
  93.9356327  91.8094826  90.3891850  94.6176243  92.2754765  89.9054909
  93.9416885  90.9260941  90.0206470  22.4052386  63.0119031  18.6836815
  23.2998233  62.8016751  18.4158134  22.4799637  63.8579266  19.1251564
  34.4867186  21.8022387   7.2679138  35.3778510  22.1004479   7.0857430
  34.6020655  20.9912865   7.7631664  74.0937285   0.7921546  10.1573467
  73.2951312   0.7531970  10.6836128  73.9098887   1.4550822   9.4917965
  52.4422125   0.4991810  27.3850060  51.9367938   0.0017159  28.0278969
  51.7980914   0.7678883  26.7299271  92.0251751  42.4782085  78.3176613
  91.4893532  43.2061815  78.6325979  91.4756393  42.0398617  77.6679754
  18.2719140   8.9422553   5.1137733  19.0435080   9.2610781   5.5819893
  18.6207204   8.5651629   4.3060780  64.4183064  63.1683016  86.1605072
  63.9133835  62.8925085  85.3955078  65.3180599  62.9112816  85.9589863
  99.4450713  81.7736958  28.7805939  98.9850951  82.3595093  29.3818188
  98.8359404  81.0489462  28.6394215   6.3838581  78.7071656  34.9315548
   5.5104832  78.6714862  35.3216457   6.3795475  79.5081233  34.4074535
  11.1577706  34.3349450   6.8572521  10.5275921  34.1761391   6.1544704
  10.6292824  34.3441765   7.6552773  42.6347594   0.6234400   2.8853703
  43.4307055   0.1343386   2.6768398  42.8708987   1.1512416   3.6481857
  74.8640180  94.7479509  13.0830383  75.0670815  94.5192312  12.1760178
  74.0362144  95.2256130  13.0300236  85.2540494 103.2574152  17.8177261
  85.0931979 102.5837492  17.1570206  85.3644658 102.7704404  18.6343670
  49.3233161  30.6538861  25.8583450  49.9308924  31.3602727  26.0776711
  48.8342337  30.9840005  25.1046562  53.9293051  23.6114597  75.7013369
  53.3569336  24.2894220  75.3421831  54.7426844  24.0707469  75.9103966
 109.3199779   6.7117112  13.3239174 109.9252917   6.8462174  14.0531254
 109.6738864   7.2505276  12.6163483  20.8759122   2.8393786   4.5445633
  21.5047841   2.1915667   4.2266083  20.0842099   2.3340743   4.7292423
  83.3385754  87.2356701  80.2572441  82.4017715  87.1139431  80.4115486
  83.6635399  86.3588619  80.0527096  55.6515169  45.6025028  86.9411564
  55.5314255  44.8977804  87.5776863  54.7976542  46.0327721  86.8962479
  71.3442469  87.2964478  85.9041119  70.8746195  87.9917049  86.3648701
  71.1749649  87.4664593  84.9774647  28.8741927   1.2810605  29.8069191
  28.2691626   0.6808131  29.3711758  28.3498530   2.0616238  29.9858665
  53.4909821  23.9093113  89.8580647  54.3340540  23.5282207  90.1034832
  53.0847025  23.2498884  89.2956257  56.4808512  63.8125420  86.2205029
  57.0003843  63.0086040  86.2195015  55.6543636  63.5630941  86.6339397
  68.3221054  38.6682749  76.7585993  67.3746538  38.7347078  76.8775892
  68.4732008  38.9740467  75.8642244  85.2783637  38.6817258  25.5126572
  84.8528437  38.0646889  26.1079884  85.5878691  39.3875401  26.0803318
  80.2000952  74.9390935   7.3554707  80.4827405  74.2509054   6.7531872
  80.1007367  74.4946145   8.1973743   6.3429264  99.9459623   4.0604687
   5.7683948 100.4879879   4.6011543   5.8205799  99.7435592   3.2843113
 106.5897370  75.1391791   3.2003117 107.4472190  75.5360125   3.3535576
 106.4664508  75.1938079   2.2526550  12.9058461   0.4486363  21.2303543
  12.1337657   0.5557482  20.6747913  13.3433346   1.2994378  21.1990643
 109.6013213 102.3269199  42.8278637 109.4699765 102.0882486  41.9102478
 109.8648549 103.2467245  42.8007412 109.1021253  14.0779822   3.7400723
 108.4606625  13.5715239   3.2418156 108.6951901  14.9372904   3.8506413
  10.7236389  89.1293357   0.5896187  10.0315002  88.8297104   0.0002098
  10.3587154  89.0120958   1.4667225  68.8088469  10.7100003  15.2092171
  68.4996657   9.9682801  15.7293129  68.0091719  11.1355488  14.8999214
   2.5544599 104.4810365  37.0014000   2.6113228 105.4358123  37.0388412
   3.4613089 104.1839717  37.0763206  35.7257942  99.0518545  28.4901333
  34.8438648  99.1580127  28.1335354  36.0560898  99.9455284  28.5822105
  17.8288178   8.6432736  47.0940781  17.5012402   8.5232108  47.9854298
  17.1936278   9.2291396  46.6823483  98.6265564  62.0993662  64.8138142
  98.3965302  61.2520266  64.4325876  97.7845287  62.5141478  65.0013351
  42.4500470  14.7429268  14.5710373  42.5903563  14.5449059  15.4969597
  43.3205371  14.6796982  14.1779995  94.5549132  16.1167996  33.9648056
  95.4727222  16.2704175  33.7406254  94.0868808  16.2097781  33.1350327
  52.5892214  12.4806254  28.4289169  52.9707198  13.1155770  29.0351582
  52.9928641  11.6468518  28.6699963  59.8462348  23.6408227  11.9671535
  59.0234332  23.1848090  12.1440220  60.4961829  22.9420512  11.8928719
  16.3787655  28.4397786   9.3018055  17.0931487  28.0282204   8.8154888
  16.7833142  28.7352460  10.1174450  19.2626338  13.2362931  59.8640347
  19.0573983  12.4498742  60.3696537  18.4148984  13.6572116  59.7211838
  29.8540358  37.9815953   2.9472733  29.4769292  37.4604218   3.6560726
  30.7840590  38.0444424   3.1648350  95.1454974  94.4644569   6.4079094
  94.1884566  94.4481538   6.4013195  95.3679419  95.3280042   6.7558002
  99.0129375  50.4402494  84.5095158  98.7734890  50.1294518  83.6364174
  98.2073498  50.3626966  85.0206470  12.2664313   2.6408475   9.1135216
  12.0844893   3.5799019   9.0774345  12.8632645   2.5408452   9.8551559
  24.3013816  11.2845652  33.3112335  23.3687691  11.3138096  33.5247898
  24.3560080  11.6463225  32.4267101  50.2169947  13.0121319  21.0339642
  49.4632010  12.6820653  20.5449867  50.0726847  12.7085631  21.9301987
  72.3384285  74.9508715  70.6908417  72.3323488  75.3657436  71.5534401
  71.4903402  75.1782799  70.3097105  89.1301250  84.5964909  77.5093842
  89.0963840  85.5410480  77.6607466  90.0606060  84.3784142  77.5630188
  36.0251288   3.4468119   6.6133690  35.8377890   2.9017871   5.8491135
  36.9697146   3.5968058   6.5748405  11.0573964  30.1310055  32.1958256
  11.6672330  30.1125901  31.4582634  10.3044943  29.6211045  31.8968678
  18.0161957   3.8252585  13.6862946  18.3422331   3.5042946  14.5270729
  17.2314458   4.3260186  13.9090824  81.0023594  67.4121475  80.2432156
  80.6218147  67.4634886  79.3664169  81.5438461  66.6230774  80.2234745
  75.4889704  85.2490948   1.9321346  75.8676649  84.6112870   1.3271332
  74.5909310  84.9467872   2.0676517 111.4198448  10.7342713   2.9539871
 111.1200882  10.5150025   3.8362026 110.6186391  10.7739823   2.4317551
  19.2863850 102.1384357  39.9264717  18.8850788 102.5069116  39.1394520
  19.4896988 102.8993963  40.4703808  47.9209185  84.6990967  67.7627897
  47.9131603  84.4390869  66.8416119  47.4934340  85.5554676  67.7735472
  70.2127123  47.1923828  82.1996975  69.2667007  47.3073387  82.1098232
  70.4745293  46.7301035  81.4034653   0.9373169  13.2958119  14.6323013
   0.4796843  14.1076176  14.4137192   0.3231673  12.8170722  15.1889515
  14.4690613  89.9110483  46.5894222  14.7769932  90.6494855  46.0639477
  13.5796455  90.1542948  46.8463421  31.3825230  91.6195749   5.3471184
  31.3017181  91.2054275   4.4879437  31.9198421  91.0125207   5.8560371
 110.2500249  62.7232681   7.1621227 109.9053765  62.8985463   6.2864971
 109.6811009  63.2227443   7.7478600 109.1113187  88.6124371  29.8622608
 109.4906522  88.5909127  28.9836979 109.6147919  89.2828034  30.3241634
  34.5322327  11.3536255   4.2899036  35.1958470  11.5900796   3.6418819
  34.0291361  12.1572201   4.4217110  82.8934182  19.9878924  27.6520634
  82.0227046  20.3710930  27.7581024  83.4018297  20.3430550  28.3811760
  54.0959930  20.8226967  74.9346781  54.0850782  21.7678785  75.0854874
  54.0792656  20.7319617  73.9819384  77.5361205  78.8222669  15.5063057
  78.3376075  78.6054491  15.9825897  76.9527889  78.0810236  15.6691456
   3.7869028 104.0107559   9.7423458   4.0191273 104.8782610   9.4110775
   2.8835014 103.8785528   9.4549179  61.7882300  98.4642528  41.9418812
  60.9109998  98.0879091  41.8707085  62.2846390  98.0497907  41.2361622
  92.6125050  15.6329012  86.1320305  93.3177090  15.6856930  86.7771149
  92.2294903  14.7660053  86.2662888  50.9979777  40.1389115  27.4468708
  51.8258242  40.6185238  27.4174500  50.3256564  40.8178990  27.3904419
   9.9462704   6.0758059  22.8901482  10.1528458   5.1882928  22.5970936
   9.3178324   6.4007466  22.2453880  11.1809544  77.1842168  31.5988922
  11.5964989  78.0057238  31.3368225  10.7391266  76.8762039  30.8076000
  14.3048596  52.3416233  77.6782846  14.7494268  51.6660547  78.1903410
  15.0142181  52.8636885  77.3034620   4.5907358  84.7813319  33.8545799
   4.2127375  84.5319174  34.6978760   5.1542238  84.0447949  33.6174583
   7.7359728   9.6969454   0.5037308   7.4623160  10.3288405   1.1686039
   7.0531563   9.0262311   0.5153084 110.8823920  77.9314993  34.8061466
 110.2747107  77.9971074  35.5427933 111.1738206  78.8306807  34.6552467
   1.8441776  99.3689655   4.6347618   2.2781137 100.0313448   4.0970039
   1.5257410  99.8510526   5.3979301  17.7409080  66.9948314  29.9933434
  16.8129639  66.7995320  30.1237774  17.8671745  67.8471969  30.4101944
   9.7396282  88.4481238  26.8706608  10.6015018  88.1593512  26.5706539
   9.9168114  88.9342641  27.6759529 100.5210781  74.6279430  86.1176682
 100.1206970  74.2110586  86.8806553 100.7497978  73.9001417  85.5395508
  85.3678513  68.3968973  85.8959770  84.6679783  69.0202570  86.0904789
  85.5459023  68.5199547  84.9635696  95.9158230  74.4348478  59.6559763
  94.9727440  74.5787334  59.5777512  96.1326981  74.7416019  60.5363750
  16.9238523  49.9624252  75.8011770  17.7736619  49.9021101  75.3648090
  16.8244508  50.8925009  76.0044289  45.1981883  24.7570365  30.1251316
  45.5844359  24.6839087  29.2523766  45.0654845  23.8513272  30.4049778
  60.2473545  53.1751871  85.9678173  60.5304718  53.1700706  85.0534534
  60.5725241  54.0060043  86.3145828 111.1484099  89.3443488  23.3486462
 110.7554961  89.2904519  24.2198181 111.9090892  89.9138545  23.4637928
  28.8497642  96.6593145  18.1284237  28.9974693  97.4942564  18.5725880
  29.7280697  96.3369297  17.9262161  41.2118439 103.2300399  20.4118443
  41.2562374 103.7360786  21.2231350  40.2837948 103.2341741  20.1774597
  56.9944704  99.3970226  52.8721523  57.7788878  98.9862417  53.2357216
  56.6894139  99.9845193  53.5635471  15.3166108  50.9090893  13.5815620
  14.4060712  50.9704583  13.8703156  15.2630381  50.5547135  12.6939869
   2.1641067  81.9208215  32.2167683   1.2628178  81.6316603  32.0743179
   2.2540430  82.7021383  31.6711617  17.6736550  21.8670266  35.6551647
  17.1718650  21.4252465  36.3401985  18.5729365  21.5659278  35.7850456
  36.7254595  35.7918255  62.1631527  37.1205477  36.0996239  61.3474369
  35.8021788  35.6604664  61.9474506  71.3469653  11.3741343  43.7872601
  71.4682059  10.9872954  42.9201412  72.0542102  11.0041325  44.3155956
  32.7525715  22.2331040   0.8798790  33.2607417  21.5858071   1.3687611
  32.8132443  21.9466441  -0.0314331  19.6128754  36.1299889   1.1890030
  20.3397088  36.4053719   0.6303310  19.4054799  35.2437489   0.8926964
  21.4007142  41.3369703  82.1249199  20.8188680  41.7538595  81.4893913
  21.6912130  40.5337667  81.6928196  65.8296442  57.4772406  85.1902771
  66.7482805  57.4639034  85.4589081  65.7277918  58.3082962  84.7263813
  29.9459891  25.5413525  26.9000435  30.4627995  24.7358124  26.9157696
  29.2589001  25.3978531  27.5508499  15.2798133  25.1025908  15.9832096
  14.7325711  25.6596606  16.5367699  14.6579699  24.6303027  15.4295921
   8.9772800  86.8689488   6.6024113   8.3286861  87.5039600   6.9062424
   8.8410953  86.8215941   5.6561279 107.3670292  57.9668140  91.2266064
 107.5832367  58.0058146  90.2949524 106.6125584  57.3795652  91.2730122
  60.1190810   3.6549561   8.1275845  60.7591109   4.2714160   8.4833527
  59.3734126   4.2009966   7.8784943  17.7678112  98.3943199   7.1739960
  18.5375599  98.0042432   7.5881958  17.0259479  97.9310344   7.5628662
  62.0385742  70.0795889  83.0104923  62.3178577  70.3378201  82.1321106
  62.4074650  70.7497740  83.5858154   2.4634221  29.4059992  70.4870224
   2.5143960  30.3275752  70.2333879   3.3732751  29.1471624  70.6333065
  65.9232955   6.4695256   4.4252300  66.7256503   6.6693394   4.9074364
  65.2171950   6.7266410   5.0181389  24.7674660  62.8886675  33.0663967
  24.5224003  62.3525147  32.3122692  24.9732975  63.7460695  32.6939487
  80.9533076  29.3153660  26.3152027  80.0040869  29.4079297  26.3967133
  81.0914092  29.0573208  25.4038525  57.2446875  24.7759478  22.9508877
  57.3685317  23.8349908  23.0753613  57.1147303  24.8777669  22.0080376
  43.5931925  31.9657891   9.1680717  42.6629548  32.1913426   9.1639137
  44.0089755  32.6545899   8.6495113  48.1897406  22.7312176  31.0400105
  48.0512767  22.8659766  31.9775105  47.3998980  23.0818741  30.6284046
   6.6512971  46.3695614  10.4194832   7.4438338  45.8936875  10.1711750
   6.9444565  47.2713273  10.5502892  61.4936118  21.5956109  11.3327789
  61.7457060  21.3001483  10.4579163  62.1201090  21.1709588  11.9187832
  80.0626616  20.8176129  12.8949833  80.8340315  21.3842290  12.9079056
  80.3931956  19.9698060  12.5979900  85.0900702   9.9766677  43.4406853
  84.7388796  10.5338614  42.7461147  84.3546633   9.4195311  43.6956596
  55.5188803   1.6352599  28.3423042  56.2298064   1.8547719  27.7401161
  54.7360472   1.6160481  27.7918243  48.9534335  47.2334283  37.2118187
  49.3372492  47.0070641  36.3646603  48.4240203  46.4711945  37.4462605
  79.0273337  23.2574837   7.4784946  78.3104949  23.6676352   7.9623890
  79.2053466  22.4469035   7.9554653  22.7711301   0.2902119  16.0709095
  22.5361972   0.4866974  15.1640320  23.7270884   0.3365462  16.0861111
  57.0631079  42.6433842  32.3006439  57.8002410  43.2430070  32.1852016
  57.2316794  41.9343464  31.6800880   1.5015558  86.0088609  37.6612091
   1.3461546  85.1133512  37.3609734   2.4425939  86.1403679  37.5454903
  57.6885085   1.6233056  32.4882698  57.7887396   1.1732810  31.6494274
  57.5216727   0.9219210  33.1179237   4.4418862  94.7072506  75.7639551
   4.2188886  95.1991272  74.9736595   5.3875211  94.8216343  75.8584166
  21.0371880  24.0936940  43.2787991  21.7352252  24.0580695  43.9328003
  20.4884486  24.8281376  43.5539436  19.4727138  98.7692379  29.8457527
  19.0510467  98.0552839  29.3675327  19.4493774  98.4908889  30.7612896
  64.3383269  13.0941432  37.8120518  63.6521392  13.7582057  37.7457047
  64.8778395  13.2285540  37.0328903  84.3706608  69.4948244  88.6986542
  83.5586739  69.0890074  89.0023232  84.2292023  69.6431684  87.7636623
  60.3463579 102.2702716   2.0226097  60.0143743 102.3612236   1.1294460
  59.6039534 101.9277595   2.5203609  70.1865053  61.4688683  80.0088692
  70.8337784  61.3724470  79.3103218  69.5751905  62.1277714  79.6796703
  32.9851775  19.7652667  23.4065151  33.0860619  20.5539315  22.8735447
  33.8462548  19.6322720  23.8028622  60.2581935   4.3184035  13.2283211
  59.3675284   4.6240943  13.4000874  60.4866366   4.7081940  12.3844528
  35.5879979  13.3913367   6.6329575  35.0131135  12.7482455   6.2180233
  35.1143841  13.6642020   7.4187469  63.2620577  23.8522856   9.9866772
  63.1097273  23.9919608  10.9212971  62.4228243  24.0564578   9.5740795
  61.7879486  56.6329145  83.9841747  61.1304712  56.6319895  83.2885075
  62.3100328  57.4180698  83.8192558  70.8602290  22.7002757   5.8668518
  70.6892924  23.0519574   6.7405415  70.0156359  22.7500527   5.4191685
  25.1679282  23.8405554  47.6671791  24.6956639  23.3390563  47.0025826
  24.4959168  24.3822901  48.0808926  52.3181872  23.4567301   3.1131840
  51.4882617  23.7931006   3.4512901  52.2746424  23.6155217   2.1702480
  48.6074404  42.2577946  14.4601440  48.1569724  42.0143407  13.6514187
  48.0733733  41.8751900  15.1562881 109.0647221 102.8705095   7.4743843
 109.4777108 103.3089994   8.2182884 109.7190047 102.9144214   6.7770863
 107.8198528  58.4428501  77.9581738 108.6733341  58.8199902  77.7447128
 107.6433659  57.8302336  77.2441816  42.2519498  23.9731925  29.3858051
  42.7954726  24.5823329  29.8855591  41.4818387  24.4857257  29.1399002
 107.9547596  97.7617073  88.0737877 107.1651745  97.2842026  88.3283043
 107.8550434  97.9050732  87.1326542  46.8026309  12.2289889  24.1518497
  46.9430022  11.3114255  24.3855190  45.9202723  12.2495167  23.7813759
  18.6357550   6.9942038  34.9927044  18.4284310   6.2219231  34.4665527
  19.4338612   6.7555802  35.4642105 103.8446903  63.8523817  62.0323658
 103.9328957  63.0610037  61.5011644 104.4121552  64.4930601  61.6037130
  67.2561598  82.8073788  75.3948593  66.6386604  82.9353905  76.1149549
  68.0969143  82.6516819  75.8251286  35.8142094  52.9335301  17.7133179
  36.2624411  52.0881550  17.6877689  35.2514510  52.9297345  16.9390297
  10.7364039  53.1422989  39.4903278   9.9051098  52.6867573  39.3574142
  10.5754380  54.0314477  39.1745090  88.5700226  31.5554929  81.5261555
  87.9360294  32.0537925  81.0104179  88.1855106  31.5123558  82.4016666
  60.8816104  30.9899228  23.8904762  61.4050250  31.7856877  23.9854336
  60.7344489  30.9110825  22.9479504  45.6018786  30.2582924  63.2220364
  45.1105742  30.6793492  62.5166512  44.9374060  29.7992795  63.7358570
  77.9300785  77.9093409  79.0471506  77.0710468  77.5033760  79.1632843
  77.8443336  78.4263849  78.2461882 106.8043995  67.2870255  88.5621929
 106.7722797  66.8963051  89.4354248 106.9308758  68.2221556  88.7227154
  76.8413734  94.0252113  87.1559525  76.3753796  94.0085983  86.3200092
  76.6776276  94.9017048  87.5040722  21.0642102  42.0627308  69.6206999
  20.5837873  42.6901054  69.0804911  21.1293939  42.4848366  70.4773283
  82.2993279  60.1971817  78.1302214  82.2141743  61.1485195  78.0675077
  82.3553276  60.0231457  79.0698004  77.6275444  48.8873386  82.7568436
  77.1103716  48.9153671  83.5618114  77.5514793  47.9822731  82.4546814
 106.5043069  49.1046287   1.4689159 106.7025853  49.6543740   2.2270012
 105.5645180  49.2201035   1.3285637  -0.0425483  85.8189755  64.7168303
   0.0175022  85.0045115  64.2175579   0.2658796  86.4938694  64.1121626
  21.2284398  19.5294261  64.8203468  21.3660097  18.8413131  64.1693401
  22.0784044  19.6262479  65.2497816  98.7671281  57.0618521   5.0154495
  99.0287686  56.3736503   5.6271362  98.8874627  56.6713716   4.1498470
  21.5270162   1.2363763  68.7799549  21.9135165   0.9666231  67.9468393
  21.3742948   0.4165006  69.2497540  24.0000200  89.6784597  63.3794355
  23.2020425  89.1751796  63.5412121  24.2225789  89.4881850  62.4681234
 107.6482936  59.0998775  70.2152014 107.4948069  59.8470813  69.6369696
 106.9636222  59.1674167  70.8807039  78.9381552  44.4526009  16.7567444
  79.6708966  44.3575238  16.1482430  79.1376782  43.8447480  17.4687386
  24.0185189  14.1449857  47.7818251  24.3264079  13.6788476  48.5590982
  24.5949507  14.9062371  47.7150679  14.8212814  61.4355880  54.4361448
  15.5565213  60.9152537  54.7600412  15.1011371  62.3436290  54.5518160
  90.9076024  88.7171863   6.1329746  91.5363217  88.4299229   6.7951107
  90.0715256  88.7559150   6.5974140  73.4514356  83.1250881   1.9985008
  73.9143420  82.9777835   1.1737347  74.0030075  82.7082275   2.6604939
  26.4008832  27.0443535  75.1157856  26.5089464  26.1795783  75.5116701
  25.9951997  27.5732517  75.8027506  38.2878041   5.8973402  86.4167500
  38.2648993   5.6503212  85.4922581  37.4728584   6.3797241  86.5560341
 110.5527522   8.1620305   6.9612026 111.1735751   7.4346726   7.0031738
 110.0647332   8.1081002   7.7828789  62.6974487   0.7852288  73.0619812
  62.7442408  -0.1683156  73.1312323  61.8413258   0.9551094  72.6690149
 102.4603511  24.2926692   2.7198601 102.5528432  23.9490055   3.6084461
 102.1525336  23.5465287   2.2053242  96.6698886  53.1078709   0.6289291
  96.2273217  53.9500783   0.5238056  96.7091895  52.9745242   1.5759850
  73.6604071  26.4147782  91.0345840  73.0319309  25.7537103  91.3248253
  74.4895554  26.1474252  91.4311600  24.2366266  51.1455089  64.9789762
  23.5155915  50.5183440  64.9241352  23.9842700  51.7393571  65.6860065
 111.6215850  98.7361024  22.9644775 111.8886710  98.5105108  23.8555527
 110.8135558  98.2424425  22.8244114  39.9761772  20.0993466  35.8583999
  40.5399942  20.4266930  36.5592456  39.8610187  20.8486128  35.2739620
  22.9850721  82.7325636  90.0412273  22.1698379  82.6365190  89.5488834
  23.6694526  82.7407390  89.3720531  84.8883630  58.9416586   9.1579342
  84.8668385  58.0015980   8.9788914  85.6902076  59.2478739   8.7342453
  44.5387030  15.7336295  77.0374250  44.0588045  16.0295010  77.8109789
  45.4499578  15.9642208  77.2181845 108.1098910  98.2161575  80.4144955
 107.4088141  98.0596256  81.0471249 107.6746222  98.1868505  79.5624924
   5.8144473  99.6640950  63.0353546   5.0293254 100.0663489  63.4068441
   5.4840802  99.0786421  62.3539352  24.9010948  61.8936436  18.0179787
  25.4853825  61.3981210  18.5918236  25.4838756  62.3023980  17.3780441
 102.6803208  82.4767016  26.3476181 101.8131734  82.8424667  26.5222549
 103.2009221  82.7183841  27.1136379 104.8179675  49.9330671  13.9564514
 105.3111888  50.1751430  14.7402668 104.7258044  48.9821546  14.0156364
  46.0261554  79.7713755  14.3050671  45.6417275  78.9785336  14.6790314
  46.8527270  79.8814415  14.7750664  25.5124711  86.9935244  55.5465031
  26.2669324  86.4045578  55.5581331  25.8217525  87.7875823  55.9824467
   7.5262169  71.9785379   3.1883717   7.5394920  72.2470664   2.2697067
   8.0969051  71.2107931   3.2217598  27.7947664 103.3699777  62.2361326
  28.1301307 103.8468313  61.4769411  27.9635333 102.4495876  62.0345640
 102.8113747  70.4647659  22.4660683 102.0230246  70.9999608  22.5571728
 103.4992076  70.9772633  22.8908730  20.8100604 103.6990243  78.3063745
  20.0284242 103.5197259  77.7837563  20.5753707 103.4205591  79.1915894
  89.4587470  44.5100032   8.2814407  89.5784522  44.3272959   7.3494911
  90.0206519  43.8740949   8.7242889  53.2419253  43.7946479  21.1231232
  53.1822682  43.3698760  21.9788361  53.4097148  44.7153793  21.3239479
   3.2756904  71.5653585  22.2989941   2.7701858  70.8535896  21.9064617
   2.6546339  72.0106577  22.8753948  55.9896898  24.8160052  82.7238655
  55.8563805  25.5391192  82.1110344  56.5170288  25.1930356  83.4281349
  37.3812393  64.1985582  10.2753735  38.3317760  64.0863513  10.2646256
  37.0350269  63.3065199  10.3007030 100.9865952  70.4371344  15.7831764
 101.4154483  70.6159221  14.9463081 100.6025935  69.5671009  15.6744766
  89.7319413  29.8651861   8.6014175  90.5892087  29.9946426   9.0070820
  89.9293805  29.5455168   7.7210426  90.4767799  24.7741723  79.5748997
  90.4027271  24.7483850  78.6209154  91.0257530  25.5380464  79.7519636
   8.6586861  65.3638588  18.2304764   9.5813469  65.5799602  18.0954552
   8.2348732  65.5962466  17.4042797  39.8739958  30.2003264  66.7062044
  39.3087983  30.6227016  67.3530293  40.6434870  30.7672334  66.6539574
  90.1914693  54.5240054  18.0603695  90.6782294  55.0382716  17.4162960
  89.6981002  53.8913417  17.5382996  95.0213338  64.8421119   9.4619370
  94.2310143  65.0037097   9.9772167  94.7703744  64.1512834   8.8487434
  64.3043232  50.7811308  82.1901417  64.5500278  51.4920282  82.7821636
  63.4302521  50.5196095  82.4796867  97.7867413  34.3610655   9.6345520
  97.8456259  35.2500723   9.9844551  96.9353867  34.0418194   9.9337292
  25.5147624   0.4586175  75.6598568  24.9040461   1.0013601  76.1585426
  26.3638592   0.6102943  76.0749006  53.1229305  49.2847347  89.8202896
  53.3170414  49.7798157  89.0243912  53.9469337  49.2815924  90.3073502
  47.5428344  82.4962782   9.2449284  47.0688380  82.1781753   8.4765720
  47.4580086  81.7917417   9.8873234  52.5628233   4.9129891  56.2701750
  52.4423790   4.0484947  55.8772659  53.4535313   5.1648778  56.0264158
  63.4479213  65.7737135  35.6350708  63.7247754  65.3891193  34.8034000
  63.9183021  66.6060184  35.6824303 105.7982918 100.7074195  87.9470444
 105.8789154 100.0060135  88.5933876 104.8684379 100.9344500  87.9547024
  73.9780743  80.6042844  69.7656679  74.0996599  80.1801258  68.9162350
  73.0287292  80.6359154  69.8838854  51.8248606  25.2507353  74.3901253
  51.4657927  24.3634772  74.3813276  51.3039684  25.7263422  73.7430525
  78.4278155  45.6377058   7.5578022  78.1369353  46.5385209   7.4158382
  78.2702780  45.2004586   6.7210102 111.4689275 105.1227229  37.8685045
 111.4415594 105.4959212  38.7495303 112.3818751 104.8619038  37.7471280
  16.1869299  23.7166023  67.7475929  16.0471356  23.6210775  66.8054867
  15.4190469  23.3072734  68.1463861  98.8264275  95.5250333   6.4402008
  98.3973408  96.3615535   6.2603378  98.9460374  95.5165170   7.3898602
  36.6610694  19.2063999  87.2732353  36.3252878  19.8666871  87.8794575
  36.8083096  18.4335268  87.8184128  19.9872016 102.3472917  80.9234905
  20.1187944 101.4196774  81.1195660  19.4040679 102.6581037  81.6160011
  82.3720170  82.4105691   4.9953270  82.0788527  81.5273999   5.2196121
  82.5093127  82.3841141   4.0483952  10.5727581  72.5246225   8.5722637
   9.7519497  72.0836364   8.7914467  10.7619575  73.0713461   9.3348408
  89.7675706  55.8073913  32.7057552  88.9655257  55.5379887  32.2581196
  89.5385314  55.7961191  33.6350822  16.7741875  54.4458790   9.4916630
  16.5910057  54.3066837   8.5625267  16.2159637  53.8129070   9.9432945
  36.6556008  72.2712968   8.9502525  37.5951105  72.1383415   8.8242531
  36.2727042  71.4020227   8.8319969  67.3160028  41.9842052  81.3495827
  67.6818085  41.6166639  82.1541595  67.3212051  41.2552261  80.7292652
  85.3279972  26.8845439  85.5154324  85.4695034  27.5373578  86.2010288
  84.9067879  26.1521554  85.9653473  88.2676029  16.0254204  85.8745670
  88.5587597  16.5564573  85.1333141  88.3782005  15.1215017  85.5797195
  27.0930724   8.5178034  10.9695625  27.0075469   7.6870816  10.5017853
  26.5617184   9.1330426  10.4642200  89.8797274  65.9319626   1.4585209
  90.3626252  66.4806234   2.0765972  89.1220999  66.4613603   1.2095737
  39.6560478  12.8700364  84.5276833  38.7178683  13.0598927  84.5303535
  39.7367167  12.0683801  84.0108967  86.6557742  67.1299039   6.5704823
  85.9907962  66.6796623   7.0913696  86.9268323  67.8688894   7.1151447
  97.0319796  85.2319287  11.5010738  96.7427874  86.1395095  11.5954018
  96.2209082  84.7267507  11.4446068  79.9401570  62.7222179   4.0110779
  79.0029860  62.7466630   4.2043114  80.0129557  63.0915581   3.1310081
  60.1514721  10.4318464  74.8122215  59.9682617  11.3711953  74.8292303
  59.2885590  10.0188875  74.8450422  59.3885136  15.8736980  65.0008297
  59.5787048  16.0703933  64.0835667  59.4797325  14.9230742  65.0658369
  22.2953705  57.5148408  16.1346245  22.0622352  58.1821726  16.7800331
  21.8060211  56.7381360  16.4057350  86.3352776  77.4386595   5.2285194
  86.6956568  78.1573890   4.7091103  87.0972634  77.0442556   5.6528378
  75.8720804  73.2248877  44.3634415  75.4261637  73.7427519  45.0336742
  75.2342535  72.5563167  44.1135979  40.3435135   4.3165389  87.3341942
  40.8909845   5.0960666  87.4282455  39.4910407   4.6542794  87.0595074
   7.5447468  76.2029861  11.9359398   8.1453518  75.9845589  12.6485443
   7.2924045  77.1106909  12.1051312  79.7358366  86.0730046  74.0843058
  80.5340984  85.6383377  73.7841845  79.1825380  86.1225444  73.3047962
  78.6021853  70.0836228  32.7330112  78.9094401  69.1788219  32.6767826
  78.9626742  70.4081391  33.5582161  97.6508331  47.8391552  75.4234505
  98.3754063  48.0119181  76.0245943  97.4123287  46.9275141  75.5915499
  94.0013982  66.8263947  -0.0054264  94.5492745  66.1937045   0.4590797
  93.6478425  67.3886453   0.6838512  38.0930709  92.2436255  88.2499886
  37.8987073  91.3109952  88.3430195  37.5378370  92.6702636  88.9026165
 104.6616412  54.0967621  21.4039040 105.2710963  53.6638066  22.0016861
 104.3353511  53.3928882  20.8432484  98.7498999  67.9495107  15.7608414
  98.3368874  67.1560918  15.4200554  98.8811780  68.5013102  14.9897861
   8.9006809  98.5780977  28.7148190   8.3922390  97.9733823  29.2552280
   8.9548305  99.3784259  29.2370987  17.4117760  72.8332232  16.6157532
  17.4764923  73.2934617  15.7789612  17.0663170  73.4876155  17.2229290
  58.7396336  28.4944224  77.4892473  57.9097795  28.5861969  77.0211077
  58.6757946  27.6448560  77.9255819  35.7137732   1.0505002   1.5822601
  36.5099768   0.8164542   1.1052799  35.0070910   0.9104054   0.9520149
  72.4783874  91.0789345   7.3243237  72.7125717  90.2686213   7.7768517
  73.0413628  91.7449449   7.7189350  13.7842468  62.4460833   3.7848759
  13.9982418  61.8931757   4.5363617  12.9395298  62.8370939   4.0080357
   3.2901672  71.0652898   8.9878559   2.9100231  70.1981138   9.1283226
   4.2298273  70.9390734   9.1195202  54.0629482   8.8160050  89.2523098
  54.3885565   9.3431520  89.9819183  54.8265219   8.3214569  88.9546394
 104.7981406  23.6944913  12.2791290 105.2882529  23.0230163  11.8046379
 103.9959002  23.2531665  12.5581837  17.6833824  70.8776926   7.3380089
  17.9233364  70.2513801   6.6550827  17.6916984  71.7273973   6.8973637
  36.8268394  99.8463243  82.5452042  37.5026607 100.4942551  82.7444172
  36.5319251 100.0713974  81.6628170   3.8979280  42.5212622  87.9212856
   4.6863192  42.9687929  87.6140594   4.1794479  42.0522976  88.7068176
  75.5303574  21.5982342  69.4806862  75.0201893  22.3209620  69.8462343
  74.8921156  21.0766125  68.9940739  64.1450144  75.7516836   2.6562500
  64.6240187  76.5765070   2.5759220  64.6949173  75.2094625   3.2217884
  83.2297039  12.9617751  57.8511524  83.9949608  12.7847004  57.3041105
  82.5707436  12.3357022  57.5510883  41.2938833  14.3613911  58.2909203
  41.9364595  13.7509882  58.6524963  41.5125704  14.4161379  57.3606491
  49.7646523  37.4922609  65.1779032  49.9625444  37.9844165  64.3811274
  49.4074774  36.6615868  64.8638344  74.4192076  47.3502493  81.4186668
  75.2718449  47.0280790  81.7109871  74.0201044  46.6023254  80.9741879
  56.5721703  16.4707029  84.8118496  56.4458513  16.2895834  85.7432270
  56.0681963  15.7905304  84.3650723  76.1090804 100.6760381  40.0837326
  75.3751231 100.0816368  39.9280930  76.5509463 100.3149007  40.8522224
  23.6089138  97.1509622  26.9504929  23.9001087  97.9329132  27.4195194
  24.2918972  96.9946121  26.2983227 108.5350180  68.9432798   6.0721779
 107.7533103  69.0906762   5.5397892 109.2582083  68.9589988   5.4452991
  93.9734221  71.3891898  13.7364388  94.8087407  70.9517716  13.9011669
  93.4059287  71.0984431  14.4503403  22.3035721  90.8929204  12.9640007
  21.4253525  90.7981990  12.5952339  22.8829006  90.5126046  12.3037243
  60.1704025  10.5559683  89.5413780  59.4720936  10.4848766  90.1921844
  60.6061029  11.3830924  89.7469616  95.5682040  44.2240368  25.2653790
  96.0459424  44.9737065  25.6203270  94.8492051  44.0846031  25.8816814
  61.0854721  11.7547095  60.4530573  60.3383255  12.2840798  60.1741791
  61.8375206  12.3416293  60.3744268   8.8783502 101.5461489  71.7159748
   9.7003984 101.8060541  71.3001394   8.9763307 100.6072056  71.8741417
   1.4957146  91.1900591   1.3636971   2.3188833  91.5791486   1.0683537
   0.9632687  91.1254762   0.5708790  63.4516884  72.7493046   8.0842400
  62.6987530  73.2630347   7.7919960  63.2113958  72.4496006   8.9609718
   1.2672142  65.2836238   8.1913948   0.4534582  65.5922316   8.5898876
   1.0870985  65.2797102   7.2513008  38.7089109 102.7326420  77.5258636
  38.6245059 103.1194907  78.3973312  39.6529102 102.6487413  77.3914623
  81.1959983  81.9944810   9.0820599  81.3284827  81.2163590   8.5405731
  80.5361892  81.7305254   9.7233200 106.5322543  79.0632962  13.8178253
 107.1426249  78.5091542  13.3314037 107.0917178  79.6029328  14.3764114
  39.7705049  99.5708488  31.4449024  39.2106505 100.3268694  31.6216087
  39.1600401  98.8430093  31.3273716  56.0044527   7.2448677  60.3127861
  56.1399603   6.3001597  60.3862476  55.0592566   7.3430359  60.1978922
  56.9836903  43.5710335  83.6224651  57.4169493  43.9477205  84.3883801
  57.1638870  44.1913748  82.9161167  84.0464688  98.8795255  12.4153042
  84.8187924  98.9652990  11.8563747  83.9603377  99.7341989  12.8376198
 102.1073867  41.7488586  20.2375984 102.6856900  41.7362522  21.0002518
 102.6398326  41.3907515  19.5273304  75.4017878  34.7533488  91.4057636
  74.7958660  35.4940343  91.3839722  75.2754545  34.3157029  90.5638981
  97.1002532  82.0738314  12.4219990  97.7921725  82.6135872  12.8042889
  96.8415786  81.4809583  13.1275654  20.2120403  53.4209212   1.6465473
  19.5237926  52.7754715   1.4854717  20.9205822  53.1683204   1.0546112
 108.5459376  35.6567298  38.7933922 108.0233002  36.4509164  38.6822701
 108.3095551  35.3341793  39.6630573  69.4665098  19.1488826  85.9884262
  70.2006769  19.3304229  86.5751743  68.7646818  19.7209871  86.2988567
  43.0351686  29.0170598  91.0751438  42.4425793  28.6789083  91.7465019
  43.7168598  28.3494210  90.9990788  67.5365686   0.9005968  78.2810020
  67.1435404   1.0886817  79.1332817  68.0884027   1.6611600  78.0986357
 109.8907901  82.2283648  18.3144188 109.3883038  82.4034976  17.5187683
 109.2277623  82.0873355  18.9902496 101.3991404  34.8214887  25.4884434
 102.1841813  35.0813268  25.9705544 101.1994315  35.5744909  24.9322701
  47.5945091  20.3630853  87.2054005  47.4155951  20.5833077  86.2912178
  47.7355814  19.4163513  87.2005081  83.4549999  17.3562217  71.3803291
  83.2802486  16.4179754  71.3069010  82.5888443  17.7632749  71.3626194
  83.4551430  74.3671034  13.2609463  82.7170373  74.1780280  13.8403320
  83.6514426  75.2909039  13.4168053   4.6851591  95.7178138  10.7341099
   4.3182281  94.8359750  10.7969379   5.5866722  95.6246160  11.0420322
  55.5123663   3.2958055  67.5049257  56.0275078   4.1017371  67.5414419
  54.7453308   3.5253876  66.9803476  98.8921214  64.4662808  42.4667168
  99.2345525  64.2087291  41.6107655  98.3422375  63.7305044  42.7359676
   2.9711484  94.9648505  65.2173138   2.5982093  95.7847935  65.5411100
   3.3381032  95.1897782  64.3623400  86.3112069  36.8778978   4.8471832
  87.1451140  36.4107512   4.7961617  85.7027388  36.2414800   5.2226543
  52.0412648  74.6068882   5.0711536  51.9483317  74.7965239   6.0047627
  52.3036314  75.4412364   4.6822357  69.0559841  54.4701621  13.9789295
  69.8350549  55.0136793  13.8611698  68.3282829  55.0351440  13.7191677
  49.3776082  92.8430670  78.9312458  48.8119649  92.5261169  79.6353960
  49.0831613  92.3669463  78.1548166  87.2923947  77.4411892   9.1470242
  86.3437415  77.5283979   9.2402077  87.6246072  77.4673413  10.0443459
  97.8677464  37.6843047  83.3288288  98.0075169  38.5956478  83.0716419
  97.8667259  37.1999049  82.5032520  69.6377993  80.8728479  36.9702244
  69.8690987  81.7994212  37.0349789  68.8049651  80.8007287  37.4365044
  64.8690557  22.9815817  77.3845577  65.7788610  23.1102300  77.6527643
  64.5015526  22.4039125  78.0534887  56.5055180  28.6344266  75.7533932
  55.6712389  28.9584756  75.4139757  56.8081713  28.0127859  75.0914288
  85.7288456  16.6964662  85.3756428  86.0163307  17.5222206  84.9861336
  86.4740753  16.4079046  85.9025097 103.2016135  74.0788935  28.7240410
 102.6525069  74.5606564  28.1054783 103.5101987  73.3196949  28.2294464
  69.0374565  15.5492830  72.2463322  69.4722843  14.8489881  72.7328968
  69.1885042  16.3352501  72.7713776  87.5504065  69.1222321  14.2016888
  87.2034693  68.9400803  13.3283710  88.0407000  69.9379276  14.0992928
 110.9611321  59.5618664   3.3440304 111.4095879  59.9785172   4.0799141
 110.0423051  59.8066800   3.4538174 104.5573283  46.0543822  18.2862473
 105.0827218  46.7871361  18.6075974 104.0671111  45.7568775  19.0526676
  61.8871523  78.6701869  46.9608021  61.6333771  79.4598816  46.4830875
  62.7732206  78.4787034  46.6534710   4.2686657  58.0683921  41.6709137
   3.7175945  57.8969477  42.4345684   4.9940828  57.4496158  41.7552567
  35.9943342   9.9629313  58.8475943  36.1017156  10.4801428  59.6458387
  35.3720665   9.2767274  59.0887117   3.2898191  69.6659814  36.2799263
   4.1271023  69.6797870  36.7436028   3.3078483  70.4489575  35.7296085
  16.5598778  88.1041764   7.5013924  15.6877140  87.7845715   7.7325344
  17.0380691  87.3205422   7.2303295   3.7569717  77.2407340  23.3954525
   2.9831699  77.7806686  23.2344341   3.4641222  76.3455461  23.2248306
  56.4735603  32.2663951  88.2819557  57.3610973  32.0336008  88.5545540
  55.9092855  31.6566849  88.7574387 102.0397807  94.0139316  12.2162247
 101.6229010  93.2267259  12.5665855 101.5436078  94.2147468  11.4226818
   1.0809044  81.5572857  25.5415249   1.5042595  81.9702219  26.2941742
   1.7718033  81.0338019  25.1355076 109.7029734  56.7145549  27.6975822
 110.2897263  56.0058968  27.4334621 110.2822591  57.3780011  28.0724144
  94.2605778  93.2122653  59.3852139  94.1937479  92.3352390  59.0076017
  95.0895449  93.5545307  59.0507030 109.8059177   3.1962547  43.1354713
 109.1751480   2.5102329  43.3539772 109.9986267   3.0578876  42.2081375
 108.1757689  89.5512961  11.7197514 108.1935836  90.3719376  11.2273502
 107.4500705  89.6568130  12.3349476  35.3842358  50.2233449   8.3845139
  34.9769501  50.0817539   7.5299358  36.1918167  49.7104623   8.3528805
  53.2852221  39.8309183  80.0531960  53.4977436  40.7588911  80.1528549
  52.3993397  39.7488189  80.4063320  63.2173872  14.8170805  88.2780838
  63.1713772  14.7749007  89.2332458  64.1240406  15.0615811  88.0925274
  85.4805661  93.1676172  15.7333946  85.3934336  93.8359378  16.4130974
  86.0253764  92.4894427  16.1327648 110.2203418 100.0480484   4.5333385
 110.1156903  99.1602348   4.1911888 109.6762229 100.0670122   5.3206158
  22.2253323   2.7545613  85.0957870  22.0526147   3.1265289  84.2308998
  22.0490193   3.4718707  85.7045650   7.3475746  65.6412207  28.6746120
   7.3930172  66.5278016  28.3166409   6.4353374  65.3792487  28.5504150
  97.6248933  68.4741436  27.6539135  97.1318722  68.9234816  28.3403969
  97.7563191  67.5889908  27.9937172  59.1425180  44.0943432  88.3129025
  59.9377537  44.6270180  88.3224773  58.8766479  44.0443659  89.2310810
   0.8901171 105.3419088   0.8880615   0.9517244 104.7537016   0.1354313
   1.6708616 105.8922504   0.8264732  84.0106965  94.5360397  12.2480774
  83.5242701  95.3537105  12.1430397  84.4642354  94.4182466  11.4134216
  63.8022041  13.2417274  60.1030350  64.0446234  12.5680816  60.7383776
  64.4144964  13.1183124  59.3777084 105.1946975  41.8121241  41.1466885
 104.7428513  42.6346086  40.9580421 105.2271844  41.7704390  42.1024227
  83.2542324  35.3455186  90.3905582  83.6625671  34.7660398  89.7473621
  82.6266193  34.7881842  90.8506775  82.9724121  15.2245736  82.7906704
  82.6142311  15.9889019  83.2420444  83.6197758  15.5856442  82.1850395
 103.4511710  80.8115076   1.9971275 103.8124991  81.6321562   1.6621494
 103.6332894  80.8354090   2.9365349  74.5434762  87.9587029   0.8029079
  74.9135471  87.2352980   1.3088417  75.2926470  88.5208725   0.6055832
  16.9748119  89.0065979   3.0854797  16.9078831  89.4390892   3.9367771
  16.3275818  89.4522165   2.5389004  87.0290805  53.6779151  13.2871056
  87.9816056  53.7692651  13.3112240  86.8802882  52.7338662  13.2335949
  25.0774287  82.3890096  88.5640812  25.0905418  83.2686120  88.1867695
  25.3408002  81.8156701  87.8442574 109.4909049 102.5053953  32.0417881
 110.1302863 103.1928419  31.8551254 110.0203801 101.7299961  32.2279358
  32.3368216  59.3414927  78.5141754  31.6535735  59.6776247  79.0941906
  32.5572419  58.4831572  78.8759804  99.2337418  52.7683772   9.2471218
  99.0305281  52.3134586   8.4298229 100.1748181  52.9368266   9.1998863
  93.7668467  64.8040937  42.6719952  94.1202737  64.0256129  42.2415447
  93.3031941  65.2720796  41.9775581  93.7621117  79.4245361  12.9179192
  93.1376410  79.8226856  12.3114967  93.7508822  78.4934329  12.6962185
  43.5986423  48.5769558  90.8425331  42.7801371  48.2256937  91.1930847
  44.1159678  48.7972593  91.6171741 109.8639632  56.5667410  13.3698368
 109.3980408  55.8895238  12.8794098 109.3943263  56.6258826  14.2018127
  94.3150807  39.1199361  15.1071548  93.6294461  39.7593378  14.9140167
  94.3843318  39.1240166  16.0618401  53.2126379   4.4781798  80.1037025
  53.5019064   5.3905118  80.0893402  53.1448460   4.2630297  81.0339451
   4.8439984   1.9392913  24.8464298   4.6498637   2.8393929  24.5849609
   4.6739916   1.4196818  24.0607166 107.9374552  74.3201946  21.4448643
 108.7321997  74.1353010  20.9444427 107.2490311  74.3908809  20.7835770
  88.2020950  12.7248752  76.7286587  88.7329197  11.9779539  77.0053720
  88.6833858  13.1007814  75.9915733   0.6998686  83.0291437  47.5078774
   0.9311346  83.9579223  47.5188351  -0.0412747  82.9597448  48.1096363
 101.8385554  86.1380147  16.2195683 102.5124741  86.6084264  15.7288742
 102.0462514  85.2132844  16.0855198 101.3311291  83.5990428   7.1665382
 100.7043935  83.2173275   7.7811337 101.2383557  83.0730413   6.3722229
  10.7409434   5.6245749  29.1989708  10.2538781   5.1143782  28.5519028
  10.1823620   6.3811867  29.3771648  22.5097489  51.2533760  73.0217075
  23.0056214  51.0879755  73.8235760  21.6669559  50.8239460  73.1684065
  19.2291836  49.6597834  37.0628929  18.3746246  50.0533427  36.8866158
  19.3584637  49.7793843  38.0037498 100.9351254  96.3604711   8.9524174
 101.5777636  96.6760515   9.5877552 101.1030436  96.8778061   8.1647587
  21.0909772  12.5416601  66.6782475  20.9914374  11.6185117  66.4456129
  20.4274035  12.9930282  66.1565542  87.4629403  66.8529962   0.7278919
  87.2240926  66.6480743   1.6318798  86.7957307  67.4756383   0.4391384
  85.2405740  65.0522624  18.8209534  84.4791938  65.2898048  19.3502045
  85.9857751  65.4237341  19.2930985 110.1741553  51.3671774  17.8331089
 109.6884251  51.6249252  18.6166000 110.5660725  52.1807832  17.5158119
   1.5718750  71.8580543  38.4869576   0.9203438  71.7154382  37.8003788
   1.1500744  71.5433560  39.2865086  26.8027786  76.1304306   3.3156681
  26.8012051  76.5470360   2.4538898  26.2532238  76.6973756   3.8567734
  46.8082809  36.4058161  83.9427662  46.0760450  37.0167518  83.8601971
  47.4997139  36.9162297  84.3642330  48.8593817   1.2163206  83.8795090
  49.2457294   1.8824121  83.3109188  49.5695639   0.5939686  84.0361977
  63.2974672  95.9317183  69.5474195  64.1818284  95.6416136  69.3238831
  63.2606649  96.8402493  69.2483425  50.5870294  90.0966948  77.4278498
  51.3804387  90.4828506  77.0568848  49.8700761  90.5505115  76.9848490
 107.8603364  87.7098845   0.5588627 107.1703530  87.2213672   0.1099682
 107.5817729  88.6239503   0.5030060  17.7410034  75.3331851  12.1270466
  17.9375557  74.4551395  11.8004990  17.5618175  75.2076148  13.0589104
  14.4590902  98.6634856  76.9352865  14.7651052  97.9068583  76.4351845
  14.3937778  98.3450114  77.8355885  52.8222466   9.5394522  68.3063889
  52.1093035  10.0303149  68.7150431  53.4954929  10.1967275  68.1304264
   5.2332598  21.0725999  79.8443031   5.5955368  20.3126931  80.2998543
   5.8777696  21.2750268  79.1661692   2.3146585  25.3446268  11.3977718
   1.7491487  25.3786515  12.1693134   1.7834190  24.9103211  10.7303905
  66.8364716  34.2039347  72.5504065  66.2624025  33.7625384  73.1763792
  67.1161699  35.0001550  73.0021095  17.4451736  66.6918253   3.7594986
  17.6165871  66.6719483   2.8179836  18.2976440  66.5252100   4.1617107
  27.6039933  76.0434729  85.0853920  27.3393106  76.4084965  85.9297466
  28.4528970  75.6355744  85.2563095   8.4616517  78.8115149  87.1675205
   8.1797790  78.2376986  86.4551163   8.9327764  79.5213538  86.7311764
  31.6118721  79.9718736  11.0251141  32.3086552  80.6007050  10.8372688
  31.9665626  79.1294144  10.7410526  61.7353249  22.0780087  73.6404419
  60.8044386  22.1213317  73.4218073  61.7944574  21.3872361  74.3004179
  51.4469290  12.1912396  70.0678825  51.4204597  12.5169742  70.9675646
  52.3435736  12.3598993  69.7783756  65.0016689  26.4011335  90.1203442
  64.9210405  26.0251307  89.2437840  65.7683659  25.9689975  90.4967308
  26.4335731  71.5658604  15.4392624  26.1281208  72.4560021  15.6141281
  27.1530727  71.4339207  16.0566330  26.5397215   1.7341338  72.5196791
  26.1695480   2.0860182  73.3292341  27.4549603   2.0141067  72.5332880
  57.9817438  32.6862884  91.3037109  57.7675533  32.2053933  90.5042744
  57.2821474  32.4574184  91.9156075  93.0673791  52.3403857  34.3776226
  92.7876902  51.7281921  35.0582314  92.8468514  51.9019658  33.5558033
  39.1709804 104.8297125  88.5027790  39.8550081 104.2873590  88.8954544
  38.5538768 104.9908836  89.2165279  60.8213948  91.3795429  75.0889158
  60.9578847  90.5612463  75.5664015  61.6260194  91.8777245  75.2325344
 103.5122701  80.4708773  70.6513977 103.0683371  81.2325746  71.0241890
 104.0547296  80.8297544  69.9491310  42.2559404  36.5003538  70.4829502
  41.9139290  35.9600019  71.1951876  43.1564188  36.6960502  70.7419348
  47.7149010  33.4161663  66.0096931  47.2073078  33.2879019  65.2083635
  48.5926676  33.1041288  65.7897234  71.4713217  54.5011804  18.0441570
  71.1105395  54.1822680  18.8714123  71.9688845  53.7601755  17.6983547
  12.4492597  96.6314304  79.6127987  12.2718810  96.1518824  80.4220009
  11.6057443  97.0140826  79.3713522  97.9030418  44.1447115  65.6209421
  97.2374439  43.5107565  65.3538990  98.1939983  44.5458364  64.8019934
 108.0648185  65.5333184  16.1689091 108.7585450  65.6459461  16.8187523
 107.2813416  65.8851479  16.5915298  15.3920130  43.7093823   6.6211510
  15.6151919  42.8695672   6.2197495  14.8652033  44.1583722   5.9600067
  41.3534974 103.2746191  89.7775841  41.8955325 104.0286706  89.5455551
  41.0761308 103.4468424  90.6773853  31.2222485   1.0196250  25.2467442
  31.3832621   0.0773852  25.1968193  31.7558531   1.3913338  24.5443726
 101.7966748  48.1308751  42.5742245 100.9081269  47.8920593  42.3102570
 102.1986771  48.4762211  41.7771339  11.6446805  22.9208183  77.5385714
  12.4358881  22.5768113  77.1239853  11.1325037  23.2815075  76.8148279
 104.6612073  77.0307993  11.1897945 104.4243146  76.2923812  10.6286812
 105.1420022  77.6249264  10.6135273  38.9517736  72.5290519  80.7454681
  38.3879804  71.9214374  81.2241936  39.7793721  72.0588428  80.6444263
  78.0917168  37.0355201  89.8054790  77.8623629  37.6303411  90.5194950
  78.8544941  36.5560818  90.1288128  75.3851963  79.1531466   6.9225025
  75.4726697  78.6364339   7.7234936  75.4292870  80.0624989   7.2180748
 101.7011119  52.2314393  24.9612522 101.1049462  51.7549347  25.5389690
 101.3414908  52.0990507  24.0841103  61.4013863  14.9963522  69.8921871
  61.7095184  15.7832265  70.3417540  61.0877705  15.3120065  69.0446949
  69.0225960  71.2514769   3.3087349  68.5892607  71.0031592   4.1253090
  68.6093784  72.0783268   3.0601311  87.4438096  65.1646696   9.5341873
  87.0021106  65.4124175   8.7219334  87.5013209  64.2100452   9.4939899
 108.9275742 105.1911138   5.1097298 109.3058396 104.3361686   4.9042606
 109.6682740 105.7961963   5.0714111  85.9652472  94.6380972  50.4004383
  86.6876984  94.5498251  51.0221291  86.3697768  95.0029729  49.6133804
  98.2610799  92.6147698  35.8557987  98.3566762  93.3922123  35.3056431
  97.9339791  91.9395064  35.2614498  72.2327042  28.8846803  87.5172234
  71.7260599  28.4457588  88.2005215  72.6268625  29.6376228  87.9576206
  23.4079842  71.2580656  14.7361946  24.2491154  71.5646587  15.0749111
  23.1819538  70.5139159  15.2942181   0.2620605  87.3647832   6.8869877
   0.1078466  86.4262413   6.7793465   1.2096075  87.4404572   6.9995022
 111.5259362 104.4875597  24.2438316 111.3924695 104.3350195  23.3083344
 112.2588111 103.9177869  24.4772434  98.4976102  72.0834743  18.6905956
  99.3868399  72.0450519  19.0427685  98.2911969  71.1771988  18.4619236
  22.3729233  79.1137074  27.8604603  21.9287781  79.0982317  28.7082386
  23.3047203  79.0851830  28.0776691 106.8344785  83.2935833   0.6983948
 107.6197625  82.7495097   0.6388378 106.4607383  83.2719515  -0.1825619
  91.7433549  75.3796910  13.4900284  91.2787009  74.5738863  13.2641697
  91.3436318  76.0500215  12.9358482  84.0684701  87.9264353  26.2383747
  83.2091571  87.6979493  26.5927792  84.2467595  88.7999128  26.5869141
  13.1677631  72.9207419  13.0025005  13.6430744  72.3054002  13.5607719
  12.3587517  72.4623345  12.7753639  38.9520501  97.5327527  37.7182293
  38.7008476  98.3864355  38.0708671  38.7116908  96.9100612  38.4043121
  98.2025767  72.7687071  34.2184448  97.9358006  72.0299851  33.6713123
  99.1373206  72.6291369  34.3701363  34.2699055  89.4526170  13.0683327
  33.5635666  89.5186256  12.4257183  34.9601940  90.0197099  12.7246094
  57.4697065   9.6832478  74.8761988  57.2270489  10.5337560  75.2422380
  56.9257641   9.0543967  75.3504419 109.5609284  79.2974566  28.3479023
 109.9267817  78.6202954  28.9169598 108.9598418  78.8263391  27.7708530
 102.2648907  75.4121350  15.8177280 102.8311063  75.7793115  16.4965630
 102.8665353  75.1440095  15.1232052  17.0256523  60.3375207  13.7764931
  16.7616180  61.2244986  14.0210056  17.9823975  60.3579186  13.7980175
  53.8352537  25.7833314  65.8425236  53.0267906  26.1881351  65.5282736
  54.3426514  25.6140947  65.0487137  51.0791588  66.7773533  83.7091827
  50.2247953  66.3637829  83.8326931  51.0636473  67.5374269  84.2908001
  76.2497520  71.1589575  80.4315472  76.1018372  70.3157759  80.8597946
  76.9394255  70.9845829  79.7910976   1.8693403  96.4463161   9.5143890
   2.5597481  97.0374893   9.2142487   2.3025946  95.5973648   9.6026993
  74.4474220  32.9728532  86.7285538  74.4042969  32.9833603  85.7723808
  75.3708553  33.1264257  86.9283581  65.6832838  27.7106214  70.9777784
  65.7649040  27.5757051  70.0336599  66.3720465  28.3404970  71.1901426
  90.7842731  28.2806754  86.2067032  90.8612823  27.3724675  85.9143639
  89.8905563  28.3492279  86.5425587  14.4451813  67.5542794  24.9678326
  14.8732189  67.7415608  24.1324043  13.7433819  68.2024323  25.0279903
  71.3568068  27.5343966  72.3482418  71.5643072  28.2198477  71.7131519
  70.4085398  27.4234247  72.2796345  53.9352846  40.4768801  84.1083431
  54.5278740  39.7876740  83.8082314  53.3120060  40.0256968  84.6777153
  31.8744568  83.9535020   1.0251045  31.3524345  84.7351955   0.8443165
  32.6622204  84.2858266   1.4554787  42.7884392  85.9123086   1.8384552
  42.1473793  86.3447474   1.2742901  42.2748665  85.5832051   2.5761318
   8.9399437  69.6583353   7.2028160   9.0731911  69.9237250   8.1127834
   9.3478111  70.3546904   6.6880608  12.9484132  36.2370610  79.1221809
  12.1137479  35.7777762  79.2150497  12.7222016  37.1636391  79.2028952
  47.5114775  41.4382029  68.7245750  48.1489897  41.3318062  69.4306135
  47.1112871  42.2918749  68.8898563  69.7295570  23.7751532  69.7002602
  68.9884663  23.4435248  69.1932726  69.6389294  24.7272897  69.6621370
  72.3106718  18.4411824  84.2588234  72.2409678  18.4238350  83.3043194
  71.6119814  19.0322804  84.5392895 111.2969638  79.2132472  39.8242188
 110.4698563  79.4296359  40.2546787 111.8586255  78.8948368  40.5308914
  59.7223429  14.5424502  19.5213509  58.8295893  14.5711939  19.8654461
  60.2026324  13.9996045  20.1465511  72.0512676  27.9374456  82.8322029
  72.3305464  28.7337899  83.2839489  72.6036406  27.8987503  82.0514297
  75.0778104  96.5311264  46.7914772  74.5161153  96.5782760  46.0178471
  74.9684454  97.3805402  47.2189999  91.8585968  67.7228403  85.8725166
  91.7014694  67.9286289  84.9510002  91.7848396  66.7697191  85.9210300
  62.9750919  34.7258377  71.8373632  62.1379995  34.2619300  71.8546486
  63.0500650  35.1171756  72.7076864  64.5445728  27.8469658  82.9177475
  65.0823069  28.2260132  83.6130142  64.5222950  26.9107151  83.1156635
  97.5013594   6.6707747  42.5204182  97.4699168   7.5553696  42.8847504
  98.2803969   6.2773697  42.9135609  78.1969310  72.2180127   3.0503273
  78.1210757  72.9530500   3.6587715  79.1364718  72.1401416   2.8847313
  38.4789705  48.1020212  77.3626757  38.5883307  47.9247332  76.4284134
  39.3596649  48.0155945  77.7275562  10.5352501  78.8828014   4.0646267
  10.2830604  79.3235611   4.8760223   9.8218349  78.2677363   3.8944530
   4.2407564  70.8751570  24.9071503   4.1085771  70.2927374  24.1591167
   4.1406826  70.3087913  25.6722927  44.4226459  99.2475008   4.7430515
  44.8210911  98.9279913   5.5526161  43.9197830 100.0166629   5.0109196
  61.5248800  83.0048369  24.2393303  60.9334517  82.2783350  24.4359016
  60.9490729  83.7636446  24.1450405  39.7702221  71.7818819   5.8452892
  40.6662849  71.4460801   5.8218384  39.3899254  71.3947414   6.6337872
  30.8414511  43.1064599  23.5024452  30.4703097  42.2250741  23.4619331
  30.1019292  43.6863320  23.3205509   3.3262113  83.3703159  41.1620617
   2.7103666  82.6855110  40.9012699   3.0610041  84.1370414  40.6540871
 103.9418555 100.0072311   9.8282051 104.0755177 100.1939891   8.8989639
 104.5654917  99.3079876  10.0240898  76.8158770  32.7296567  66.5206432
  76.6569757  31.8083549  66.7260265  75.9821606  33.0444050  66.1712360
  63.7519503  23.2149935  72.1699333  62.9713631  22.7597904  72.4856949
  63.7829447  24.0219617  72.6838112  65.9850550  17.5952101  84.5132351
  66.7182589  17.8567171  83.9562225  65.5503750  18.4176564  84.7387695
  67.7546740  14.7589755  75.5128860  67.6865387  14.4640660  74.6048021
  68.2457209  14.0655828  75.9536934 105.6168461   9.6454817  89.8735046
 105.4983616  10.4549658  90.3704166 106.2214184   9.8824644  89.1702461
  50.9851933  59.2589855  88.7758541  50.6074715  59.2898273  89.6548367
  51.0258818  58.3261299  88.5652447  56.2487840  96.3113093  50.2008533
  55.8207082  96.5249353  49.3717861  55.5849408  96.4913690  50.8665371
  73.6429553   4.0825408  24.6284294  72.8928427   4.6186488  24.8856163
  73.7367110   3.4460728  25.3372002  26.0457710  87.8362130   2.8736305
  25.1562408  87.8129982   3.2263565  25.9652332  87.4628090   1.9959545
   3.1855730  82.5954054   6.5883064   3.3900503  82.4883579   5.6593513
   4.0287880  82.5016259   7.0315170  77.1342945  47.6744175  89.7520351
  77.3918581  47.5307178  88.8414001  77.7915382  47.2031498  90.2640533
  48.5816050   8.9666378  64.3997955  47.6351738   8.9331394  64.2605686
  48.6797810   9.1949570  65.3241682  12.6489071  86.4759468   2.5627518
  13.2721046  86.6219448   3.2744789  11.7939953  86.4580058   2.9928970
  50.7331133  19.2553723  88.1975937  50.9938335  18.5804749  87.5708771
  51.5158272  19.7952628  88.3076286  54.2674255  52.0472860  91.1470985
  53.3347321  51.9058800  90.9848690  54.6621084  51.1811018  91.0461712
  65.6389141   4.8685336  79.1021395  65.5218506   5.6092876  79.6969557
  66.3163090   4.3337095  79.5160627  59.4639564  89.0228103  14.5909882
  59.3635774  89.9724887  14.5256615  59.0161372  88.7900137  15.4043102
 107.2355510 103.6060833  22.5848293 107.0103646 103.8457750  23.4837532
 106.4308549 103.7553333  22.0884132   8.7048820  84.1952680  32.5636768
   8.3778862  84.0061854  33.4431934   8.8030342  85.1472210  32.5441551
 103.1052972  74.0552519  24.4992542 103.9314032  73.7509559  24.1235065
 102.8404523  73.3542584  25.0948143  12.4707654  28.9321637  85.8705521
  13.3267358  28.8374996  86.2883854  12.4458554  29.8436689  85.5793953
  79.4840478  73.6033398  80.9163952  80.3711080  73.2442337  80.9360027
  79.3574666  73.8795453  80.0086975   0.9053806 103.6733364  33.9936733
   0.6218580 103.0901407  33.2895947   0.0962261 103.9171194  34.4431973
  94.7621918  40.0560617  82.3326683  93.9171124  40.3450918  82.6769447
  95.0452137  40.7703590  81.7617893  69.5948267  55.5773926  90.4629993
  68.7240124  55.4004669  90.8188152  69.9551105  56.2536526  91.0366726
   2.1522144 102.0866464   5.2112103   2.6248173 102.9179023   5.1676369
   1.2374262 102.3376535   5.3392601  88.6624432  62.0037365  83.3110046
  89.5679092  61.7123461  83.4180450  88.7240887  62.9563856  83.2410622
  84.6821690  84.7771358  78.7783527  85.6335831  84.7368050  78.8753462
  84.3424320  84.4541836  79.6129274  95.8998729  56.7036523  20.1477337
  95.1916981  57.1809693  20.5800343  95.4671956  55.9577958  19.7321415
 101.2079430  74.0922879  37.9841137 101.4287759  74.2528580  37.0666885
 101.8445969  74.6092485  38.4777355 108.7023830  40.7973194  61.0389471
 109.1328716  40.7409382  60.1858759 109.3090439  40.3680611  61.6422081
  45.5445433  31.4365458  84.8484612  45.7696724  32.3581100  84.7209072
  46.3547134  30.9635448  84.6583843  46.4242987   3.1310027  39.0183640
  46.2208037   3.7154143  38.2880974  45.6434111   2.5856631  39.1134834
 104.5918990  86.9179200  32.6379871 104.5173121  86.1024235  33.1336021
 104.3163586  86.6853641  31.7512989  32.9628662  51.4356823  24.2052364
  32.8702644  50.4928251  24.3419075  32.3516373  51.6361239  23.4964085
  94.2996360  77.9285167  19.1463661  94.1578103  77.1073865  19.6173859
  93.5994244  78.5045932  19.4530773  27.1619229   4.1617243   2.5258350
  27.9721980   4.6129363   2.2889996  26.5979724   4.8507636   2.8771496
 107.3652793  56.0269229  49.4381428 108.2699061  56.0759653  49.1291523
 106.8366385  56.0928826  48.6429024  18.0760197 103.9817165  20.8624458
  17.7488808 104.4039415  21.6567612  18.6622909 104.6292804  20.4710579
  46.1806540  15.3904669  21.8029976  46.6186289  15.1879685  22.6296902
  45.5870013  14.6534102  21.6596413  20.6850532  84.7914027  25.8843803
  21.3269142  84.4872640  25.2427006  20.0291828  85.2566026  25.3651047
  73.1586076  69.9565743   3.8858318  73.9725161  69.6913968   3.4574986
  72.8104711  70.6526564   3.3285999 100.5956174  71.7636226  35.2898407
 101.1012269  72.5260733  35.5713749 101.2524939  71.0853468  35.1327229
  75.8174849   8.5664791  68.3678484  76.6923428   8.2608986  68.1281090
  75.3743076   8.7046701  67.5307560  68.3739185  44.3983746  81.0700512
  67.9903793  43.5316753  80.9360313  67.7002907  44.8880196  81.5419674
  86.8463707  40.4339075  82.5773335  87.5848579  40.3500319  81.9741535
  87.1789265  40.9816170  83.2884216  83.1803609  67.1185599  14.0927982
  83.0983067  66.8425058  13.1799507  83.9643670  66.6697239  14.4092083
  97.2813702  70.7621120  32.4576092  96.6485692  70.0459670  32.5117493
  97.4634362  70.8506404  31.5220642  99.1262532  78.9750169  17.8248501
  98.3381892  78.4438513  17.9390717  99.2780972  78.9781211  16.8797779
  60.5873299  21.9779134  77.0768118  60.4649544  21.0412621  76.9220877
  59.7603273  22.2670317  77.4624348 107.3662186  82.2777628  43.3067226
 106.7886449  81.5237545  43.1879330 107.6351834  82.5155901  42.4194145
 101.0138846  85.4542183   3.0888939 101.4630986  86.2859176   2.9381847
 100.2421427  85.4930256   2.5239658  88.4297229  72.0298635   4.7329140
  88.4997273  72.4656044   5.5823040  87.7350188  71.3823103   4.8524570
  51.5812635  56.6836023  90.8011627  51.8168116  56.0160208  90.1568890
  52.3456430  56.7437220  91.3741684  71.2442493  39.5773149  84.1509819
  70.5814219  38.9298582  84.3911648  71.5067720  39.9712682  84.9829197
  76.6286802   5.5819023  60.8987284  77.4366617   5.6027728  61.4115334
  75.9366894   5.7638454  61.5345573  67.7542591  36.9355869  81.8209743
  68.3597517  36.8487501  81.0847187  67.0265913  36.3533092  81.6026020
  19.0871100  18.1794589   5.2903652  19.2258362  17.4692195   4.6638298
  18.7676243  18.9086573   4.7589302  52.1977997  61.0832882  87.3531532
  51.9488955  60.3998613  87.9754066  51.6779232  60.8963728  86.5714741
  86.5745354  57.6402140  59.2485332  85.7257175  57.2727156  59.4948721
  87.1742058  57.3354626  59.9295282  84.3959713  39.7263956  51.4681482
  84.0980625  39.0475035  50.8626842  85.3433514  39.7653198  51.3370228
  21.2405781  43.2417248  13.4836388  21.2681202  42.8319262  14.3482494
  22.1156315  43.0989359  13.1229210  20.1644329  77.3798655  24.9511337
  19.4876293  77.7952884  25.4855347  19.6784595  76.8787216  24.2962170
   0.4025129  54.9190186  14.4850254   1.3042740  55.2043010  14.6322346
  -0.0947376  55.7322489  14.3976688  93.7589264  29.5572972  73.8204956
  93.3012295  29.7420740  73.0003691  93.8976860  28.6102748  73.8092327
   5.3637985  79.0331195  21.8767548   5.3608707  78.4059380  21.1536598
   4.9454502  78.5664676  22.6002502  40.8239464  16.8227761  16.4049625
  40.8036904  16.5463441  17.3211479  41.0174136  16.0220807  15.9174252
  74.2744780  45.4277182  79.4243431  73.6261177  44.8980951  78.9602709
  74.7986221  44.7920179  79.9115705  30.8980798  97.1978348  80.1996517
  30.6276941  97.8895890  80.8034706  30.0789975  96.8715387  79.8270035
  18.4442620   9.4170182   9.2873192  18.3676867  10.2020877   8.7450695
  18.9584927   9.6979325  10.0442028  55.5174351   7.0811874  51.7520142
  56.1050606   7.6842827  52.2072077  54.7790527   6.9686681  52.3506498
  81.2047195  38.4548855  81.1548996  82.1112251  38.5875320  80.8776188
  81.1700726  37.5387836  81.4301872   8.7590603  85.0348018   9.0992451
   8.0173878  84.4304608   9.1297054   8.5817436  85.5936311   8.3426094
 102.5434352  73.9681767  35.4042721 103.2662202  73.6762999  34.8487282
 102.3824454  74.8718237  35.1327229   4.6803430  71.9753657   5.4192448
   5.4239944  72.5603841   5.5640316   3.9698509  72.5547479   5.1440048
 102.2002602  65.8990036   6.7014885 102.9315186  66.5067862   6.5915203
 102.5390340  65.2196931   7.2845840 101.7478944  83.5372017  12.6804352
 101.1327315  83.1468342  12.0596123 101.7913104  84.4592069  12.4269581
  95.6440593  68.6154436  32.5284290  94.9742413  68.2955001  31.9241047
  95.3551484  68.3115648  33.3889008  54.1583157  15.4178381  84.8404121
  53.9581060  15.5324948  83.9114285  53.6108446  16.0649824  85.2850533
 105.7797719 101.6011833  54.9694347 105.0267983 101.5781854  54.3789005
 106.3468505 102.2824072  54.6080589  97.8589154  88.3057164   3.9350319
  97.9578448  88.5803603   4.8466301  98.0514098  87.3681258   3.9451218
 105.4577971  43.8609664  11.4410973 106.0047055  43.7588947  12.2200108
 106.0732079  43.8189589  10.7091618  70.4442453  13.7393725  89.6105671
  70.0900698  12.9961479  89.1222954  69.6771669  14.1539419  90.0054741
  66.0512499  18.1657212  18.2398987  65.4515223  18.4772246  17.5620174
  66.6847090  17.6243298  17.7688885  24.2371845  76.6973257  90.4380131
  23.4413600  76.9971180  90.8773422  23.9824009  76.6009903  89.5203876
  58.3501959  46.8717766  90.3868961  58.2923126  47.4513483  91.1464882
  59.2764759  46.8845272  90.1459312  69.7661352  20.4579782  82.7962589
  69.6796656  20.4228854  81.8436146  68.8685274  20.3867650  83.1210136
 103.3430862   4.7751579  71.6674709 103.1374454   5.1483196  70.8103275
 103.7316895   3.9228237  71.4706469  59.0711784  51.7364931  80.7987881
  58.2259893  52.1036482  81.0577965  58.8554001  51.0883236  80.1283073
 104.0149975  26.8165088  89.3750286 103.8504601  26.5283704  90.2728748
 103.6129570  27.6836991  89.3243027  23.9875226   4.8315089   7.3286915
  24.7153239   4.3826478   7.7588844  23.3115821   4.1597979   7.2384644
  60.3875017  35.7808971  81.8696117  61.3018227  36.0123515  82.0329475
  60.0157118  35.6441355  82.7409840  50.9577442  83.4080027  15.8960247
  50.3524090  83.9539121  16.3978004  51.0188306  82.5949167  16.3974094
  95.1008511  27.3813486  76.1920452  95.1844597  27.0433903  77.0836878
  95.1456070  28.3323479  76.2911844  48.8545513  21.6353846  67.7989054
  49.1029406  20.8527017  67.3070240  49.6620083  21.9124269  68.2319069
  76.5091848  32.3732948  78.5225105  75.6783628  32.6327896  78.1242323
  77.1753120  32.6733255  77.9040527  99.0347577  90.8368729  10.1101685
  99.8311949  90.4830502  10.5060577  99.2629100  90.9687923   9.1899681
  31.5034246  89.1919189  85.9263706  31.6556691  89.7793585  86.6666222
  31.3509607  88.3361357  86.3271523  77.8109837  86.4872955  10.4511833
  77.0540143  87.0675753  10.5318356  78.3862973  86.7424582  11.1723900
  22.5422291   1.6313307  13.4604645  21.5852837   1.6101019  13.4539700
  22.7637152   2.5259345  13.2018948  90.1861621  82.1948432  33.6512280
  90.2811290  83.1398533  33.5321903  90.0267554  81.8572448  32.7698326
  61.2386274  68.5006237  46.6701651  60.3330803  68.2966661  46.4364624
  61.7586756  67.8399706  46.2126541  51.4275317  21.9696610   8.2952404
  51.5255217  21.3719742   7.5540352  50.5145411  22.2542851   8.2543373
   9.6708492 100.6217311   7.1757030  10.3581814 101.1459135   7.5868511
   9.0259079 101.2634109   6.8781662 105.4131366 101.5492939  17.5926971
 104.8556853 102.2780155  17.3198414 105.6516934 101.1112808  16.7757130
  81.2422657  51.0530901  77.6850510  80.4797363  50.8975172  77.1277618
  80.8938122  51.5248251  78.4415388  86.9000340  26.3246322  89.4034004
  87.8282070  26.3672566  89.1733742  86.8801498  26.4774179  90.3481197
  69.7070312  22.9481030  72.2437763  70.5869102  22.6089263  72.4081087
  69.8108435  23.5277152  71.4891243  17.8949074  87.4021219  48.6881733
  17.8562073  86.4747738  48.9221764  17.1096901  87.5490497  48.1608391
  69.4482566  85.1041268  60.8395576  69.8178626  84.7640871  61.6544151
  70.1275683  84.9458455  60.1840305 102.0922852 102.4308704  27.1443748
 101.1900473 102.1493934  27.2959328 102.2627688 102.2063755  26.2296295
  24.0798572  93.0436014  16.3858700  24.7220520  92.3884367  16.6589642
  24.1753963  93.0906652  15.4346085  66.8583441  65.2906609  68.0795527
  67.2812939  66.1491680  68.0972910  67.5509977  64.6879625  67.8089762
  69.6014166  33.8081408  84.3534279  70.2547836  33.8651252  85.0506401
  69.9264526  33.1169558  83.7765026  67.3528099  82.1295929  88.0780506
  67.6308393  81.4296722  88.6688519  68.0727577  82.2156429  87.4531555
 103.9742851  39.9866581  73.9502144 104.7209740  40.5621624  73.7844086
 104.3667889  39.1377878  74.1541481  89.4137097  66.2978195   5.9966469
  88.4741450  66.2097393   6.1569214  89.8249770  65.9656201   6.7946053
  79.3368912  47.4866247  85.4068851  79.5413494  46.9566011  86.1772728
  78.5431623  47.0904255  85.0473595  86.2131596  24.5455861  87.3243999
  86.5804100  25.2638888  87.8395653  85.2783012  24.5571661  87.5296688
  32.8907493  99.1221069  27.2297192  32.9068664  98.9654277  26.2855625
  32.3480514  99.9037288  27.3335648  96.1100578  76.7806387  87.8646946
  96.9755459  76.9411564  87.4886513  95.7216167  77.6511240  87.9519081
  92.2048716  17.3154776  13.9149570  91.4582495  17.3721306  13.3186531
  91.8179373  17.0992940  14.7633553  79.9791336  49.7053289  81.6897774
  80.7096195  49.8051929  82.3002243  79.2323351  49.4803381  82.2446728
  87.0360137 104.6680759  14.0493488  86.2092353 104.1867326  14.0806198
  87.1921111 104.8156427  13.1165600  16.2930588  79.7168635  12.6391792
  16.9836429  80.3756856  12.7118588  15.8056454  79.7892498  13.4597969
  75.9910870  35.6509376  88.2518101  76.1691332  34.7243571  88.4129906
  76.7727757  36.1036468  88.5684299 107.7963401  97.2981094  16.5317154
 108.0764437  97.5057338  15.6402779 106.8611718  97.5020193  16.5425396
  88.1164408  94.3375610   2.9279614  88.6615897  95.0771831   2.6596260
  87.5789405  94.1450285   2.1596718  33.2805848  35.7708812  58.3274126
  34.0805864  35.9185386  57.8230047  32.7552843  35.1887703  57.7783823
  65.5522203   9.9187648  55.3260279  64.7999048  10.5105841  55.3263092
  65.1704407   9.0460193  55.4197884  53.4829044  64.4882679  79.9105263
  52.8637075  63.8709021  80.2999973  54.3415546  64.1835117  80.2039242
   0.9261946  71.2273298   3.6695099   1.4000944  70.4491089   3.3762074
   1.2142090  71.3567458   4.5731354 103.2810975  60.2875142   9.2347336
 102.4855948  59.7703432   9.1084671 103.9537097  59.6427010   9.4539070
  90.3269005  22.2880530  90.0162029  90.1896000  21.5679717  90.6317234
  91.2700844  22.2870994  89.8530102   1.8429235  78.2545446   3.7274838
   2.0614437  77.6210736   4.4110012   2.3590187  79.0304612   3.9461803
  98.1080914  46.7854881  58.4592056  98.8066959  46.8364525  57.8068304
  98.2984543  47.4973869  59.0701008  92.2062732  71.5175639  25.7861137
  92.6633406  70.8492325  26.2966537  91.3073302  71.4964973  26.1142731
 103.7264633  37.1011615  81.5552616 102.8866577  37.4413610  81.8638229
 104.1822243  36.8296862  82.3520184  13.7659314  47.4820280  76.7302322
  13.8361123  48.1505251  77.4117184  13.2922032  46.7628527  77.1480751
  54.4883776   8.9155728  85.1224899  55.3245687   9.1635811  85.5168343
  53.8673973   9.5672023  85.4480648  65.9293890  19.1404176  79.8568201
  65.2424669  19.5160019  79.3060827  66.0517788  18.2543063  79.5161438
  13.8881592  92.8301071  23.8526344  13.0012707  93.1213974  24.0642834
  13.8356880  92.5464486  22.9399395 111.1179209  95.3892015  16.6388702
 111.9355727  95.0208830  16.3041878 110.5325843  95.4003738  15.8815765
  10.5571464  49.5159175  13.0689144  10.2881340  48.6602150  13.4030342
  11.3830952  49.6990238  13.5167027  19.9428276 100.7609247   2.7001286
  19.0466598 101.0609888   2.8520393  20.4745869 101.2792896   3.3040810
  99.6611500  63.0076790  59.8577070  98.7831879  63.3888245  59.8693657
 100.1817322  63.6211872  59.3392134  31.4261107   1.8577283  21.0879231
  31.3051371   1.8924706  20.1390266  30.5376820   1.8107312  21.4410782
  73.6942720  23.3936501  70.6919527  73.4383154  24.3011642  70.5272245
  73.8414431  23.3540630  71.6369390  26.8723968  99.9277137   3.0061531
  27.0115951 100.2723144   2.1240520  26.2910561 100.5638431   3.4228230
  80.2013874  15.9585679  71.3276815  79.5659637  16.0704863  70.6206179
  80.6121159  16.8183398  71.4189005  42.1310810  90.1185344  58.4879208
  42.3316769  90.8276962  59.0987301  42.7027420  90.2800177  57.7373505
  80.2498103 103.1592582   3.7084770  80.8827353 103.6778949   3.2118416
  79.4928313 103.0845855   3.1274033  91.6792202  15.6563056  83.5175133
  92.1429443  16.3178194  83.0041027  91.9053555  15.8562088  84.4258881
  26.5615372  83.5307358  15.1876259  27.2511486  83.7920331  15.7978535
  27.0010189  83.4750675  14.3391037  17.1500019  70.2947878  15.0733280
  17.3248104  71.0625778  15.6175423  18.0118565  69.9062644  14.9233532
  16.2420182  12.3335211   1.6192818  15.4056363  12.6723235   1.3000488
  16.0602574  11.4213984   1.8456173  29.0863800  41.4090395  76.1725235
  29.4858503  41.9570494  75.4969931  28.7794065  40.6341839  75.7017851
  93.9752913  89.3832944  16.1096096  94.3757249  89.7211050  15.3085041
  93.0333758  89.4578384  15.9564018  57.2567749  27.8084278  66.1416769
  57.0642662  28.0501533  67.0476246  58.0863333  28.2451200  65.9483719
  36.7003731  31.3526653  10.1428890  37.5934032  31.0871361  10.3624916
  36.2109760  31.2445663  10.9583855  73.0002832  29.8196626  85.1859379
  72.6119471  29.5641828  86.0226917  73.9255142  29.9628997  85.3850842
  31.9387154  10.7338755  21.7185307  31.9232421  10.8816426  22.6641274
  32.2974162  11.5436356  21.3554096  48.1220488  12.4466794  32.0709229
  48.9767604  12.8303807  31.8747902  47.5366168  13.1987326  32.1598816
  15.7920555  98.4154914   9.2333031  15.3328613  97.9103159   9.9042416
  15.1806740  99.1136812   8.9988518  29.3487601  13.6616509  22.2766113
  28.6824231  14.2097609  22.6911068  30.0525574  13.6099236  22.9233170
  96.8726540  60.0020205  22.2564411  95.9242202  60.1256906  22.2940826
  96.9878102  59.0549289  22.1790600 108.4674931  45.0101519  63.7271118
 109.2573261  45.3763103  64.1250134 108.7784004  44.2535019  63.2300758
  82.6303101  89.1524029  86.3656044  83.1350517  88.3976650  86.0625553
  81.8773270  89.1894245  85.7757759  74.9428897  26.8247883  27.6800060
  75.0591139  26.0349219  27.1519661  75.0002532  27.5440018  27.0509815
  18.7133174   1.5358489   5.3536320  18.3164696   2.4068110   5.3665924
  18.6987548   1.2523835   6.2677860   7.0632557  88.3272956   4.6910286
   7.3065666  88.7270449   3.8560200   6.6587833  89.0383028   5.1881218
   7.2197155  38.1150161  40.1060867   7.1538643  37.5315665  40.8620453
   7.4738411  37.5419913  39.3826962  17.6109318  66.2427794  17.1201134
  17.9267601  65.7973562  16.3339329  18.3831314  66.3147913  17.6811409
  75.9456635  38.9312100  74.9333382  76.8415451  39.0746808  75.2383661
  75.7593060  38.0195689  75.1578617  87.9197502  25.0095272  81.4822102
  88.8221550  24.7321415  81.6402054  87.5453949  25.1162601  82.3566723
  10.9682182  81.7183899   5.7031345  11.6553215  81.9997309   5.0990009
  11.4164261  81.6100620   6.5419483  32.5417904  78.9179491  27.4352551
  32.5283245  79.8480939  27.2096920  32.4020294  78.8990449  28.3820152
  49.4914107  10.3331273  12.8016472  50.3851466  10.6526272  12.6776218
  49.3659930   9.6940606  12.1001530   1.6392807  55.1927082  42.3395062
   1.6604189  55.0734657  41.3899994   0.8185200  55.6568127  42.5044060
  88.4640026  47.0501947  78.2860565  89.1580772  46.3939571  78.2240152
  88.7393665  47.6231337  79.0017033  99.2830467  44.6871567  76.9468403
  99.7907543  45.4010534  77.3326015  99.8468018  44.3381214  76.2564898
  82.7982044  69.5883608  67.0570278  83.2948494  69.8708582  66.2890625
  82.6735115  70.3875351  67.5688934 108.0416679  42.6291943  47.3465347
 108.6803150  43.3408594  47.3900986 107.5371361  42.7102661  48.1559181
  85.0630856  62.4772358  83.6583614  84.9364758  62.4591970  82.7097511
  84.2385864  62.1481752  84.0163517  95.6326008  59.0545416  82.2211361
  95.3472614  58.7749624  83.0909920  96.1542797  59.8409176  82.3814487
  50.6895022  22.4184363  37.6927662  49.8877673  21.9002192  37.7627087
  50.4934935  23.0737059  37.0231152  77.9690218  55.7124710  71.8432570
  78.0482912  55.3432131  70.9637117  78.8727283  55.8408117  72.1314812
   1.9421343  62.5453662   4.4752407   1.4805559  62.1113257   5.1927280
   1.2644915  62.7105843   3.8197041  67.3433018  22.8903818  73.6271763
  66.8340635  23.6973643  73.5517645  67.9856348  22.9455090  72.9196405
  55.0275234  82.7611326  27.9972076  55.7937626  82.5618099  27.4592590
  55.3880886  83.1595968  28.7893200  82.7683310  23.4471839  16.1399746
  82.2736029  23.8420909  15.4219723  82.2820620  23.6900179  16.9278908
 108.6517334  40.7938528  79.8758888 109.0571690  41.5112543  79.3888712
 107.7107716  40.9381533  79.7758532  79.4722700  39.8441935  85.9285069
  79.7231293  40.4685163  85.2476788  79.6520042  38.9860129  85.5445099
  53.1765990  16.5701239  13.6480236  52.4605040  16.2279885  14.1831779
  53.9647059  16.3951390  14.1623211  75.7988886  15.0178330  25.5367184
  76.4171080  14.4669430  26.0168839  75.5681758  15.7125991  26.1534119
   3.1255011  97.8923200  26.3070107   3.8873676  97.9248594  26.8855667
   3.3583979  98.4597324  25.5721378  16.4183811 105.3224062   9.9084950
  16.8214992 104.5950054   9.4345570  16.8120960 105.2877544  10.7802868
 110.2029134  89.2658447   4.2503357 109.8493624  88.5879468   3.6744022
 111.1165238  89.0136884   4.3843651  29.8093609 101.3134025   1.8499660
  30.0210003 100.3822063   1.7842484  30.1190571 101.5686535   2.7189732
  86.0443783  29.1647553  90.9687710  86.8193817  29.6584415  91.2368774
  85.3092861  29.7416520  91.1762810  70.2308898  30.8369534  10.1965141
  71.1055808  30.4747288  10.3376865  69.8297076  30.8398240  11.0655785
  27.8860001  92.4313425  24.4376564  28.6041645  91.7986988  24.4527912
  27.9453186  92.8812336  25.2804565  93.1182242  84.1129182   1.6362286
  93.3235217  83.8884638   2.5438118  93.0720521  83.2697247   1.1855316
   5.3350548  79.1114400   6.2270355   5.3715471  78.7536143   7.1140862
   4.9839357  79.9948023   6.3393593  63.4320597   7.3689931   5.1358128
  63.3300070   7.9903691   4.4149017  63.0616431   7.8196566   5.8947086
 107.1128560 102.7840351   1.0790348 107.0208884 102.4263977   0.1959419
 107.9577780 102.4537586   1.3844109  46.9724993  12.8092091  15.8922005
  46.7709117  13.5463612  15.3158283  47.1556811  12.0826142  15.2966022
  68.1259298  33.9738512  90.5663300  67.9391384  33.7536693  91.4789486
  67.2861528  34.2691708  90.2144909  97.2246933  54.1406727  83.3718395
  97.9088879  53.7362432  83.9052582  96.9023705  53.4304142  82.8169727
  69.6493769  78.8021587  50.2347565  70.3655411  79.2306112  50.7035542
  68.9012767  79.3873213  50.3537560  47.9438357  15.2537911  17.9914951
  47.7672152  15.6777566  18.8313103  47.1164946  15.3143685  17.5139236
  54.0950108  59.0530872  81.9139290  54.3502235  58.2889986  81.3969421
  54.4783211  59.7962999  81.4481544  52.3532920  13.0802386  48.4466743
  51.6946749  12.4560731  48.1419277  51.8695883  13.6813491  49.0131760
  52.8010897   2.9674523  28.5453701  52.7912764   2.9912799  29.5022297
  52.4543624   2.1032279  28.3237362  25.4729465  85.1591133  18.4491444
  25.5470852  85.9014033  17.8493595  25.0213722  84.4850134  17.9413128
  83.1007385  39.8992801  87.6242161  83.5175705  40.6898737  87.2815132
  82.9024887  39.3769217  86.8469906   9.7470669  75.8089636   6.9274712
   9.3079094  75.3912233   7.6683235   9.2996696  76.6491316   6.8265533
   3.7348369  87.4606203  10.3546715   3.2638649  88.2896923  10.4386902
   3.8424686  87.3408602   9.4111061  40.6423764   1.3948720   1.0217476
  40.3199916   2.2945445   1.0754776  41.3841681   1.3697617   1.6261959
  47.1359496  20.5653517   7.8345108  47.5224642  20.7576316   6.9801903
  47.6654486  19.8470347   8.1807518   6.1168912  35.4974055  77.4374962
   6.6635564  36.2394691  77.6958227   6.1308339  34.9140429  78.1962633
  75.3191948  97.1932316  79.8374271  74.3626642  97.1670723  79.8130417
  75.5363417  97.1492004  80.7686329  76.3315773  30.0279570  66.5604162
  76.6746759  29.1480994  66.7165041  76.6489792  30.2573466  65.6869936
  88.7978745  64.6906519  83.3327198  89.1125774  65.1610231  84.1047001
  89.1185760  65.2047873  82.5917435 107.9513646  68.4915827  50.7783222
 107.4155331  69.2824064  50.7173824 107.3317624  67.7997027  51.0098839
  59.3222523  27.8645539  83.4668255  58.9128399  28.5802031  82.9805565
  60.2407026  28.1226277  83.5448170  43.1763411  51.0936785  81.8225384
  42.7557564  50.6975794  82.5857258  43.3294153  52.0032167  82.0785522
 110.3565311  55.6965780  80.3080940 110.5431557  56.2718582  79.5661688
 110.9597778  55.9854698  80.9928417 104.4516754  21.7733955  83.6522865
 105.3253841  21.3841939  83.6149120 104.4669533  22.4606895  82.9862309
  25.6061558  54.8610044  14.8816776  24.9775890  54.4040649  15.4405499
  25.6117443  55.7593091  15.2122021 100.3753185  71.6202211  68.6124992
 100.6580734  71.1811972  67.8102922 101.0643387  71.4254284  69.2477512
  32.6393180  14.9729817   7.4220943  32.8679709  14.4359629   8.1807518
  32.6464562  15.8709853   7.7534103  81.7687511  40.4692554  83.6127281
  81.9510937  41.0156059  82.8482151  81.6899014  39.5827961  83.2603073
  95.2903748  64.4903183  69.4491911  95.1344490  64.2018795  68.5499001
  94.4829750  64.2713213  69.9143553  92.3802853  71.4696836  58.9846849
  93.3313084  71.4285374  59.0851927  92.0374012  71.1879826  59.8328018
  90.8709621  47.3504543  87.5874233  91.7955112  47.5808430  87.4959755
  90.5478573  47.9268742  88.2799435  84.5800495  57.1369600  77.2237110
  85.2611065  56.6687298  76.7408514  84.1070843  56.4517069  77.6958942
  43.7235073  87.8498767  21.9687843  44.0832333  88.7153743  22.1630764
  42.9632954  87.7715705  22.5451183  31.3257221  97.4099277  19.7507000
  30.6389812  97.1381115  20.3595829  31.5698723  98.2885097  20.0417519
  13.2789806  80.3662394   2.3257732  12.3922924  80.1471637   2.0393753
  13.8205818  79.6478270   1.9990063  90.2008247  58.9773893  85.4062366
  89.5961571  58.3768034  84.9704456  89.6988583  59.3320036  86.1400700
  34.5825343   5.7808726  45.0031567  35.3710084   6.1440318  44.5998478
  34.7055821   4.8326724  44.9583626 104.7231341  89.9827741  16.5236855
 105.3749705  90.4089974  15.9671974 105.1341868  89.1591977  16.7863464
 104.8330784  67.2791672  86.7383671 104.1826534  67.5032139  87.4039364
 105.6221104  67.0662069  87.2366714  13.9965299  46.5817356  79.8408175
  13.8283971  46.0147142  79.0881872  13.3379510  46.3247490  80.4861641
  38.4370712 100.0444530  38.9125443  39.0362934 100.1821445  39.6461678
  39.0095238  99.8768781  38.1639099  13.9797977  79.6361016  41.4535713
  13.7077145  78.7885855  41.8055916  14.6363071  79.4206976  40.7911301
  90.3372002  40.4780149  83.1862354  89.9634075  39.6873546  82.7971745
  89.8836422  40.5701017  84.0241146  87.8865814  68.7601900  59.8749304
  86.9612026  68.8963890  60.0782871  88.2627201  68.4202194  60.6868267
   9.2559914 102.8468870  10.8473301   9.8325733 102.0850490  10.7891178
   8.4587006 102.5793289  10.3901863   5.7268719  76.6262315  25.0478268
   4.9012760  76.8861698  24.6391106   6.2062839  76.1747001  24.3531895
  31.5649657   6.4303677  13.2322121  31.9361024   7.2260850  13.6134243
  31.3595109   5.8770554  13.9857769  57.7833419   4.9015801   7.7207470
  57.2172980   5.0014203   8.4861660  57.2354560   4.4567673   7.0740700
   6.5900949  51.8741035  83.0575562   5.7457021  51.7397881  83.4878826
   6.7458871  52.8161621  83.1245327  74.8450808  24.9793761  25.4314423
  75.6418185  24.4915335  25.2229881  74.1335635  24.4217579  25.1167202
  51.5211253   6.4981835   7.8426552  51.3217311   5.5801432   7.6591492
  50.8952479   6.9900982   7.3111153  49.5430998  17.8700726  13.1038475
  49.2229609  18.7602942  12.9580879  49.9169402  17.8912156  13.9847755
  81.6749382  87.1177483  51.5547609  81.2171078  87.6260662  50.8852482
  81.9177723  86.3039112  51.1132479  56.6860104  76.9109726  55.0617027
  57.6177073  77.0508862  55.2308083  56.5084028  77.4149609  54.2675447
   3.4666161   9.5461266  29.7761917   3.4225802   8.7650387  29.2246532
   3.4169631  10.2772658  29.1604042 107.3575211  69.8734379  84.3883133
 107.6909733  69.4641352  83.5898685 106.4565182  69.5584774  84.4606209
  92.0540142  75.0588989  89.6072769  92.9544640  75.1937675  89.9026203
  91.7466450  74.3058920  90.1119900  13.6852364  12.8488391  22.2810173
  13.6819415  12.9340165  21.3276196  14.4042067  13.4111970  22.5692368
  43.3869270  80.5458544  32.8955269  44.1115002  80.7507347  32.3045444
  43.0457596  79.7106908  32.5756359  26.0053258   9.6772997   8.6181736
  26.0290532  10.2898018   7.8829861  26.0965638   8.8144009   8.2140636
  74.1765547  33.3989310  77.6549101  73.7308693  32.6422644  77.2740507
  73.5832453  34.1325569  77.4936295  29.6939187   1.3770907  14.1278553
  29.3442158   0.7351868  13.5098743  29.1361813   1.2935059  14.9012756
  50.6959586   9.1122382  19.1672897  51.5929274   9.4045966  19.3291759
  50.2241568   9.3305390  19.9710274 105.5707838  14.3859522  20.1653099
 106.2174632  15.0202696  20.4746342 104.9554755  14.9045794  19.6469879
   5.4609732  77.6867412  19.4732666   5.4856686  76.7452453  19.3023586
   4.5660261  77.9464744  19.2545509  72.7198601   7.6992452  75.9856939
  73.6233473   7.7458948  76.2983799  72.6336098   8.4440053  75.3906107
 101.3370132  26.2855625  81.6468716 101.2947559  26.7576885  82.4784660
 100.5577087  26.5706372  81.1697483  89.7910742   0.4970019  40.7845306
  88.9565615   0.2194302  41.1623859  89.8730807   1.4172309  41.0348988
  94.7702694  43.0973768  84.7549629  94.1422844  43.3414507  84.0750408
  94.5473385  42.1924353  84.9731922  86.9823170  54.3851376  82.2217846
  86.8933105  53.8118362  82.9831219  87.9150486  54.5977640  82.1898079
  97.9335976  45.2771187  49.1286802  98.6560631  44.8309278  48.6868715
  97.3981857  44.5691872  49.4870090  12.9650501  96.5984415   0.0237751
  12.1018604  96.7724680   0.3990650  13.0808643  95.6529258   0.1177216
  96.0460663  42.2598839  87.4378395  96.1328506  42.7800894  86.6390324
  96.6035843  42.7055454  88.0756474  86.8868732  43.4115648  68.2873154
  85.9747601  43.3661699  68.5740614  87.3053360  44.0033484  68.9125490
  79.0818357  51.2466240  76.0669899  78.8005972  52.0837212  75.6976557
  78.2664061  50.7919264  76.2780809  97.1083450  76.1241198  52.0566225
  96.5820312  75.3977776  52.3907661  96.8729973  76.1843634  51.1307621
  44.2209391   8.6481516   0.2001095  44.1967730   7.7081626   0.3792000
  45.1508860   8.8475602   0.0920677  59.6486239   7.1674388  15.4962540
  58.8213305   6.9917433  15.0479794  59.9030928   6.3232796  15.8689213
 108.2909870  58.7059402  85.3320980 108.9760399  58.4483719  85.9490204
 108.7117004  59.3495512  84.7620201  66.7348151   2.4482005  26.8533707
  67.0610099   2.7434342  26.0032749  66.5217070   3.2553952  27.3216248
  91.9180584  58.5013580  70.7812166  92.7812099  58.6129856  71.1796331
  91.4556313  59.3156624  70.9794569  29.8919872  76.2230204  25.8522701
  29.6643261  75.3050874  25.9999466  29.1317181  76.7119859  26.1671448
  45.9707931  99.8772548   7.1315575  45.1071552  99.4670414   7.1771812
  46.1066440 100.2471279   8.0038929 102.4783660 104.5178245   7.3772526
 102.8707410 103.8270448   7.9112053 101.6324616 104.1604446   7.1071529
  97.5889206  40.4539919  83.8659763  96.6459179  40.3160095  83.7769032
  97.7742100  40.2565050  84.7840786  53.8316393  76.1879158  91.1518764
  53.9585638  75.5821323  90.4217052  53.0459499  75.8676481  91.5950012
  54.2222122 102.5425457   8.9004803  54.6464542 102.8524040   9.7006226
  53.4007839 102.1531795   9.2002678  68.4456305   7.7487176  49.6841145
  68.3890872   8.5897248  49.2305279  67.5497584   7.5700753  49.9700165
  52.2711043   2.8281300  10.2127743  52.2958712   1.9747489   9.7799206
  52.5384383   2.6474469  11.1139488  46.9288544  93.5077022   6.6228867
  47.4520782  93.1675314   7.3486614  47.1280865  92.9248642   5.8901978
  94.2408038  79.9078535   9.1984940  94.7557355  79.1033672   9.1362190
  93.3625890  79.6121429   9.4383335  85.1473331  30.6398559  73.1495047
  85.2225590  30.4028988  72.2251511  85.8665371  30.1735592  73.5755873
 108.1742573  12.1697295  63.2242203 108.4714985  11.7748427  62.4044991
 108.8377190  12.8292954  63.4267521  45.5880503   3.5985224  10.8115768
  45.3409342   4.5198338  10.8912563  44.7604804   3.1403773  10.6650829
  87.5576115  55.6241894  76.5983725  86.7744160  55.3025436  76.1518621
  87.7601528  56.4511204  76.1608791  18.3183483  74.6203588  31.7210770
  18.9006428  74.2577671  31.0534668  18.8571171  74.6632455  32.5110912
  18.9090828  94.1353153  17.6741600  19.7741321  93.7438654  17.7953243
  19.0517715  95.0739692  17.7958298  63.6965895  38.2936287  85.7150364
  62.8280354  38.6527514  85.8963585  64.2675972  38.7104106  86.3603878
  81.7807007  17.3128343  79.2496824  82.4248791  16.6788805  79.5649004
  82.1396255  18.1639683  79.5006323   3.1205802   5.2864735   9.5453835
   4.0525393   5.1197093   9.6863747   2.8348689   4.5774596   8.9692783
  82.5220108  38.1557107  91.0649586  82.8314114  37.3174286  90.7217598
  82.0768166  37.9304481  91.8818378  95.6669331  42.3370266  76.0004330
  96.4515781  42.0181465  75.5544710  95.0446033  42.5119448  75.2944946
  83.6379433  61.0517693  73.5088491  84.5562458  60.8974600  73.2871628
  83.6648464  61.4434862  74.3818140   6.9733290  11.0377114   3.3072281
   7.1236806  10.2560561   3.8388634   7.6260714  11.6662734   3.6155605
   9.1779140  60.9635084   1.0824966   9.1530994  61.8948208   1.3022041
   9.7740845  60.9094380   0.3355694   9.5995811 103.4015964  39.2690945
   9.3695358 102.4726223  39.2512321   8.9653210 103.8166879  38.6845970
  27.7397922 100.4701828  21.7002869  28.2852367 101.2545274  21.7597103
  27.2519592 100.4547428  22.5236988  60.9744506  12.6800864  10.0008583
  60.3083758  13.2836859   9.6718597  61.5103392  13.2121937  10.5890083
  77.7885389  52.6646328  82.6774025  77.1273184  51.9871855  82.5356865
  77.7405119  52.8538895  83.6144829  87.2274590  42.1035290  74.3787146
  87.9235744  41.6687155  74.8712540  86.9014549  42.7805424  74.9716759
 105.8196784  68.6870168   5.1054573 105.0357629  69.1699551   5.3671360
 105.4955769  67.8218387   4.8551369  70.9031010  40.3486490  68.4018230
  70.2484751  39.9165916  67.8531647  70.4318237  40.5751991  69.2035723
  10.5295186  25.8557694  18.0212975  10.2678303  26.3598817  18.7917709
  10.7595591  26.5174143  17.3689651  85.0992203  55.5227804  80.8611870
  84.3086147  55.5168295  81.4007568  85.7603073  55.0883818  81.4001560
  82.4646760  73.3573960  10.3429985  82.8184129  73.4508227  11.2275124
  81.5249921  73.2297348  10.4730892  13.7883525   5.2254431  17.9006481
  13.4038834   5.6614201  17.1401596  14.3255381   4.5255988  17.5293255
  49.0556864   5.9663289  16.1256981  49.6627383   5.6265204  15.4682446
  48.2616381   5.4442399  16.0110664   5.0043062  80.0411295  26.7864990
   5.4693798  79.2690729  26.4642239   5.6930164  80.6866191  26.9453907
  58.6413479  37.9288292  81.4056873  59.1841841  38.6626077  81.1173630
  59.2615080  37.2139215  81.5490055  50.3704265  97.1705650  26.7187595
  49.7881607  97.2592710  27.4732971  51.2492279  97.1387027  27.0968151
  60.8855963  50.5534983  90.7660961  60.6296682  49.9357414  90.0811863
  61.3330841  51.2583256  90.2978992  29.4476322  85.7431244  35.7263279
  29.6029476  86.6723584  35.8955383  30.2045921  85.3000806  36.1096668
  28.2438235   8.5956376   4.4249153  28.1114773   8.8704341   3.5176086
  27.7473025   9.2298405   4.9421024  49.3005137  24.5659583   3.7102604
  48.6953883  24.6347611   2.9718018  49.0107207  23.7873309   4.1856480
  44.0230326  27.2564356  19.1744995  44.6411662  26.7818778  19.7303295
  43.4868960  26.5720694  18.7739658  83.7347412  52.8760290  86.5162849
  84.4076729  53.5008955  86.2462139  83.8235474  52.8248358  87.4679852
  81.4621925  45.2763796  74.3436766  80.5674744  45.3310966  74.0079355
  81.3867378  45.5175638  75.2669144  24.7290329  78.4249662  33.0926800
  25.4481129  78.4676884  32.4623394  25.1337532  78.6411117  33.9327431
  59.1058016  75.7813025  78.1925726  59.1778517  76.3310146  77.4122810
  58.2420969  75.3750515  78.1204319  53.6549234  25.7476664  61.3853979
  53.4342623  26.5570736  61.8462706  52.8964949  25.5753708  60.8274221
  46.3708262   2.3773234  13.6341190  46.2551169   1.4336007  13.7447071
  46.2583308   2.5239890  12.6949310  51.3511996  21.4373725   0.6511688
  50.5743365  21.5643256   0.1065636  51.6811328  22.3221676   0.8077335
  93.4017849  52.1995163  83.4017372  93.3381748  52.7478600  82.6197529
  93.5065937  51.3104343  83.0629444  13.6097196  37.0909476  50.9406996
  13.7261918  37.7305746  51.6432285  14.4127420  37.1542215  50.4236126
  84.9154282  74.2604351  78.7268162  83.9665031  74.3206882  78.8370180
  85.1371098  74.9945354  78.1539345  41.0355382   0.4571431  14.9216366
  41.4456849   1.2582677  14.5957375  40.9990410  -0.1204927  14.1592503
  50.5731730   7.6483290  14.0028381  50.5722098   7.8076213  13.0589867
  50.5657820   8.5222666  14.3932343  85.9850693  45.1958942  60.7654238
  86.8844414  44.9219179  60.5857086  85.9899521  46.1423731  60.6226444
  87.6102976   8.3054965   3.4836102  87.4731402   7.5947182   4.1098785
  86.8198828   8.8409989   3.5521889  80.2865653   8.9749329  35.4899311
  79.6765380   8.5572522  36.0979176  81.1392741   8.9026396  35.9187508
  82.1330357  36.4351988  73.0647659  82.4869347  36.7310357  73.9034986
  82.2789574  35.4891896  73.0635262  66.6232682  93.4890007  28.5381317
  66.5119029  93.2242654  27.6250362  65.7432271  93.7313388  28.8262844
  53.8638358  17.3132842  35.8219528  53.9251570  18.2651131  35.7414055
  53.0214171  17.0930522  35.4243755  36.3557342  98.3677505   9.7608471
  36.7757992  97.7157281  10.3217793  37.0602039  98.9722084   9.5271969
 107.2668029  48.2478286  28.1798267 107.7194978  49.0894924  28.1259632
 107.5876904  47.7545349  27.4248886  71.9448376  44.0871477  78.1490040
  72.0692778  44.1642189  77.2030640  71.2067032  43.4853792  78.2452393
   9.7064832  22.2735071  84.1569710  10.3275827  21.9333172  84.8009682
  10.2077249  22.3214960  83.3429146  15.9162192  27.7967827  19.5608425
  16.4508013  27.8962033  20.3486061  16.4963154  27.3705189  18.9299488
  99.6626521  54.4865751   5.4117775  98.9170361  54.1306490   4.9284458
 100.4246045  54.2566723   4.8799896  12.8528599  95.3059076   4.5780468
  12.0920566  95.1578640   5.1397419  13.3987335  94.5298885   4.7047329
  58.8131666  61.4954758  82.7507591  57.8994036  61.2780905  82.9351997
  59.2264175  60.6529427  82.5620937  77.1709061  64.3716288  73.8330650
  77.3124409  65.1940489  74.3019199  76.9438076  64.6395731  72.9426336
  19.3443684  94.3929933  44.0911675  19.0518383  94.1361641  43.2166958
  20.0970749  94.9630808  43.9341164  35.6733422  30.9597581  12.7536011
  35.6117491  31.6023629  13.4603596  36.3403086  30.3405945  13.0503082
   1.6222242  99.4961856  10.9188461   1.2736849 100.3684114  10.7345390
   2.5725559  99.6090053  10.8995342  96.0817528  75.5381632  62.4913883
  95.4356575  74.9761868  62.9191446  95.8396530  76.4256954  62.7557898
  22.6791909  43.2607222  87.1726608  23.2378057  43.1389189  86.4049721
  22.5973275  44.2103100  87.2610664  78.9504100  95.0834249  14.1807270
  79.2142440  95.4644226  15.0182533  78.8747359  95.8327507  13.5899544
  59.8236084  56.3541842  81.8360710  59.9130964  56.3182163  80.8837414
  59.2401648  57.0964098  81.9939518  63.6946917  58.4683371  83.3365250
  63.5420609  58.8371754  84.2065239  64.5631838  58.7867212  83.0903912
 109.6578026  58.0599070  71.6203976 109.3027973  58.2078934  72.4969292
 109.0140629  58.4538317  71.0316181  69.6027422  36.6385579  79.9108982
  69.1733456  35.8439636  79.5939255  70.1394224  36.9309378  79.1742039
  22.2894195  80.4086994  15.1408482  22.5326160  80.3154658  16.0619354
  22.0896248  79.5174574  14.8544884  44.9449591   8.9336865   9.8172760
  45.3575949   8.8739627   8.9556503  44.2075877   9.5303719   9.6888733
  12.3875336  90.5865048  25.0114918  12.7223019  89.6919154  25.0736713
  13.1022552  91.0824941  24.6122456 100.5185509  90.5372451  36.7398357
  99.8317099  90.3897499  36.0896587 100.0780011  90.9993027  37.4530315
  30.3484635   7.0654862  34.8006821  30.3726582   6.3758557  35.4640484
  30.8780627   6.7236083  34.0803528  26.1826853  13.8221018   7.7673340
  25.8702616  14.6821873   8.0481815  26.6479830  13.4759085   8.5288334
  34.1698413  11.1373274  50.4617596  34.1466670  10.6656640  49.6291542
  34.0030865  12.0496504  50.2249241  79.5234632  54.9918461  67.8642416
  79.8235750  55.8902359  67.7261925  80.1498604  54.6231079  68.4870481
  70.3497076  31.6741085  79.8461246  70.7679749  32.4232793  80.2704239
  71.0675097  31.0646152  79.6743536  36.0795979  17.5516074   7.0034599
  35.8208995  16.7498772   6.5489960  36.5362553  18.0670683   6.3386345
  69.3489413  26.3012879  42.1231079  68.5069136  26.1094229  41.7102909
  69.9119239  25.5696385  41.8701935  91.0701232   0.1317446  16.7399883
  91.0137801   1.0502188  16.4764309  91.2309222   0.1626151  17.6830769
  77.8913785  89.8799966   3.0515766  78.7494088  89.4647740   2.9643440
  77.8635216  90.1839708   3.9587975  99.4037342  86.7001629  87.5461292
 100.1700878  86.2247562  87.8669357  99.7521019  87.5376415  87.2403431
  83.1246471  44.2762804  59.7047758  83.8855839  44.2619276  60.2852917
  83.1122589  43.4068346  59.3045902  20.3530125  49.5882981   1.0520744
  20.2743201  48.7627785   1.5301418  19.6334986  50.1260846   1.3827229
  83.7737274  84.4139957  81.1581802  83.0420876  84.0971661  81.6878510
  84.3892097  84.7790718  81.7938900  48.2894854  12.7511828   7.9979515
  49.1222720  12.7433341   8.4698009  48.2953696  11.9410269   7.4882030
  92.1608353  35.4333639  88.2478619  91.4797020  35.0983810  88.8310146
  92.9184532  35.5682564  88.8171196  41.2190060  99.8251127   4.5791721
  40.5218986 100.3408264   4.1738129  40.7888512  99.0155719   4.8545647
   5.1589826  21.4176178  89.7128677   4.7623971  21.8501425  90.4690933
   5.8185342  22.0373368  89.4011402  85.9800486  20.0632804   0.7237816
  86.0821013  19.2514985   0.2269650  85.5876593  20.6766312   0.1024342
  34.8579220  89.5038723  29.7916031  35.7042316  89.1661738  29.4984341
  34.6492199  90.2002810  29.1689587  45.6260829   3.3823626  20.7867241
  45.2976851   4.0564530  20.1917553  45.4317240   2.5564664  20.3436089
   0.4872902   0.6761973   7.4547100  -0.3283779   0.2396767   7.2090054
   0.2717788   1.6087859   7.4463844  17.7508977  71.8482685  88.8780594
  16.8395379  71.8581676  88.5855484  17.7446321  71.3001871  89.6627903
  26.7565826  89.2396258  39.7172260  27.1029858  88.8952397  40.5404186
  26.8041138  88.5013364  39.1098595  90.1079082  78.9615154  78.9994192
  89.5230103  78.2688999  78.6921597  89.9433899  79.0137911  79.9409199
   9.6190408  49.3971920  75.6220198  10.3356031  49.5848227  75.0157499
   9.8576978  49.8596764  76.4253807  61.5305857  19.2528193  15.0212955
  61.3073496  18.5928195  15.6776524  60.7556586  19.8124783  14.9712181
  43.9637046  35.4468911   2.6683617  43.7793116  34.5215504   2.5072002
  43.2176928  35.7535260   3.1838036  70.7998371  90.3176498  63.3677578
  70.3896189  90.5385017  64.2039251  70.0698137  90.0670815  62.8016186
  16.6669992  68.6439753  78.8984680  17.2704175  69.3835402  78.9702511
  17.1975091  67.9367304  78.5316086 106.8254757  46.6339731  52.2422409
 106.2468815  47.3899603  52.3419476 106.7492104  46.1629057  53.0720043
  73.0160236  40.1837206  79.7843075  73.3156109  39.9418139  80.6606388
  73.7480497  39.9583554  79.2102242  22.9312661  62.8052855  66.7317581
  22.4768594  63.2378149  66.0088015  22.6816323  61.8844175  66.6548395
  93.4419918  90.0678921  83.0957031  94.0559578  89.6167564  83.6751556
  93.2986832  89.4548988  82.3746395  93.6893177  74.3658829  63.8376856
  94.2505646  73.6224604  64.0580559  93.2745266  74.6066713  64.6660519
  42.2763495   0.9923117  58.6164093  41.3492779   1.0257952  58.8523006
  42.2956757   0.5120270  57.7886486  40.4969554  34.0570347   1.2152481
  40.3872637  33.7614434   2.1190262  39.7743992  34.6687310   1.0739422
  92.1380667  10.9733956  36.2775517  91.2884001  10.6114047  36.0260201
  92.3758464  11.5520280  35.5530739  85.8626747  32.2815204  84.7553253
  85.9694672  32.0113993  83.8432598  86.6744137  32.0082498  85.1826668
 102.2455120  65.3317595  78.3088493 101.4612579  65.8120632  78.0433750
 101.9806576  64.4121027  78.2910156  84.9801020   4.8991053  41.3503838
  85.4073195   5.7158272  41.0921478  85.6148867   4.4670575  41.9218826
   3.9939073 100.6765340   8.6334324   4.1707662 100.2138828   9.4525146
   3.8793281 101.5903162   8.8944054  12.1814827  94.4852995  13.7098122
  12.4766926  95.3762745  13.8975620  12.9537777  94.0475343  13.3518314
  62.1681023   2.4513435  76.1303329  62.1308470   2.0727368  75.2519846
  62.5456047   3.3213007  76.0003471  84.0191174  95.5154133  83.4016705
  83.6205292  94.6488762  83.4821892  83.3942986  96.1064243  83.8218498
  20.8118729  86.4753007  14.3534279  21.5833763  86.7964672  14.8201942
  20.7650665  85.5462144  14.5788956  64.9062686  32.7544873  11.7762756
  64.7593455  31.9172185  12.2163105  64.0392546  33.1577866  11.7331505
  77.1364164  50.8992720  78.1671143  77.0529985  50.0554705  78.6112690
  77.6391220  51.4413261  78.7751436  74.5088725   9.8142283   6.3457584
  74.1539912   9.5470564   7.1936512  75.2329402   9.2084878   6.1875534
  93.8379574  84.0858459  71.2472248  94.1182899  83.4891033  71.9411612
  93.5957050  84.8900795  71.7062998 101.5531254  63.9932632  57.2387457
 102.4685574  64.2582512  57.3281813 101.0976601  64.7916842  56.9717312
  24.5160203   1.1721270   4.9941349  23.8743882   0.7848542   5.5895901
  24.9000601   0.4242413   4.5365238 104.0566540 104.1956352  37.5005150
 104.0894461 103.9996265  38.4368515 103.1548787 103.9997505  37.2462463
  24.4339757  19.5436423  13.1395054  24.1988377  19.2035763  14.0028095
  24.9798731  18.8589614  12.7529240  39.2287306  52.3612874   0.5453110
  39.3377261  51.4436429   0.7948589  39.5936207  52.8543084   1.2801743
  73.3801894   1.1086314  44.5743370  72.6030879   1.2336056  45.1190758
  74.1156821   1.2320225  45.1743793  43.7349467  13.1201451   7.7525330
  43.6081557  13.3799403   6.8400288  44.3350367  13.7761634   8.1071663
  31.8025880  45.4364293   6.6818047  32.3363404  45.1225560   7.4117565
  32.0539765  46.3542359   6.5785599  88.8737679  64.4089699  27.9371095
  89.4941998  64.5849133  27.2297621  89.3209171  63.7726736  28.4951591
  96.0245705  77.0185614  72.9510069  96.4794731  77.4823284  73.6540079
  95.1011658  77.2356415  73.0791998 103.1100559  45.8536911  70.1170254
 102.7483463  44.9786806  70.2575493 102.3679447  46.3726807  69.8069525
  79.0102911  27.2489333  75.3218460  78.1552553  27.2981191  74.8943806
  79.2894459  28.1607652  75.4047155  24.3575720   7.0505231  11.0752010
  24.1188531   7.9406779  10.8166027  25.1730446   6.8752425  10.6056118
 111.0260253  14.1154378  21.3536263 110.5655055  14.9544947  21.3418865
 110.3640704  13.4752362  21.0924912  60.3557925   6.1480754   6.4544010
  59.6413283   5.6825965   6.0195351  61.1232142   5.5933516   6.3145256
  69.2787127  19.7875922  40.5327892  69.8434691  19.0271275  40.3950882
  68.9946322  19.7131198  41.4438248  23.3211044  94.1512130   6.0381126
  23.4026626  95.0829815   6.2415791  24.1645626  93.7760662   6.2912369
  84.3319087  41.7502778  19.6398163  85.2831511  41.6848557  19.7239494
  84.0240531  40.8454411  19.6920300 100.9087276  51.6477156  60.3483963
 100.6340218  50.9191084  59.7917080 100.0986195  51.9596815  60.7516766
  74.9731350  76.5035534  86.3055515  74.8971891  76.7862272  85.3942013
  75.8694887  76.1762762  86.3809109  33.9784722  28.5856526  11.4943218
  33.6820941  29.0930073  12.2499466  33.9507537  29.2044537  10.7645607
  91.1453342  32.1361756  81.8514538  90.2441120  31.9544506  81.5849781
  91.6733265  31.5152287  81.3495827  58.1367068  26.6548579  17.4623680
  58.9241080  26.5071290  17.9862118  58.1081633  25.9128420  16.8583584
  88.7426281  67.9208374  62.3728371  88.6408901  66.9955778  62.5959396
  89.4200039  68.2381487  62.9700899  56.4261965   1.2320511  36.2892818
  56.2724738   2.1764510  36.2626362  55.5599360   0.8447402  36.1635685
  84.4601345  44.4993591  89.1732121  84.9301434  45.3310394  89.2334747
  83.6572075  44.6411228  89.6746445  10.1524594  71.8561935  79.8761940
   9.4931367  72.3490191  79.3876791  10.6265119  72.5207281  80.3760910
   8.1783489  99.1369938  10.9847832   8.7038044  98.3560918  11.1589432
   7.6333717  99.2379211  11.7651939  74.5906067  57.3061752  84.7258854
  73.8436747  56.7277575  84.8800278  75.1768827  56.7964268  84.1667175
  53.0102496  41.0861390  13.5453606  52.5767474  41.8444531  13.1538582
  52.2931819  40.5059140  13.8010883   4.3299249  90.8739662  83.4430122
   3.8412717  90.0591660  83.5593987   3.7127450  91.5612888  83.6938095
  80.8776760  81.2668514  78.1395149  81.0362434  82.0750046  78.6273384
  80.0042152  80.9883976  78.4147787  68.1083350  38.5260956  -0.0771809
  69.0265803  38.7880032  -0.1439571  68.1246047  37.7286427   0.4520130
  48.7940077  15.1449864   6.8936157  48.8052706  14.4139664   7.5114441
  49.6680312  15.1422255   6.5033340   1.0539296  32.4464440  89.2379951
   1.7227605  31.8192244  88.9632416   1.4525750  32.9161477  89.9705887
   3.3015303  11.2304156  52.7549934   3.8008933  11.7595999  52.1330357
   2.4194483  11.6013425  52.7309990  55.0107913  29.0352624  47.9621696
  54.2161326  29.2921250  48.4298992  55.2246718  28.1697934  48.3106804
  92.1312523  39.8270392  59.6796656  92.1142006  38.8870168  59.4999409
  91.4189053  39.9644661  60.3040838  65.5565314  33.9770787  17.6819706
  65.3424220  33.9336579  16.7500305  65.2326445  33.1509392  18.0408764
  63.6131334  67.9953718  81.6238689  64.2377472  68.6882401  81.8383980
  63.2111931  67.7672863  82.4621105  94.5807552  24.2415357  90.5459404
  93.8450241  24.8359466  90.3989983  95.3298569  24.6845126  90.1473808
  49.4129042  15.8787482  11.3445663  49.2922740  16.4794963  10.6091881
  49.3873839  16.4403432  12.1192837  12.3090938  91.8986629  27.6277542
  12.5881771  91.3738774  26.8774509  12.7246479  91.4793013  28.3811951
  66.0227585  47.9748774  87.2486591  66.9782591  48.0224943  87.2173119
  65.7458401  48.8636446  87.4714661  47.1133284   7.7798216   2.1867466
  47.7518038   7.1207230   2.4590778  47.6431708   8.5330002   1.9255447
 107.3501778  70.2629614  75.3640079 108.1931305  70.0103521  74.9873638
 107.5676632  70.6009769  76.2327290  72.8108311  22.0352626  80.9218311
  72.5720644  22.4092364  81.7699909  72.1462297  22.3670506  80.3181362
  63.1219006  36.2559271  82.9281425  63.1924486  37.1699190  83.2035923
  63.1860256  35.7550716  83.7413216  74.6695995  65.3961515  76.9732809
  74.0491962  64.6774912  76.8513727  74.6184492  65.8973789  76.1594105
  20.2130370  44.8542779   1.2960243  20.0435881  44.9351399   0.3574181
  19.4427066  44.4023793   1.6404152  89.7009329  14.4479554   8.7254238
  90.0791125  14.7674267   7.9061890  88.7677054  14.3501847   8.5363483
  65.4475307  74.7640896  61.0703182  65.4938269  75.4358006  61.7506790
  64.8263454  74.1204643  61.4110613  95.6905746  60.8092976  89.2152500
  96.3463116  60.4195356  88.6370373  95.1344776  61.3264036  88.6325073
  52.8463702  27.0221179   0.3667641  53.6283450  26.4702504   0.3806591
  53.1174426  27.8097623  -0.1047993  55.8790164  16.5519278   9.1715145
  56.6836791  16.5911667   8.6545849  55.9402423  17.2988169   9.7670269
  37.7938037  24.8768513  23.2611752  38.6972289  25.0040667  23.5507870
  37.3388533  25.6716626  23.5396099  72.8343248  72.8150845  88.5993862
  72.1113825  73.4116125  88.7936687  73.1909275  72.5836229  89.4569969
   5.8754066  82.0765709  22.4217987   6.6392712  82.6528572  22.3965645
   6.1482624  81.2959574  21.9396973   1.4287809  90.9411572  23.5301209
   1.3490251  91.7807602  23.0774212   2.3368887  90.9169959  23.8317585
  63.8962078  33.9274812  90.8033276  63.2512140  33.2358766  90.9513187
  63.4034538  34.6265340  90.3734970  74.6837668  21.9078915  21.0984993
  74.0416579  21.4150183  20.5876160  75.4941229  21.4055770  21.0133553
 105.1583862  63.3482885  71.0108042 104.9141216  63.3022928  71.9351673
 104.4660568  63.8706970  70.6058264  21.7420724  72.7118063  60.8281469
  22.3556378  72.5267363  60.1171541  21.4957193  71.8493891  61.1624813
  26.6546539  94.4536565  14.6703148  26.1981205  95.0653576  15.2479267
  26.7366890  93.6521219  15.1870823  96.5923023  64.4664288  79.0260267
  97.3445606  64.7026873  78.4833241  96.3746643  65.2708340  79.4969797
  70.8154063   1.0602086  33.6929607  69.9041991   0.9789412  33.9746284
  70.7628779   1.1868279  32.7456284  90.2456717   3.5495465  40.7365227
  90.8190303   3.6619179  41.4947224  90.7071261   3.9860909  40.0204849
  49.9313216  33.9392274   1.7556572  50.6292395  33.5428422   1.2341022
  49.1415839  33.8217824   1.2276840  97.7459717  86.8268204  85.3386116
  98.2892036  86.7754936  86.1250591  98.1041431  86.1571312  84.7559834
  89.2767386  21.3979380   1.1942291  88.4390502  21.2009423   1.6133976
  89.7833686  21.8470948   1.8708611  79.6140194  75.4031086  78.6036825
  78.7670851  75.8484507  78.6283588  80.2541447  76.1101580  78.5227156
  92.4584389  70.4496622  70.3694057  93.1458759  69.8322153  70.6192636
  92.9194069  71.2762547  70.2262592   7.3104337  47.1762085  69.9290419
   7.1388295  47.9242420  70.5010843   7.2603944  47.5356150  69.0432882
  33.7804227   2.7150576  10.1619244  34.2591815   2.5281470  10.9694386
  33.0371909   3.2491343  10.4422855  78.7884669  21.2195675  44.0827084
  77.8339915  21.2853663  44.0531635  79.0839343  22.1089070  44.2776680
  24.8004440 102.6811765  13.5914993  24.4339184 102.1824764  14.3216991
  24.8908810 103.5715555  13.9310265  92.1641254  55.4240417  69.7408009
  93.0888081  55.2329302  69.5837069  92.1611500  56.3086128  70.1065207
  83.6736965  66.3912439  61.9994307  83.3200169  65.5018806  61.9862986
  83.8043690  66.6106796  61.0769320  75.9474993  61.1144733  68.5163784
  76.2904596  61.9302988  68.8811207  75.0382280  61.0827303  68.8137913
  11.0283283 104.1294073  12.4202442  10.5940060 103.5735773  11.7732143
  10.3123287 104.5045875  12.9328918  17.6699786   8.8915484  30.7983971
  18.1855540   8.9257043  31.6041565  17.4940400   9.8085158  30.5875683
  30.5337623  68.5955368   8.3998871  29.9313167  68.7942837   7.6830959
  30.8313183  67.7032744   8.2222462  75.8286338   2.4910967  15.0292587
  76.1357455   3.1686442  15.6316280  74.9300723   2.7460711  14.8199749
  32.6105694  29.2090695  39.1266823  31.7816453  29.5209019  39.4898224
  32.3656087  28.4679978  38.5725784  52.5501971   8.6001914   9.5460033
  52.0610194   7.7815764   9.4635391  52.8651290   8.7812798   8.6604214
  98.4599781  82.6538658  86.0351944  98.4334183  82.7805233  85.0867844
  97.6089573  82.9662228  86.3424778 101.3595867  69.4423342  80.7559490
 101.3490677  68.5493374  80.4114437 101.6722488  69.9769402  80.0261021
  63.7207369   2.2400944  16.6567326  64.3534999   1.6008847  16.9842243
  64.0225463   2.4440043  15.7715416  80.7319355  93.5744762  67.9108000
  80.8413315  92.6366901  68.0683327  81.6248226  93.9181519  67.8812981
   7.2391323  90.4866551   2.4469948   6.3668636  90.6666635   2.7976799
   7.8156856  91.0876249   2.9188633  62.6921610  15.0576728  14.8874569
  61.8820338  15.5015175  14.6366024  63.3710818  15.4853623  14.3655491
  60.8824401  18.5755103  26.2963581  61.6140036  18.3541386  26.8725872
  60.7543616  19.5157044  26.4223003  59.8896842   6.5389578  10.8710670
  60.4500727   6.3063233  10.1307487  60.3062586   7.3113148  11.2533665
  18.4278778  95.5535339  10.8954048  18.2421688  96.4837812  10.7673931
  17.9042915  95.1106571  10.2276134  20.4047398  97.7624677   7.1523762
  20.9422497  97.4504732   7.8803635  20.5623344  98.7062238   7.1255493
  65.4608302  24.9867337  24.9179554  64.9362235  25.7291072  25.2178001
  66.3628058  25.3064005  24.9399948  56.7616272  69.4994307  91.3341904
  57.6418591  69.4237328  90.9658241  56.4763212  68.5945511  91.4607716
  45.9846549   6.5944283  27.8254509  46.0739951   5.9557669  27.1180916
  45.6940417   6.0792344  28.5780144  83.5501766  44.4345903  77.3952675
  83.9330578  44.0173721  76.6235399  82.7752399  44.8876381  77.0629358
  59.6913818  89.6264433  34.4554901  59.7108845  88.8200449  33.9401627
  59.8539261  90.3219293  33.8182259 103.3875275  84.2629242  65.0124359
 103.4345722  84.2178154  65.9674120 103.8035011  85.0961494  64.7912312
  73.9729786  72.4168491  82.0638180  74.6434879  71.8078041  81.7544460
  74.3505001  72.8089428  82.8512001  60.2210860  40.5946820   5.0366116
  61.1534075  40.8007519   5.1040173  60.0720935  40.4624932   4.1003609
  14.8366360  72.6607989  26.4696884  14.1369633  72.6671671  27.1228695
  15.3697781  71.8990754  26.6972065  20.7680277  28.9809792  32.5276470
  20.7209878  28.4697144  31.7197990  20.8984618  28.3291428  33.2163715
  36.0781102  10.6576054  10.5273819  36.9065051  10.2364152  10.2980614
  36.0628991  10.6509249  11.4844418  63.5849237  68.7704134  87.8896618
  63.9466047  69.1193199  87.0749950  63.8848257  67.8617620  87.9150581
  60.3790096  81.4510535  16.4260483  60.6768040  80.7013677  15.9107590
  61.0203079  82.1376108  16.2427235  41.9585375   0.7455580  35.7458591
  41.1715274   0.8973734  35.2226067  42.4822526   0.1404183  35.2207279
  82.0879745  84.0921402  86.5350819  82.0786953  84.7963905  87.1832943
  83.0168915  83.9321232  86.3685513  76.1414103  23.6429064  18.4019566
  75.7520728  24.4935029  18.1991386  75.4521708  23.0099099  18.2007313
  72.9553175  99.2408943  68.9633799  73.8523006  99.5637417  69.0495396
  72.4733448  99.9726868  68.5781288  39.0416340  94.7652124  49.2274761
  39.9524502  94.9968074  49.0457630  38.5287384  95.4056572  48.7345314
  77.3833656  72.2314930  89.8275566  77.4327850  72.1229124  88.8778114
  76.5455770  71.8373346  90.0704193  80.7812075  21.6685860  23.4948158
  80.4011778  20.8628171  23.1447506  80.0889544  22.3223059  23.3965397
  60.3204970   7.6575558  40.4318619  59.4212584   7.8732817  40.1847649
  60.3324942   6.7017214  40.4815483  72.6627636  64.3773317  90.8974457
  72.8167009  63.6371279  90.3103924  72.0304203  64.9247551  90.4319382
  48.9385276  44.2643349   2.5132561  48.9942603  44.8172753   1.7339039
  49.4764189  43.5006898   2.3040962  25.3220891 104.6924844  77.4021912
  24.4947862 104.2377180  77.5602627  25.1028966 105.6212653  77.4767065
  78.5124350  79.2542076  67.5468874  79.1435814  79.8177814  67.9944038
  78.8133430  78.3643532  67.7308464  70.6662798  52.2775650  85.1013851
  70.0310135  52.9658651  85.2986717  70.8102798  51.8372965  85.9390354
   4.1814808  92.9958318  11.0958004   4.0112070  92.4915908  11.8913937
   4.6232370  92.3795603  10.5115986  69.2367320  19.3628924  29.3041325
  69.2675166  19.1587107  28.3694744  68.7991099  18.6090701  29.6996880
  87.4954033  44.4214296  82.9921055  88.3749866  44.1531229  82.7264404
  87.1427536  44.8768091  82.2275829  82.3377757  31.7718308  14.5840168
  81.4622454  31.4425843  14.3808460  82.8689532  31.5222829  13.8278294
  44.7436765  70.4874611  51.4454699  44.1067937  69.9214125  51.0093641
  44.8221162  70.1245213  52.3277140  98.1280899  71.7944002  76.2481833
  97.8048611  71.5830421  77.1240139  99.0341091  72.0700788  76.3873148
  70.1751617  91.5202855  10.3184032  70.9767155  91.4222525  10.8323383
  70.3404907  91.0202955   9.5190907  81.9608402  66.8635893  84.7813892
  81.7892361  66.0828400  85.3079033  82.8159523  66.7007923  84.3832684
  95.9841537  73.4342241  75.9453058  96.2404251  73.9372206  75.1722956
  96.7191029  72.8406239  76.0992861  29.8979239   5.3467648  27.4914360
  29.0014271   5.2083485  27.7969933  30.2107768   4.4715636  27.2625637
  55.7998805  15.4777138  18.0090904  54.8469786  15.4369729  18.0900574
  56.1252169  15.1921885  18.8628197 100.3854275  88.6629009  74.4034290
 100.4799843  87.7651978  74.7218847 101.0091877  89.1687489  74.9242592
  82.4968338  46.5612173  87.9424763  83.3280468  46.6464996  88.4094238
  82.5191689  45.6784964  87.5729561  72.7476692  73.3583498  79.8312902
  73.2335377  72.8740072  80.4988003  71.9704103  72.8246117  79.6663094
  71.9270949  13.3180945  46.0180855  72.1776061  12.3955386  45.9695244
  71.1983256  13.3360570  46.6384220  86.4271641  49.3178177  79.1192055
  86.8924141  48.4876251  79.0164423  85.7563400  49.1365528  79.7775078
  71.3947730  11.9548361  18.8094425  70.8868746  11.9706004  19.6206188
  70.9146838  12.5313656  18.2150078  65.7566837  88.3583664   7.4014282
  65.4448418  87.4608849   7.5176620  64.9982933  88.9042257   7.6090431
  82.6831393  20.1524823   1.6512585  83.3138232  19.4901888   1.3687038
  81.9107203  19.6514075   1.9130421   5.3347591  93.9748787  14.3871021
   4.6632389  94.2652343  15.0043392   5.6097988  94.7745870  13.9387131
  69.5308451  32.5703805   7.6009464  68.9210848  33.2850068   7.4172974
  69.7934584  32.7075570   8.5111427  99.6738720  48.2128096  77.2465229
 100.5291176  47.7909994  77.3293447  99.3017578  48.1748438  78.1276178
  62.1474986  29.2081540  11.4432812  61.6216044  29.9850075  11.2530708
  61.7770819  28.5253422  10.8839989  71.8160681   3.0041592  17.1908283
  70.8758502   2.8374999  17.2574615  71.9537978   3.8050025  17.6967144
 108.0983162  29.6435809  86.7592621 108.9868164  29.5806813  87.1097469
 107.6188755  30.1536560  87.4120998  94.2310576   3.1359666   3.1663036
  94.7582774   3.9012139   2.9368210  93.9383750   2.7857154   2.3249435
  61.0327105  27.2115939  32.3516846  60.7824092  27.3401253  33.2665920
  60.3733687  26.6104071  32.0051670  93.8817215  48.4699488  74.2458105
  94.4483185  48.4653568  75.0172853  93.1813622  49.0839243  74.4666576
   1.8264536  11.9394130  36.3753915   2.5532774  12.3412913  36.8512583
   1.3077358  11.5051860  37.0525980 110.7754135  70.1486206  85.9501648
 110.9566402  70.6381989  86.7524719 111.6145992  69.7514439  85.7172203
  41.4002804  79.2419933   0.6291008  42.0824436  79.1359924   1.2921619
  40.9100441  80.0142263   0.9111500  85.0522666  15.4855864  38.4326553
  85.4434161  14.7001498  38.8151836  85.7754092  15.9150212  37.9756260
   4.8455910  88.8229273  25.3293037   5.5573849  88.5452722  25.9059238
   5.1839308  89.6029852  24.8896790  15.4529527  39.8917365  78.5928631
  15.4785684  39.0671277  78.1074762  15.3496030  39.6283054  79.5072746
  83.4103966  60.7620716  87.8727627  82.8823090  60.9611559  87.0996475
  82.9323101  60.0607538  88.3152771  63.2982688  27.1212142  13.4457397
  63.1892256  26.2679713  13.0258369  64.0823512  27.4899190  13.0389214
  48.8826518  19.2930358   5.7613564  49.5952468  18.9209263   6.2809563
  49.3113665  19.9263518   5.1857281  23.5614923  72.2254515  83.8758659
  23.2656911  71.6039371  83.2106876  24.3496278  72.6194382  83.5019207
 104.9567223  59.6574163  78.1358194 105.6488609  59.0915966  78.4779119
 104.1527653  59.1521263  78.2565117  54.7130207  99.3338655  30.4356575
  54.6495251  99.7889541  29.5959568  55.4060272  99.7963403  30.9069252
  69.4155078  41.9209378   4.9956322  68.5008864  42.0320218   5.2551556
  69.7546439  42.8133004   4.9254704 109.9362326   1.6830558  80.3255081
 110.0933886   0.8101577  80.6854916 110.1062728   2.2776145  81.0561371
  78.1162123  27.9665558   3.1324577  77.3201327  28.0892747   2.6153183
  78.5641150  27.2324603   2.7120686  63.7011385  59.6591997  72.1816015
  63.1430340  60.4344130  72.1199799  64.5847940  59.9862289  72.0129776
  48.2836775  18.6754792  26.0160351  48.6589007  18.1988757  26.7564964
  47.5491480  19.1611807  26.3912582  57.5086360  27.2100632  25.7720470
  56.6932921  27.1500008  25.2742100  57.8479819  28.0823510  25.5715561
  51.8415789  28.6594479   2.6556492  51.6143279  28.5626881   1.7308712
  52.2647814  27.8323929   2.8860950  88.4969044  62.7009916  73.0999994
  87.9357338  63.1430387  73.7371159  88.2654572  63.0984449  72.2605371
   2.0479114   0.9898894  14.8975563   2.6317318   0.6432622  14.2228508
   2.5392158   1.7102711  15.2923870  89.3415737  65.4226112  85.7659435
  90.2935600  65.4711771  85.8531570  89.0355873  65.1478291  86.6302967
  82.2213511  22.3721736   8.6258221  81.7919020  23.1500809   8.9817142
  83.0859618  22.6794474   8.3533096  41.0604290 104.9566196  10.7738400
  40.4157738 105.5880760  11.0930634  41.6460327 104.8153375  11.5177059
  60.1309065  33.1589310  12.7732754  60.3215556  33.8359826  12.1240520
  59.2260127  33.3271878  13.0361366  77.2006373  31.5122502   7.8906441
  77.2567038  32.1356862   7.1664715  78.0541472  31.5670292   8.3204556
  89.9259281  98.0891132  76.7896557  90.0587368  98.9436722  77.1999311
  89.3739510  97.6099205  77.4076605  90.0437641  79.9716282  84.3326092
  90.6060410  80.6874847  84.6286201  89.4020462  79.8650455  85.0347996
  83.3278803   3.9635985   6.2591743  82.5405554   4.0991681   6.7864037
  83.2751326   4.6301024   5.5741787 111.6272831  55.5422926  73.3053541
 111.5548515  54.8404646  72.6585007 112.0971203  56.2406254  72.8494883
  65.6940512   5.2374690   1.6842842  65.1974539   5.4948180   2.4610615
  66.2276797   6.0043995   1.4762020  54.1953758  95.7534336  17.6454449
  53.3429054  95.9578775  18.0298233  54.3595604  94.8444818  17.8965950
  61.9169620  26.3463420  64.6193218  61.9721607  26.9470138  65.3625488
  61.3286213  26.7818851  64.0025520  97.2379589  60.3006268  70.9610128
  97.9429245  60.7371664  71.4392281  96.4348793  60.6695366  71.3287067
  68.8376284  81.9403553  68.9789963  68.9172602  80.9865475  68.9908838
  69.7384405  82.2549725  68.9029026  97.5692515  31.0310834  11.0616589
  97.2174029  31.0940068  11.9496155  98.0057482  31.8705742  10.9169388
 108.5101604  50.3847980  65.7852077 108.6415291  51.3282013  65.8798599
 109.3635750  50.0506496  65.5090618 102.1109919  14.0621417  13.2392025
 102.7453189  13.5110180  13.6975956 101.3656859  14.1177266  13.8372421
  14.1315416  93.7974834  77.7244377  13.7693551  92.9118919  77.7524328
  13.5863164  94.2592144  77.0874405  94.0717316  46.7457581  81.5332699
  94.3150616  46.1314297  82.2258186  94.7282696  46.6090250  80.8502674
 111.7064285  46.2087488  77.8695917 112.3798466  46.8876076  77.9130268
 111.3026810  46.3265514  77.0097399  96.1279202  80.9410286  82.1466637
  95.3468037  81.2629414  81.6967010  96.1828804  80.0177288  81.9002151
  89.2833953  29.7332280  12.9541779  89.0732722  29.6156972  13.8806057
  90.2397208  29.7642415  12.9275513 112.1572971  47.8640127  82.3050880
 111.6990185  48.6236572  81.9457150 111.4587784  47.2600222  82.5570774
 111.4421749  72.0245028  70.7546616 110.5845737  72.3331928  70.4623032
 111.9955063  72.0813036  69.9756718  27.2867112  70.5938332   8.9175606
  26.6818337  71.1710065   8.4514904  27.9881386  71.1727421   9.2160606
  73.0817084   8.1991856   8.1091595  73.5367541   7.6317589   8.7314034
  72.2149329   7.8042596   8.0144501   6.1811975  81.8819714  54.3470430
   5.8472207  82.6879311  54.7409105   5.9549001  81.9567871  53.4199953
   3.3112577  49.2016172  56.9165850   3.0270055  49.5740271  57.7512980
   2.6596120  48.5285091  56.7203331  83.6442280  85.1400089  67.2147179
  82.9921436  85.2103519  66.5175343  84.0747166  84.2999077  67.0561504
  55.6912188   5.0527089   4.7543621  56.0100798   4.4341509   4.0971375
  56.2213473   5.8384411   4.6208858  74.7970442  16.9393008  27.3031712
  74.1488509  16.9524233  26.5989685  74.2911963  16.7385237  28.0906010
 102.1439552  93.4062576  60.9687328 102.9683590  93.8589668  60.7908010
 101.7532158  93.8958645  61.6925001  93.8537025  72.7233505  70.0188446
  93.6607552  73.6434841  69.8389721  94.5173264  72.7481079  70.7082081
  -0.1929232  87.3536587  60.9684753   0.7628015  87.3838902  60.9248877
  -0.4118869  87.8390980  61.7638636  64.5798735   5.6003945  14.5917988
  64.9579386   4.7210257  14.5929623  65.2440600   6.1461060  14.1707420
   3.4946492  95.8314705  73.3721018   3.6494401  96.3888073  72.6094484
   2.7992681  96.2763214  73.8566589 101.9868183  85.4197693  87.6136684
 102.7667141  85.2598476  88.1451035 101.6688919  84.5461082  87.3859406
  71.8416648  20.9009020  22.1108437  70.8922724  21.0148041  22.0671368
  72.1384005  21.5896981  22.7056122  84.0704207  26.7299693   3.8475800
  83.3189158  26.2884085   3.4519863  84.2785887  27.4394791   3.2397175
 111.1204624  74.2984056  77.9395151 111.2535763  73.5367632  78.5037947
 110.6872559  73.9473009  77.1615124  29.7089915  48.2277768  40.8785820
  29.0607409  47.8846638  40.2635384  30.5503325  47.9366486  40.5269909
  79.9883036  19.3879359   6.1310482  80.6559710  19.5729201   5.4705715
  79.2376094  19.9206202   5.8684921 100.2413516   3.5051863   0.6842327
 100.1014094   2.5603192   0.6219578  99.3633799   3.8817923   0.6245232
 101.6733360  66.3519287  80.6357098 100.7419205  66.1360693  80.5898666
 102.0309258  66.0482836  79.8013401  19.3230775  81.0686493  69.8048973
  18.8227800  81.7218781  70.2939987  19.0085652  80.2279186  70.1373100
 106.8500900  38.0165696  81.6677094 105.9321785  37.8794956  81.4334488
 106.9230366  38.9605975  81.8081570  12.7754644  66.5470171  89.9682426
  13.5997537  66.2633896  90.3636456  12.8914121  67.4855185  89.8199177
  71.4414597  86.9386864  62.5389099  71.5240240  86.1030674  62.9984426
  70.5864763  87.2757435  62.8065348   3.1916860  42.9184246  83.8219166
   2.5453237  43.2402849  83.1935501   3.3899453  42.0294714  83.5274887
  75.8732562  28.1476681  13.1405354  75.2856307  27.6628869  12.5609589
  76.1883025  28.8770001  12.6066399   4.1939405  75.1593755  37.1735954
   3.5103086  75.0559805  37.8355503   4.9831537  74.8103665  37.5877953
  14.9336103  84.4452858  65.3843451  14.3014100  85.0501347  64.9961424
  15.5628732  84.2742348  64.6836233 101.5019894  44.5964460   4.4369125
 101.9885684  44.0897195   3.7867546 101.2759686  43.9607082   5.1158714
 110.6109425  78.4754640  89.9035072 109.9605390  78.8019067  89.2817020
 110.4759356  79.0032893  90.6905270  91.7572928  46.4171909   9.6745873
  91.1939193  46.3815414   8.9015579  92.5464917  46.8685864   9.3751907
  75.9377075  35.8922540  16.1536121  75.6455017  35.9877859  17.0600986
  75.1362444  35.9622620  15.6349754  18.8249921  96.4296704  70.5651999
  18.6942767  95.4933488  70.4153776  19.4021558  96.7077464  69.8540115
  66.8373537  18.5017908  76.2784863  67.3446608  19.0582240  76.8694639
  65.9480000  18.8528800  76.3234234  68.4681177  13.4648502  66.1658669
  69.3152332  13.4152389  66.6087770  67.8467512  13.0996871  66.7957783
  81.3025952  39.6400498  14.3443298  80.5481721  40.2205919  14.2440796
  81.6212416  39.8122381  15.2303600 103.2507230  71.9103967  10.7945347
 103.7948657  72.2951029  10.1074123 103.8730288  71.4756666  11.3776112
  40.4275131  67.5918966  61.0827494  41.1955261  68.1508189  61.2010384
  40.6936645  66.7418319  61.4331579  43.0902719  84.0129667  75.9827852
  43.0008458  83.3783942  75.2717638  42.2188758  84.0558177  76.3765764
  82.2480583  15.1486516  62.2621393  83.0473518  15.3500807  62.7487516
  82.5274563  15.1117325  61.3473654  30.2038573  72.3148018  84.8632526
  29.8516797  71.6296130  85.4313374  31.1511277  72.1786815  84.8827553
  48.3478403   2.1003696  89.7301102  48.0867910   2.8795692  89.2392635
  47.5879145   1.5204479  89.6807289  98.2759143  55.8523779   1.0924149
  97.7364636  55.0628863   1.0485554  99.0726138  55.5733173   1.5436745
  88.8665485   3.8379151  68.5313129  87.9971886   3.6190915  68.1958103
  88.8122082   4.7685805  68.7484360  64.9203468  60.5618136   1.5613270
  64.4238187  60.1659386   2.2775555  64.2541266  60.9483265   0.9930038
  16.1171535  81.1249016  29.6670055  15.4216198  81.3444851  30.2868843
  16.7417435  80.6118368  30.1797295  73.1695867  35.8658599  21.4577770
  72.8182770  35.3059851  20.7654190  72.4031258  36.1217617  21.9708824
  24.0403699  78.4002691  43.0047083  23.6349916  77.5332147  42.9937887
  24.9810075  78.2252627  42.9763460  76.3576460  13.8652420  84.7470474
  76.1512089  13.8615453  83.8123798  76.9896841  14.5767045  84.8499203
  84.1836548  16.1646318  80.0288296  84.4702148  16.0975337  79.1179991
  84.9941826  16.1393166  80.5373955  46.1055421  93.0583900  90.6633949
  45.3630685  92.6978367  91.1481285  46.4906453  92.3033124  90.2186680
  75.5930948  78.3697557  84.0561295  75.0296354  79.1308784  83.9167213
  75.7274818  78.0076170  83.1803322   2.2544502  86.6595763  65.9728146
   1.4193057  86.2929314  65.6824064   2.1612405  86.7457014  66.9215631
  72.0917082  16.8335843  86.4653301  72.1261311  17.4586439  85.7412148
  71.4311409  16.1942363  86.1986446  32.5115895   6.1457735  65.7037878
  32.8276992   5.9304255  64.8263311  31.5979481   6.3998067  65.5735731
  65.0791359   9.3177229  85.7641220  64.4953012   8.6932975  86.1947727
  64.8913813  10.1541471  86.1900043  84.8136234  26.0329032  54.5436811
  85.2337837  26.8750000  54.3688297  85.4710770  25.5331063  55.0276184
  54.9153661  94.6326142  88.1411076  54.6713590  93.7657279  88.4654522
  55.1519632  94.4877189  87.2249889  92.9345084  61.4369576  10.3327847
  92.5710345  60.6278567  10.6926060  93.8624192  61.2438987  10.1988506
  11.0790824  59.6332389  67.6356602  11.4136647  60.3632909  68.1565428
  11.8118667  59.0194827  67.5850534  49.5374632   5.9180635  42.1253204
  48.8103390   5.3519988  41.8662930  49.1186762   6.7290133  42.4137831
  48.4480714 103.0754162  90.5904102  49.0277147 102.4437058  91.0160732
  47.5705766 102.7107510  90.7055569  54.4136953  20.4017615  63.6306143
  55.1236248  20.2489018  63.0070210  53.6329985  20.4996228  63.0854845
  71.9989682  77.4356054  18.6510468  71.1662341  77.2341155  18.2242107
  72.6031876  77.6066302  17.9286194  15.6184196  67.6303035  86.5385246
  16.4568185  67.7905208  86.1053467  15.4798793  66.6872483  86.4508438
  56.8426275  27.4022293  81.5741825  56.8509769  27.9762650  80.8082581
  57.6620913  27.5974131  82.0287228  40.1816415 104.3060670  85.1198101
  40.7298373 104.6882815  85.8050919  39.2863368 104.4162865  85.4399872
 104.7911978  68.9407681  16.6243362 104.5572329  69.4018601  17.4298763
 104.1161919  69.1981374  15.9963608  87.0892144  86.5074681  17.0123863
  86.2219191  86.4734768  16.6088009  87.1082402  85.7544325  17.6029873
  11.0710434  54.5861064  35.5924511  11.9627098  54.8032595  35.8644867
  10.9940437  54.9509472  34.7108650  62.7889299   8.3112895  62.7219105
  61.9132614   8.4050524  63.0969334  62.6683283   8.4785157  61.7871809
  58.4497594  78.4738260  62.0084190  57.9663610  77.8906208  61.4232492
  57.7709722  78.9621740  62.4742413  33.4128904  71.2263399  81.4653587
  33.6982154  72.1242004  81.2960434  33.3550452  70.8257991  80.5979252
  48.4938765   1.8692940  72.4407673  47.9049397   2.3207229  71.8361235
  49.3718052   2.1007325  72.1375990  49.7610426   8.9859539  61.7407751
  50.6442595   9.2650247  61.4993668  49.6119213   9.3799114  62.6003075
  89.0367556  43.3960687   0.5991650  89.4074679  42.6779686   0.0861931
  89.7501612  44.0297936   0.6745148  64.6913767  29.3956208  75.2346849
  63.8372660  29.4912362  75.6560898  64.4987965  28.9784384  74.3949842
  26.8519544  97.9639423  67.0408440  26.8075895  98.9040833  67.2151947
  27.7352857  97.8251189  66.6992426  80.9761810   6.7062622  88.7182522
  80.1215458   6.9170654  88.3422184  81.2461567   7.5089735  89.1643429
  85.4237223  31.5973877  10.1073360  86.0291720  30.8658026   9.9871540
  84.8106194  31.5235184   9.3759823  27.7044821  27.6734853  49.5409346
  28.2838607  26.9222236  49.4138336  26.9375944  27.3120451  49.9853182
  84.2730571  25.9421586  12.5241947  85.0036670  25.4247259  12.8628826
  84.6087886  26.8379568  12.4916267  12.7034044  93.3197564  70.7858038
  13.2096051  92.7248507  70.2325535  11.9032621  93.4873467  70.2878857
  77.2089958  43.9597321  73.5471916  77.0508337  43.5883951  72.6792479
  77.5620174  43.2316113  74.0585184  47.6390123  11.5329051  79.0822887
  47.5803185  12.3445785  79.5862436  47.8392124  11.8184030  78.1908607
  75.9875536   2.2359253  81.4256573  75.3302002   2.6954409  81.9481182
  76.6647100   1.9893944  82.0556736  30.4312371  78.2417685  58.3507729
  29.6021032  77.9637485  58.7399626  30.9924649  78.4414941  59.1000175
  45.0332451   5.7947820  87.9627132  44.8796749   5.2958024  88.7650013
  44.5407248   6.6060454  88.0872345  45.6762505  25.7075667  85.8086109
  44.9144745  25.3833055  85.3282166  46.3682747  25.0751162  85.6153870
  83.4347916   3.2931617  64.5719814  83.1804752   3.8792804  65.2847338
  83.3460426   2.4145083  64.9412012  56.1334943  98.6852175  45.2451611
  56.7595052  99.0531075  44.6214628  55.9985780  97.7857721  44.9467897
  25.5961708  39.2272996   8.7059116  26.4299396  39.6760474   8.5656071
  25.8425049  38.3357631   8.9523125 109.0152360  75.7560586  11.0815716
 109.7916985  75.5075954  10.5799770 109.1735602  75.4047011  11.9577599
  93.8568164  55.6898688   6.5187168  94.2322493  55.1695924   5.8083725
  94.5166064  56.3592617   6.6998959  75.9112501  21.8609619  78.2991934
  76.7599773  22.0357943  77.8925896  75.5163527  22.7257609  78.4106016
  50.4670238  22.7896333  73.7844515  49.5933199  23.0188489  73.4676981
  50.8262825  22.2194600  73.1046963  20.6300262  58.5266142   0.2582359
  20.4912475  59.1819279   0.9420109  21.5642933  58.3240663   0.3066921
  37.4012565  90.7593006  82.9935265  36.4928102  90.7281703  82.6935387
  37.7959918  89.9598056  82.6453495  76.1478043  65.8386921   7.7132225
  76.4144135  65.3052531   6.9644928  75.5837537  65.2625178   8.2290745
  76.4114023  57.3135559  28.0358028  75.6089617  57.6882868  28.3989906
  76.1438704  56.4606317  27.6934910  39.3063569  20.4646158  63.7549353
  40.1656389  20.0692725  63.9017916  39.2757630  20.6278515  62.8122520
  89.3143035 104.7089122  19.6153545  90.0093127 104.3382715  20.1592445
  88.6019755 104.8911022  20.2282333 100.5483771  77.4528955  19.8386288
 100.1806641  78.2099699  19.3827152  99.8658086  77.1905016  20.4562759
  47.6375294  17.3294377  46.1248398  48.0581045  16.7610455  45.4796410
  46.7124319  17.3272991  45.8790350  79.9518872  65.9115897  12.6634789
  80.4148293  66.7491387  12.6427555  79.4922400  65.8711730  11.8248367
  77.2149133  84.9009353  54.0862465  77.1861314  85.1027900  53.1510115
  78.1169843  84.6220070  54.2434168  79.2143678  87.5312072  60.1183939
  79.8608445  87.2115367  60.7477665  79.0178251  88.4219783  60.4084492
  49.4574498 101.2685513  60.3908491  49.4784593 101.1678833  61.3425064
  48.6415815 101.7382240  60.2176332   7.3612789  39.2675005   5.6727982
   8.2372764  39.6365522   5.5602646   6.7834858  40.0296472   5.7118130
  56.4637994  94.4417172  80.2601624  56.7074441  93.9896792  79.4523716
  56.1964082  95.3152841  79.9744797 103.2980061  60.5074321   2.2777843
 103.9859010  60.5705141   1.6151714 103.6705304  60.9314345   3.0508804
  60.2314043   6.5326160  45.9695959  60.5442333   6.4993417  45.0655699
  59.3454313   6.1724705  45.9298706  11.3004307  66.0083591   2.5967598
  12.2472958  66.1362802   2.5391865  10.9380058  66.8942355   2.5866127
  39.2850471  28.5650468  49.1938400  39.0796757  29.3396139  48.6702919
  39.7733212  27.9962206  48.5986471  78.3035804  65.8302353   3.2302475
  78.3620072  66.1022781   4.1461182  77.4009944  65.5287062   3.1270695
  47.4220990  92.8041905  59.7392082  47.5622510  92.8774684  60.6832552
  48.3034562  92.7501613  59.3697119  80.7126331  22.1572661  89.8287010
  81.5614986  22.5959897  89.7723675  80.8498859  21.3137650  89.3975449
  53.3251142 102.7668297  86.4726925  53.1672715 102.7307755  87.4161053
  53.1251764 103.6711199  86.2307930 100.8041477  17.1743822  78.4810543
 100.9048748  17.2790563  79.4271660 100.6983471  16.2315285  78.3543110
  52.2850037  20.2251196  82.7914143  52.2955608  19.3236506  83.1130981
  52.4017191  20.1430559  81.8449116  31.0824918  88.1415468  89.0186596
  31.6728925  87.4779135  88.6619377  30.6402396  87.7028876  89.7454453
  66.8174124  16.9320452  78.7062740  66.8090105  17.4186254  77.8820181
  67.6214838  16.4139593  78.6703825  84.7142554  91.8238019   3.3539104
  84.5925189  92.4376844   2.6296425  85.4158307  92.2089456   3.8789749
  57.5286150  55.0501442  85.3858280  57.4730778  55.0754642  84.4305706
  57.0063019  54.2880154  85.6359863  89.6882296  37.2940158   1.3295841
  90.4366303  37.3499940   0.7354546  90.0580407  36.9697093   2.1507359
  18.2192134  90.8063406  53.7263393  17.4373912  90.6315726  54.2502165
  18.9408397  90.7722932  54.3543005   5.0898122  52.3413449  73.2034159
   5.7999610  52.8051024  73.6470890   4.3275069  52.4755555  73.7665415
  75.6562805   2.5305250  73.6765385  75.7324600   1.6044530  73.9063644
  75.7050419   2.5448859  72.7206898  79.5196724  18.6120975  69.1380644
  78.6693668  18.1759024  69.1923475  79.3443584  19.4192338  68.6542988
   5.9077167  89.4120806  60.0650835   5.7553481  88.8158041  60.7982111
   5.0800990  89.8819309  59.9625063  28.4855274  39.9551474  16.1127186
  28.4202579  40.9096085  16.0814857  29.4204811  39.7756325  16.0133934
 100.2424718  92.0888017   7.8522968 100.1471854  92.5712131   7.0310593
 100.7697869  91.3241337   7.6210976  76.9427776  25.2342105  73.7927151
  76.4618731  24.5992088  74.3235016  76.7564392  24.9807143  72.8886938
  79.4730712  53.7042301   7.3967838  79.8947621  54.2419996   6.7265415
  79.1221572  52.9543537   6.9163895  35.3360795 102.8418371  89.6439552
  34.9193095 102.4372703  90.4047775  36.0994863 102.2917580  89.4683075
  40.8102608  33.2496023  62.2264004  40.0747585  33.2927132  61.6153288
  40.6231880  33.9285803  62.8746462  28.7707619  75.0380849   8.4465885
  29.1570858  74.8038124   7.6027298  28.3448986  75.8807896   8.2893658
 107.3590089  96.5354322   5.0676537 108.1392241  96.4054702   4.5285797
 107.0479251  97.4094556   4.8319817   0.6604436   1.0416143  72.2568703
   0.9474900   1.6733789  71.5975428  -0.1750895   1.3867295  72.5715160
  41.9894743   4.4558549  80.0231647  42.3746538   3.6114034  80.2571964
  42.6632643   5.0972092  80.2487755  66.0405445   5.4691166  54.7584343
  66.0492134   5.3158903  53.8136148  66.0848951   4.5938796  55.1434326
  99.8085786  38.0754565  30.7312584  99.4085885  37.3334538  30.2777481
  99.2722178  38.8273059  30.4797268 103.6405469  50.4251862  50.3938293
 104.1886426  51.1754476  50.1637554 102.9981375  50.7777599  51.0096455
  64.0358162  17.9092658  82.4768257  64.4629097  17.2983348  83.0773163
  63.1617451  18.0361390  82.8457928  33.9968919 104.3290357  67.8433228
  33.4408712 104.3393417  67.0642376  34.8580980 104.6014643  67.5265646
  61.7762280  33.1440353  74.8364115  61.3206053  32.3877716  75.2061415
  61.4824724  33.1791115  73.9260769  51.3858180  14.6366160   5.7120800
  51.9393115  15.1419346   5.1166439  51.4359049  13.7394278   5.3822613
  57.0354021  69.9551557  30.4993629  56.2424541  69.4991826  30.7814217
  56.7304254  70.8214365  30.2295876   5.2117113  60.5285631   5.7345867
   5.6707291  59.6903645   5.7889748   4.8802570  60.5623381   4.8372364
  88.3188057  11.0888803  80.5628586  87.6500988  11.2000728  81.2386513
  88.7072372  11.9582260  80.4649258  89.1812992   4.0486816  85.4821396
  90.0199413   4.2973468  85.8708191  88.5254192   4.4674593  86.0395336
  81.7500305  34.5133686  60.7818031  81.0062504  34.4108081  61.3755226
  81.6662598  33.7861300  60.1650858   3.1008390  64.5785843  15.2953911
   3.5163072  65.3778230  14.9716091   3.1554989  63.9661323  14.5618057
  22.7359390  94.0557211  82.9870892  22.6563167  93.1051606  83.0666256
  23.3715104  94.1847580  82.2830772  81.1946011   7.6560324  66.6242409
  80.6369781   7.2499055  65.9606552  80.9131432   8.5706472  66.6464806
  24.1003942  96.1279350  75.1214170  24.3625783  96.9102072  75.6067419
  23.2291078  95.9182280  75.4577351  22.3551754  82.5224398  23.6551380
  23.2650284  82.3164128  23.8694859  21.8509678  81.8020509  24.0333557
  82.5082016  13.3374679  66.5067196  83.1457233  14.0490568  66.5653038
  82.2065163  13.2115018  67.4063587 108.2293510  47.8171825  66.7957497
 108.3900642  48.4616756  66.1065245 107.9525566  48.3372593  67.5501633
  81.7644978  35.2332067  84.4208241  82.2756958  34.5850825  84.9054241
  81.1992645  35.6346083  85.0808430  89.7016335   2.8082326  83.0975056
  89.7398186   3.2354483  83.9532280  90.1861000   1.9912153  83.2158661
   3.8842868  96.0884881  62.7944565   4.8055600  96.3374376  62.8687239
   3.7823962  95.8167588  61.8823051  41.2994670 104.7209783  64.9539948
  41.9157027 105.2829475  64.4842339  41.1719894 103.9691615  64.3754196
 101.3213348  23.6034489  75.6183720 100.5555534  23.1505752  75.2652216
 101.9528103  23.6028433  74.8990202  30.6073760  94.6275061  61.5613985
  29.8569345  94.3210453  61.0523272  30.2440118  94.8355192  62.4221706
  86.2146473  50.1486301  72.7196741  85.6965446  49.3535328  72.8446865
  85.8795738  50.5275345  71.9070292  47.6736355   3.5938257  60.3470278
  48.5919523   3.4226286  60.5558729  47.2027540   2.8396088  60.7015133
   0.2386144  37.9416394  66.8454361  -0.5494449  37.5750184  66.4444494
   0.5572942  37.2489905  67.4241543  24.3350033  69.2070757  16.6341877
  24.1258148  70.0354432  17.0657921  25.1970390  68.9698886  16.9760323
  23.8560966  48.5463821  19.9100876  24.2711643  49.2340361  19.3894386
  24.4321827  47.7886714  19.8089314  49.4010496  11.1331737  72.2961712
  49.2834806  10.7517624  73.1661892  49.9469423  11.9052565  72.4449015
  88.7335778  51.2901393   2.7624893  87.7921201  51.4628041   2.7715492
  89.0296698  51.6212996   1.9146156  84.8106861  17.8175068  90.2609539
  84.2302227  17.0649648  90.3748894  84.6491432  18.1110096  89.3642998
  35.0608134  29.3248844  66.3090134  35.8825946  28.8436937  66.2122631
  35.2721763  30.0421453  66.9065857  61.9656610  23.7724328  86.5673161
  61.5316534  23.8066483  85.7148457  62.1086454  24.6897745  86.8002796
  60.2294970  30.1859236  85.2017689  59.5807981  30.4052281  84.5329475
  61.0263014  29.9919176  84.7081184  83.6559582  51.2214607   1.1959648
  82.7027417  51.2194649   1.2831306  83.8111449  51.0943864   0.2600098
  60.6018305  29.4267488  41.5455627  60.7383490  30.2825642  41.1391401
  59.8240280  29.5421457  42.0913935  44.5141840   7.2918516  77.0051575
  44.7918510   7.5516677  77.8835821  44.4381428   8.1160724  76.5244150
  93.2545424  42.3991917  16.0815525  92.9354239  41.6527341  16.5886974
  93.1494714  43.1490706  16.6671085  86.1642647  30.9956479  78.2573843
  86.7704773  31.3088846  78.9286613  86.3106918  31.5779305  77.5119066
 111.4588261  85.7469271   2.0616722 111.4265252  84.8462032   1.7393684
 111.9309140  86.2277840   1.3818550  89.5041848  69.6817695  11.3975143
  89.8292733  69.6252762  12.2960472  88.5568000  69.7811829  11.4913845
  65.8165264  26.2574673  59.5466995  65.4985094  25.6518006  60.2162218
  66.6484976  26.5810466  59.8921728 107.7984143  68.6699866  25.0882053
 107.7469302  68.2576870  24.2258930 108.7302638  68.6533128  25.3064060
  97.1800423  37.9516053  65.0138474  97.9495525  38.5127234  64.9178267
  96.6489506  38.3856201  65.6815338  17.7068286   1.2584250  25.8217621
  18.6225657   1.0017102  25.9302139  17.5285296   1.8307345  26.5680122
  95.3704644  99.2865394  20.6136036  95.0190688  99.3419098  19.7249603
  94.6636773  99.6115373  21.1713314  68.5095644   4.4735909  68.2187605
  67.9843998   5.0106692  68.8120413  68.2934237   3.5720891  68.4571075
  35.9951806  13.0466223  69.2471790  36.2533927  13.8704610  68.8338375
  36.8011665  12.5311935  69.2780066 103.1400109  82.4474858  23.6497211
 102.9234839  82.3726796  24.5791054 103.9877129  82.8918432  23.6363029
  45.5981445  12.5294709  69.7740936  46.1012268  11.7791104  69.4577122
  45.2019548  12.2251165  70.5905724  55.6506062  22.4636483  56.3107920
  55.9204197  22.6238203  57.2151041  56.0342455  21.6140985  56.0932779
  50.9655809   0.4470075  59.6136713  50.5055046   0.3363230  60.4457235
  51.6691589   1.0657705  59.8094797 103.9471246  64.0429686   4.0981960
 104.4928075  63.9165794   3.3219910 104.0062190  63.2124148   4.5703411
  77.7322006   9.0181077  89.6341991  78.5667753   9.1416341  89.1820335
  77.1257830   9.6048009  89.1822243  89.4441462  76.6177820  17.6265144
  89.8907662  76.8680357  16.8177223  88.6201335  77.1043967  17.6055145
  31.4013724  15.6839984   3.6195278  31.4392905  14.7647565   3.8836861
  31.0089402  15.6663792   2.7466488  95.2089787  77.3900198   9.5293140
  94.6715737  77.2302030  10.3051281  95.1029969  76.6009997   8.9978504
  69.9494600  98.3345371  85.8634663  69.7382306  97.5264418  85.3959274
  69.7902250  99.0294283  85.2247143  39.7302102 100.7055911  80.2722645
  39.3746089 101.5654659  80.4967594  40.2380132 100.4480877  81.0417175
  90.8706761  42.9283904  18.1203461  90.4866601  43.1417702  18.9707756
  90.1240159  42.8931569  17.5224400 103.3499337  93.6449932   7.1243477
 103.5863448  94.4053672   7.6555443 102.4212647  93.7691139   6.9283867
  44.7004842 104.9697336  79.8917532  44.6059274 105.6695806  80.5379009
  45.1264714 105.3896498  79.1444635  78.6756420   3.1187913  56.8735075
  79.0675879   2.9629737  57.7327681  79.3467951   3.5978574  56.3874245
   9.0856747  70.7355021  25.5640221   8.4412960  71.4181279  25.3768444
   8.6919693  70.2212762  26.2688637  77.8888273  30.0977516  76.4998674
  78.4335566  30.1660275  75.7157564  78.4148407  30.4975271  77.1924877
  96.7556334  91.6036867   8.5156918  97.3659135  91.7253612   9.2430019
  97.1711970  92.0489858   7.7772808  87.6512241   8.2585424  84.9258137
  88.0325127   7.5358325  84.4272804  86.8479443   8.4776819  84.4536400
  72.6258183  33.2031035  90.7883072  71.9883823  33.2465267  91.5010643
  72.3611498  33.8996911  90.1875114  84.0318728  34.2953597  23.4004593
  83.3943129  34.1379427  24.0968609  83.6657763  35.0253152  22.9010963
  27.8095344  93.5149025   5.4177856  28.7215141  93.7797235   5.2978611
  27.8238586  92.5615524   5.3332233  24.8789477  37.6880193  72.6967812
  25.4582095  38.2468939  72.1787596  24.9496579  36.8254638  72.2878408
  79.7225619  45.9110306   0.3440189  79.2632008  46.4187430  -0.3248978
  80.2491952  46.5567081   0.8151722  60.8382273  20.8065557  67.3312569
  61.3041162  21.4597130  67.8533363  61.5117836  20.1731944  67.0834446
  83.1313897  55.8184199  14.2156601  83.3506156  56.2685631  15.0314713
  83.1493665  54.8887305  14.4427872  98.7386943 101.4682697  21.2786007
  98.4454728 100.5752205  21.4594936  98.7864829 101.8836998  22.1396256
  12.7480415  86.8035792  11.8831825  12.1080784  86.9693326  11.1909390
  13.5820202  87.0921587  11.5124702   4.8346762  58.7881659   8.3935261
   5.3464846  58.6311536   7.6000309   5.2961496  58.3014171   9.0764236
  60.1621437  18.8583267  64.7173691  60.0772762  18.1056511  64.1321278
  59.3815374  19.3848503  64.5451403  15.9398126  89.1706639  68.7059307
  16.7151403  89.1554147  69.2670584  16.2675094  89.4537037  67.8522682
   4.7434858  41.3270103  10.0605202   3.9217094  40.9549700   9.7403622
   4.4739584  42.0330511  10.6479740  46.8576860   1.3819449  78.8087749
  47.2860289   2.2346167  78.8842964  46.1617422   1.5195993  78.1661701
  99.7898007  36.3663589   0.5046368 100.2894879  35.7077740   0.9871387
 100.3124810  36.5370070  -0.2788830  44.2359400   7.4121225  81.3173676
  43.6569214   7.1318853  82.0262051  43.6441803   7.6363271  80.5991936
  85.7891130  62.2456914  87.3974991  85.0182389  61.7320329  87.6386452
  86.2366151  61.7121297  86.7407799 108.4689713  37.5156903  83.8180828
 108.1241798  36.6252708  83.8851452 108.0236912  37.8882718  83.0570698
  79.6086788  13.7912619  83.3769417  78.7723637  13.6108160  82.9477024
  79.3978691  13.8187468  84.3102264  96.7174053  27.5991225  69.8571157
  96.6428566  28.4839153  70.2146292  97.1725559  27.7153492  69.0231180
  31.9602302  19.7999071   6.3089371  31.1796383  20.0411414   5.8102322
  31.6889385  19.8646330   7.2245979  64.9054813  26.0220218  78.5647297
  65.2207041  25.7584810  79.4292593  64.4916534  25.2349377  78.2105017
  34.1550159  84.5164686  71.2900400  34.0090846  83.5873800  71.4681721
  33.6011075  84.7049862  70.5324936  16.5176300  16.1690115  10.2165413
  16.3533596  16.8966125   9.6166706  15.8269981  15.5360316  10.0200844
  95.6299401  78.9502381   4.7462845  96.3395549  79.3741606   5.2289581
  95.9803248  78.0912064   4.5106506  73.3176994   6.2056673  88.2298374
  72.3726082   6.1589438  88.3742332  73.4430408   5.8536154  87.3485947
  10.0831036  40.0504004   5.0080681  10.5434421  40.8038162   5.3777885
  10.4257683  39.2991446   5.4922485  60.7976341  36.6364336  61.6789293
  59.8539400  36.4809370  61.6402245  60.8840132  37.4726701  62.1366215
  73.8363552  29.2126393  18.6407435  74.6406937  29.5359397  19.0466368
  73.1801987  29.2633343  19.3358099 108.1870461  82.6238702  24.7057724
 108.6955977  82.1433829  25.3590202 108.7196732  82.5847696  23.9114094
 106.1880875  29.7370315  36.2355089 105.4738235  30.3729844  36.2757635
 106.8600273  30.1648188  35.7047367  54.9886608  18.7263536  70.6683397
  54.4114923  18.6382902  71.4268541  54.5778275  19.4046032  70.1322174
  67.9480267   5.0953376  84.0529442  67.4670410   5.9228736  84.0612316
  68.3973122   5.0878966  83.2077694  29.0071487   9.4589174  71.0359430
  29.7247624   8.8329995  71.1333561  28.3503509   8.9918107  70.5195522
  77.9279900  85.9408568   1.8686581  78.2054044  86.2950896   2.7135181
  76.9732571  85.9036420   1.9263935  32.4612331  87.0163506  79.5292044
  32.7795409  86.1143833  79.4922590  31.5270328  86.9489306  79.3318319
  69.7463274  26.5090299  69.4233847  69.0443802  26.7978263  68.8402081
  69.4454336  26.7519569  70.2989864  22.9942421  74.6899651  18.7197781
  22.0381550  74.6764730  18.6755276  23.1906895  74.6888398  19.6566010
  15.2518510 102.8106421  76.1578226  14.6821689 102.6825720  76.9162989
  15.5010843 101.9251427  75.8932352   0.8435487  81.6136676  82.1180916
   0.9971165  81.7129332  83.0576611   1.6588902  81.9051152  81.7100334
  34.5597839 103.5187842  85.8637142  34.7137880 102.5824284  85.7382011
  34.4038963 103.8562259  84.9816322  71.1876488  19.9485242  51.1479712
  72.0914888  19.7031415  50.9502554  70.7080364  19.1201651  51.1430788
  81.4119148  13.9876246  69.2301130  81.1859608  14.9147296  69.1549063
  81.7319107  13.8910866  70.1270580 105.1808167  68.0797087   1.5452099
 104.7513343  67.9467224   2.3902512 106.1126471  68.1369637   1.7565155
 103.4935237  70.9179662   3.5387325 103.8862324  71.6736280   3.1017113
 103.4946109  70.2294468   2.8737736   9.6795511  72.9760629  64.4469500
   9.9279308  72.9544860  65.3711128   8.8000869  72.5987655  64.4264364
  60.8098793  33.5746694  69.6028090  61.4114809  34.1555715  69.1371250
  60.9575939  32.7135587  69.2117834  49.8203611  40.8282852  78.6294508
  50.4681587  40.2474117  78.2304907  50.2760363  41.6644478  78.7265539
  12.3634528  74.2307240  64.0822792  12.4638843  74.2780071  65.0330162
  13.0742358  73.6578160  63.7945461  18.9884567  93.3665603  61.2937212
  19.7549676  92.8629309  61.0197639  18.9459275  94.0944165  60.6735229
 101.2450504   1.4507714  56.6231680 101.5114594   0.6884405  57.1370840
 101.8002415   1.4202757  55.8440208   7.9436397  96.8606752  39.8271561
   7.5614833  96.8902582  40.7042599   7.4012470  97.4556154  39.3093848
  66.0428858  22.2271371  71.1540604  65.2404118  22.6968503  71.3813114
  66.2113667  21.6620922  71.9080973 101.3085604  58.7232416   7.9879856
 100.9651328  57.8627752   7.7473831 101.9839144  58.9030211   7.3339176
   9.5529369  32.2084950   2.8248787   8.7557606  32.2878216   2.3010063
  10.2458767  32.0493911   2.1839809 111.5888263  74.1968583  11.7389297
 112.2612668  73.5891484  11.4311314 111.2573815  73.7994908  12.5442123
  38.7000083 101.9352722  82.9316330  39.3399858 101.8828761  83.6415100
  38.2559680 102.7717584  83.0707359  88.3723546  52.5500970  33.9643478
  87.6465560  53.0317846  34.3611145  89.0880299  52.6334557  34.5944977
 110.2050877  42.1032524  84.7212887 110.2541924  41.6196823  83.8966751
 110.6403255  41.5361166  85.3578091 106.9995052  15.2441335  80.7492924
 107.3531872  14.8675561  79.9434805 107.4977162  14.8225451  81.4494896
  67.5017882  53.9269950  20.3262520  66.8673015  53.4731065  20.8809090
  67.3688961  54.8548724  20.5202007  35.7388786  88.4128736   7.6482868
  35.7009415  88.6694406   6.7268944  36.2933639  87.6326774   7.6570320
  64.4193411  27.5837922  62.1893501  63.5481501  27.1901107  62.1416569
  64.3415594  28.3984256  61.6928101   8.8204388  85.3433250  14.4776344
   9.4095901  85.4771875  13.7351990   9.2879108  85.7168816  15.2247334
  87.6567603 104.0767835  42.0997047  88.5269023 103.7393736  41.8870068
  87.8231383 104.9210189  42.5190067  97.0715714  66.0700964  11.2535477
  96.5256406  65.3945492  10.8512688  97.9694129  65.7840525  11.0853481
  13.6721233  60.8073400   9.8920631  14.0243820  60.0102358   9.4961262
  12.7900413  60.5650948  10.1740074 108.9469004  74.1856907  13.3786106
 108.0806590  74.0638684  12.9899979 108.7709618  74.3861197  14.2979050
  50.0188065   6.6345346  64.5876217  49.7982788   6.5055770  63.6651421
  49.7596264   7.5373620  64.7719002  16.0337924  87.0407754  88.5251331
  16.3300132  86.8899947  89.4227695  15.2564716  87.5914472  88.6187458
   6.3758949  81.9868134   4.4902134   6.0042194  81.3951610   3.8359642
   6.6039661  81.4179681   5.2254868  80.6898594  15.3114533  52.4477720
  81.5901375  15.1451230  52.1683836  80.7789421  15.7553601  53.2911253
  67.1651507  66.9625591  20.9479904  66.9221712  66.3232611  20.2783012
  67.2262932  67.7928101  20.4755783   8.4544758  59.9226879  14.7593784
   8.9375595  60.6480502  15.1552486   7.6731113  60.3306644  14.3861866
   7.4193481  48.7561949  11.7342663   8.0602268  49.1083826  12.3518944
   6.9771007  49.5284014  11.3816261  93.6399985  90.1756667   2.7650356
  94.2786408  90.6975697   3.2508278  94.1698695  89.5654820   2.2520638
  96.4545727   5.6715107  74.3437433  95.8408642   5.1977122  74.9050903
  96.6773510   5.0479245  73.6525488  77.1300840  32.3602247  69.8578596
  76.8708658  33.2728171  69.7305250  78.0870628  32.3801088  69.8526716
  75.5606317  92.3577922  72.2655821  74.7738694  92.7674633  71.9058609
  75.4698610  91.4306539  72.0455647 103.1330014  82.9161714   9.6357250
 104.0875388  82.8448127   9.6351337 102.9619838  83.8427113   9.4668865
  59.3074369 105.0115692  65.4831076  58.4664964 105.2383163  65.8801413
  59.3386888 105.5273081  64.6773338  80.5328369  12.0165586  90.0044346
  80.2318001  11.6330123  89.1807175  81.4525223  11.7586315  90.0667477
  15.6826066  75.0230413  77.6087523  15.3361654  75.1196152  76.7216873
  16.1287927  74.1762310  77.6007509  89.9478912  31.6345787  44.1820765
  90.8616161  31.5661430  44.4589329  89.4576931  31.7388511  44.9975920
  64.8792171  15.3404558  79.2803574  65.0333405  15.1562071  80.2069283
  65.4824877  16.0545683  79.0745831  84.1567994 103.5495685   0.5604649
  83.9198495 104.3531059   0.0974178  84.2793751 102.9009460  -0.1327133
   0.1825718  98.1707548  16.8771839   0.6152634  98.2586835  16.0279083
  -0.2583405  97.3222135  16.8346500  87.0222855  35.7246470  64.9953508
  86.9639587  35.1705098  65.7736588  87.7563477  36.3123393  65.1742220
  60.2824640  15.4451954  73.4437370  61.1628485  15.7501459  73.2242775
  59.7990370  15.4956019  72.6191235  78.6589146  38.5605145  75.6387234
  78.8074112  37.6664186  75.3308725  78.4283495  38.4606147  76.5623569
  37.3651699  53.7120623  28.4365654  38.1862072  53.2909768  28.6911488
  36.6834072  53.1282592  28.7691307  49.5384455   3.1111503  57.4500608
  50.3628111   2.6506147  57.6067781  49.2446184   3.3792800  58.3206987
  73.2851362  47.7874470  57.1504402  72.7268457  47.5651312  57.8955030
  72.7032518  48.2442904  56.5430355  85.5381012  28.3714032  82.8717899
  85.4870796  28.2343316  83.8177490  84.6621990  28.6684465  82.6252365
  86.3695049  15.5680907  81.7227459  86.7479706  16.4390492  81.6026115
  87.1215057  15.0021815  81.8973541  86.6143131   6.2656415  88.5710907
  86.2571335   7.1336550  88.7587357  86.0440159   5.6635261  89.0490532
   5.9027246  12.9577684  80.4858017   5.9948304  13.7819135  80.0077534
   5.0884679  12.5786471  80.1548958  71.7024945  88.9865917  49.9231100
  71.9558572  88.0823260  49.7378016  70.7478379  88.9594704  49.9873495
  79.1094780   9.3194205  81.1384487  79.9530888   9.2133307  80.6987858
  79.3329811   9.6464586  82.0098400 110.5456019  66.0439097   8.6221409
 109.7282363  66.3139187   8.2035160 110.2798367  65.3853475   9.2639351
 104.3412495  76.0476802  25.8077908 103.8875771  75.3410839  25.3482914
 103.7462092  76.2935732  26.5160942  93.3380222  53.4851170  64.5454741
  92.9742908  54.1515112  65.1284361  93.7173939  53.9821625  63.8207293
  23.2400803  82.2672509  34.8131180  23.7903694  82.8462552  35.3405285
  23.5641579  82.3775290  33.9192295  92.1718502  76.4540339  62.0451021
  92.7216721  77.1647549  62.3749590  91.8490505  76.0157537  62.8324699
  34.9448537  91.2487083  89.6040821  35.5641364  91.9784051  89.5879269
  34.2800378  91.4844173  88.9570141  48.8165760  15.1618218  76.7593336
  49.0338421  14.3311810  76.3361788  49.0340519  15.8272624  76.1065531
  83.7857914  28.5872793  68.6131382  83.7372208  29.4567728  68.2158279
  83.9155483  28.7571931  69.5461559  14.6213917  87.4370574   0.9334946
  14.6958832  88.3449958   1.2273121  13.9128879  87.0712970   1.4630985
  99.1386318  32.9716778  76.6527367  99.0004921  33.9185190  76.6274023
  98.2578373  32.5997996  76.6064644  75.1252270  20.4962778  83.6933994
  74.5135784  19.8772061  83.2948208  75.6942177  19.9532247  84.2389107
 108.1180382  85.2141285  72.2894907 108.0595779  84.9120140  71.3831043
 108.4275532  84.4507027  72.7769327  39.8161463  11.1436885  20.1823711
  40.4338841  11.6238349  19.6309280  40.2881055  10.3505700  20.4362392
   9.3815950  23.4815049  75.8722115   8.7397054  23.5597444  76.5779591
   8.9336637  22.9727650  75.1963615 102.3210430  22.9098892  79.3019152
 102.5201321  22.0432901  78.9475155 102.4348164  22.8138900  80.2474689
  53.1209139   3.3013289   5.0063324  53.9424758   3.5995810   5.3966141
  52.6895194   2.8080170   5.7040215  65.9115552  96.5878552  73.5210323
  65.7615709  95.6509691  73.6474466  65.1495504  97.0083183  73.9195299
  87.9088402  20.5810356  76.6901779  87.9167080  21.2126088  77.4094057
  87.7873707  19.7330964  77.1173477  58.1774573  -0.0134475   3.1201172
  57.7483611  -0.2273900   2.2916603  58.3432059   0.9278481   3.0679131
  28.8171581  93.4763931  27.0117378  28.3358864  93.9845680  27.6647091
  29.1064171  92.6946186  27.4822521   6.7206243  36.0504580  61.7942476
   6.1510327  36.0266495  61.0253286   7.5050786  35.5719495  61.5261316
 107.6177026  61.6574513  13.3171082 107.8333951  61.7298542  14.2468739
 106.9834901  62.3576628  13.1631279   7.6749901  22.5152706  14.7641468
   7.2066311  23.0393313  15.4139423   8.0737595  21.8071269  15.2698612
   9.3533424  89.5636843  14.4780922   8.4426216  89.2865490  14.5781899
   9.3245129  90.2419447  13.8032818  25.8631901  97.6268123  19.3690014
  26.2325767  96.9628690  18.7867928  25.9952930  97.2739957  20.2489376
 101.5658951  71.1175823  65.8148050 102.4124622  70.7842827  66.1122227
 101.7157364  72.0507526  65.6632233   5.8793453  85.0963687   8.0284214
   5.7197765  85.9983204   8.3063602   5.9142116  85.1427768   7.0729828
  83.5149144  88.6988276  62.7627277  84.1926717  88.1761044  62.3342085
  83.9986371  89.3703490  63.2436705  75.7506561  38.8578320  83.3019733
  75.6621552  38.8481402  84.2550182  74.8739576  39.0708017  82.9821682
  79.4264412  20.5897260  71.7026520  78.7088156  20.0174856  71.4310169
  79.0310812  21.4596701  71.7584801  70.0105858  42.3429155  87.0383167
  69.1760635  42.7213669  86.7615795  69.8133516  41.4202738  87.1997547
  19.6027378 103.3482860  18.0387783  20.2256969 102.8617405  18.5786247
  19.5689873 104.2180847  18.4369564  55.7199764  11.8687725  89.5737267
  55.9979582  12.5771832  90.1543427  55.2861357  11.2414110  90.1520252
  18.2454876  42.4069558  22.3094845  18.8979629  42.5865112  21.6325283
  18.5242752  41.5771865  22.6967716  43.2005076  11.0262387   4.9553776
  43.2816271  11.9749968   4.8579025  43.5853152  10.6694405   4.1548443
  93.8893127  28.2753396  67.0449686  93.2563782  28.5626864  67.7030373
  94.4231510  29.0506792  66.8714762  19.2497353  12.3732989  13.9374447
  19.5641617  11.4854090  14.1077995  18.3776908  12.3982661  14.3313408
  80.8922386  38.6581111  54.9827957  81.4559650  39.4264984  54.8931885
  80.3258514  38.8620567  55.7270050  85.7889652   7.3154259  73.4623528
  85.0019932   7.7705646  73.1627560  86.4006519   8.0167902  73.6863089
  47.3852110  17.5015378  88.0498314  48.3095217  17.2973144  88.1918812
  46.9985580  16.6743565  87.7626038  62.9918957  35.6049705  74.6260071
  62.6056623  34.7670579  74.8808813  62.3812628  36.2618089  74.9605560
  91.2149239  45.6818581  84.1885853  91.3753033  46.5133476  83.7423420
  91.7267132  45.7403946  84.9953556  11.4725593  53.8379991   8.5189247
  11.8337826  54.2747970   7.7475834  11.4472679  54.5197337   9.1903591
  97.2404957   8.1594443  48.3616304  97.1126080   9.0004903  48.8003969
  96.6184425   7.5698858  48.7878895  79.9372482  32.9692936  69.4495773
  80.1627254  32.1300077  69.0483379  79.7560167  33.5478735  68.7088823
   4.1341737   4.1293755  73.7052774   3.9710763   3.1946185  73.5793352
   3.5643819   4.3758947  74.4338369  82.2133255  35.1756549  69.9226665
  81.7855644  34.6255684  69.2664242  81.6305447  35.9286404  70.0207138
  19.4153073  43.3972836  75.0379610  18.7605622  42.6990414  75.0410509
  19.0375379  44.0773869  74.4802999  15.0343422  75.7586931   2.5316429
  15.1794533  74.8489855   2.2716331  14.5617298  75.6980394   3.3618259
  81.3814831  23.5580921  57.9808092  81.4666843  24.5057559  57.8763866
  81.0911369  23.2477665  57.1231222  80.3608894  41.6836834  88.0428123
  79.7816658  41.4469576  87.3184586  80.8331394  42.4551105  87.7295780
  89.6245766  54.0352401   3.9473915  88.7411834  54.3384110   3.7377834
  89.5441390  53.6470016   4.8186111  90.9857273  39.8894715  36.5067196
  90.2304649  40.4595804  36.3625169  91.4109612  39.8342156  35.6509423
  93.9657116  41.8806791  49.8515749  93.9966106  41.1797953  50.5027580
  93.5034752  42.5949383  50.2902126  68.8781834   7.9548305  63.4777689
  69.3346071   8.7864679  63.3501387  69.0085459   7.7496916  64.4035959
  92.6877975  26.9366479  61.4458847  93.2711411  27.2291684  62.1461535
  91.8673897  26.7239285  61.8907690  70.3815508   9.1105449  85.9207535
  69.5005655   9.4449669  86.0888386  70.5867624   9.4106579  85.0352859
  82.6612186  29.3543386  75.0028133  82.1515083  28.9006805  75.6740952
  83.5392094  28.9799571  75.0749397  84.4405174  66.4755249  83.4097195
  84.7269821  66.8835878  82.5926208  85.1597786  65.8918238  83.6509514
 109.8596764  36.5670562  56.4245081 109.9454594  37.5053477  56.5932608
 109.3688679  36.2325835  57.1751547  96.7055225   2.2761646  68.7653732
  96.6391468   1.3674495  68.4720039  96.9700050   2.2128548  69.6831226
  63.3759737   7.8034443  44.7984838  62.9481697   7.1397436  44.2574501
  64.1786718   8.0186564  44.3235207  92.3373461 101.8646024  13.7623119
  92.3811341 100.9210228  13.9171314  92.5176764 101.9625305  12.8273678
  38.7294960  16.5830255  44.8423576  39.6782064  16.4619505  44.8813725
  38.6073899  17.3316061  44.2584467  94.3135643  17.4094486  79.7099686
  94.2492580  17.4742568  78.7571287  95.0151348  18.0169010  79.9445438
  12.2171168   5.8367293  19.9344063  12.8837781   5.5427163  19.3136406
  11.5355687   6.2267630  19.3870640  94.8404694  60.1243591  55.9102058
  95.0073051  59.2299128  55.6129503  95.4716492  60.2637863  56.6161871
  21.2029747 100.7436632  28.1969833  20.6842903 100.1854967  28.7763309
  21.4170269 101.5091156  28.7303638  90.2291393  13.9438403  89.1973877
  90.0110245  13.4260881  89.9723721  91.1832619  13.8955927  89.1378593
 108.1677246  53.9246988  78.6209011 107.7573776  53.8866138  79.4848442
 108.3380604  54.8556376  78.4774828  84.0558387 101.2499164  13.8301182
  84.0662957 100.6862043  14.6036530  84.0795089 102.1398090  14.1819286
  65.1623917  29.0583158  89.6337795  64.9798870  29.5143700  90.4553223
  65.4206705  28.1764078  89.9016571  98.3425236  33.4386420  65.3553152
  98.6047268  34.1037273  64.7188044  97.8278732  33.9181304  66.0045099
  67.8839970  30.6728125  89.3599987  67.1500349  31.1664915  89.7257996
  68.1746864  31.1947465  88.6121273  19.3689827  97.5791954  41.2979221
  19.5617203  98.0782293  42.0916748  20.2067379  97.5282501  40.8376980
  19.2526393  15.8023064   3.7943172  18.5208850  15.5639117   3.2251644
  19.2834191  15.1051943   4.4495487 108.3550549  26.1568999  85.6079292
 107.9213810  26.0872221  86.4584064 108.0146599  26.9683719  85.2312756
  15.1703885  45.1341915  84.0611362  15.1561692  44.6089792  83.2610226
  15.9956792  44.9008274  84.4861889  60.7111120  30.5848360  73.3690882
  60.6141710  29.8185253  73.9344215  61.5083218  30.4133463  72.8678036
  25.5365662 101.0364746  32.4051476  25.0689892 101.8510412  32.5897598
  25.2428059 100.4319404  33.0866718  85.2020836  27.1665096  77.1186733
  84.8553562  26.2865257  77.2657776  84.7194862  27.7198529  77.7327871
  50.0608257  60.0265215   0.7645702  50.3079609  60.6572621   0.0883198
  49.1540531  59.7985540   0.5595875  81.4614821  55.7896213   1.9736958
  80.7613993  55.2216579   1.6519260  82.2412730  55.2345155   1.9694233
  92.4834633  23.1904054  71.5748167  92.5495815  23.6995792  70.7669783
  92.8998089  23.7397790  72.2389555   2.8194384  76.0639976  28.2684326
   3.5414890  75.6033681  27.8410053   3.2332090  76.5456747  28.9846802
  78.3859205  37.2541451  66.4625740  77.8483009  37.8311682  67.0050144
  78.1032515  36.3708305  66.6993999  18.9309219  84.0033697  18.8855171
  19.6399120  83.5103487  19.2984200  18.1313900  83.6248969  19.2512226
   5.7038978 103.7130092   7.1260548   5.1690725 104.5062612   7.1567726
   5.2699236 103.1564354   6.4794350  52.9366922  32.0665193  46.7329502
  52.9418373  32.8602219  46.1979342  53.0588436  32.3807549  47.6288128
  18.4341434  78.5708808  15.2161789  18.2247166  79.5046924  15.2352619
  19.3829445  78.5406684  15.0932884 109.6207047  91.2261652  19.8949432
 108.8406707  90.7540415  19.6036053 109.3551541  92.1457623  19.9026203
  74.4561338  10.4728866  53.4858799  75.3737879  10.2273977  53.6036682
  74.0050411  10.0788355  54.2325211 110.8781195  91.7037009   2.6752758
 111.6663123  91.3724445   2.2448635 110.3469086  90.9237074   2.8354549
  64.2979288  14.5550311  68.9975643  63.3442259  14.6258414  68.9566612
  64.5651913  15.2585852  69.5890141 108.5707092  39.9335027  87.5787163
 109.2688274  40.5822992  87.6677036 109.0294552  39.0966392  87.5049400
 101.5623760  43.4788370  88.3261967 101.5450001  44.0248299  89.1122150
 102.4235630  43.6408281  87.9410362  95.6397533  44.0880537  81.6813374
  96.1135769  43.2742357  81.5098190  94.9684429  43.8445759  82.3187542
  59.5220332  10.1310532  25.0165653  59.6826605  10.6808131  24.2496300
  60.3877692   9.8061984  25.2639580  27.6932625  50.1334916  15.7897758
  27.1701435  49.9421348  15.0113487  28.5834221  49.8765995  15.5492401
  14.2662624 100.2200626   5.4729939  13.8128475 100.9870123   5.1230812
  13.7891201  99.4736503   5.1104450   3.3871892  20.7739711  68.5311699
   3.2797101  20.9630966  69.4633245   4.2356065  20.3347254  68.4721661
 103.8502789  19.9754989  38.5064530 104.4583607  19.2719138  38.2796526
 103.2474804  20.0196242  37.7642202 106.0988903   2.2977228  75.6022739
 105.1489925   2.2609064  75.4901266 106.4508247   2.0398098  74.7503042
  24.7216610  68.7785064  33.6380100  25.3111080  68.5826408  32.9097176
  23.8490776  68.5748099  33.3013535 107.9777098  76.9110440  31.2239552
 108.2111359  76.1942218  31.8137932 107.0811272  76.7151068  30.9519672
  96.9682312  66.4882469  41.4143705  96.5638924  67.3530436  41.4841032
  97.1069050  66.2148619  42.3211575 109.5474911  66.8203329   0.8644485
 109.6697474  66.0270547   0.3429127 109.7364903  67.5368260   0.2585220
   7.9179577  86.0012745   0.8893681   8.7738899  85.7146286   0.5708504
   7.3817352  85.2084087   0.8817291  95.6074763  99.8549150   9.3755817
  95.8828974  99.3780159  10.1584816  96.3102723  99.7039054   8.7435150
  61.9676352  26.3386965  61.5583467  61.6835546  26.6739726  60.7079792
  62.3860598  25.5014181  61.3580513  56.6013718  24.4495749  88.1953239
  55.7365847  24.8597026  88.2085514  57.1657658  25.0943995  87.7688408
  91.8320465  27.1397352  80.2668762  91.1319923  27.7457571  80.5095387
  92.3830605  27.0852995  81.0476780  94.6141721  40.6425260  20.1085186
  94.8663378  40.1818775  20.9088039  95.4105044  40.6536375  19.5775223
  43.7788920   5.9465687   9.8660564  44.0705542   6.8466370  10.0111389
  43.8416724   5.8242028   8.9187908  44.5476532  22.7284241  63.0611277
  44.2946959  21.8918085  62.6708508  45.5009699  22.7527547  62.9785109
 107.9102707  21.5116572  77.4249840 108.3273888  20.7044005  77.1240139
 107.2045422  21.6652083  76.7968130  49.8218727  31.2285161  72.7849579
  49.0388966  31.2096286  72.2346640  50.3036213  30.4374790  72.5432777
  72.4286318  45.5268478  83.3173084  71.6643333  45.5072021  83.8932419
  72.1511412  46.0553217  82.5690174  14.7217373 103.6076234   4.9738312
  14.0224747 103.7482570   5.6121826  14.2990402 103.1372713   4.2552757
 100.0992347  75.2819918   1.1389542  99.4603253  75.1716899   0.4347801
 100.8224679  74.7026633   0.8990765  93.4352971  76.7956399  11.8870544
  92.6988269  76.5438317  11.3298893  93.4870768  76.1012934  12.5438976
  88.4464836   5.1426488  53.2792377  87.5151920   5.0042498  53.4517717
  88.7215328   5.7754469  53.9426756  14.7304062  87.2261380   4.3626690
  14.5360187  87.1229170   5.2942276  15.6864742  87.2263979   4.3161011
 100.2824593  63.4816027  83.2234383 100.8662128  64.0458536  83.7304688
 100.8460045  63.0940151  82.5537872  80.1538467  53.6559772  71.9626045
  80.6099033  53.2677364  71.2159348  80.4344463  54.5711231  71.9651937
  41.6358379  96.0093282   7.6860142  42.5609211  95.7728981   7.7535725
  41.2541202  95.3275035   7.1331787  47.5621513  72.2969447  20.8791065
  48.0859188  71.9508587  21.6016865  47.8388981  71.7877101  20.1173115
  95.2920055  18.7069762  84.5285892  94.5669460  18.5388732  85.1304722
  95.8438587  17.9276812  84.5948219  79.6993780  15.8402908  66.2312508
  79.7643089  16.0597265  65.3018093  78.7595797  15.8430958  66.4129257
  79.4242811  55.6026459  89.8680496  80.3439045  55.4846144  89.6301460
  79.0311003  54.7393465  89.7401714 102.3419952  33.0037451  63.2112455
 102.1881294  32.9289126  62.2694635 103.2085419  32.6193070  63.3436537
 107.2711754  33.4526134  72.8625488 106.5670109  33.8712597  73.3576345
 106.8229580  32.8371859  72.2823906  54.3337107  24.4643855  70.5840015
  53.6104584  23.8687158  70.7797623  54.4069815  24.4467115  69.6297741
  98.9544154  57.0262970  12.5950623  98.8463450  56.1019032  12.3713493
  99.8915673  57.1239259  12.7637196  92.4315929  47.1909094  67.3635244
  93.0124283  47.6283979  66.7410612  92.3109245  47.8283930  68.0672884
  79.0333796  34.3591309  67.0468950  79.7272396  34.4434643  66.3929224
  78.4870386  33.6419654  66.7253160  82.7588367  38.9698505  75.7439613
  83.5483074  38.5380983  75.4175425  83.0809593  39.7545362  76.1875105
  18.0160859  29.9025106  60.0246143  18.7352899  30.4791522  59.7668171
  18.1396821  29.1143298  59.4957256  96.3796043  51.2183332  68.5112286
  95.7448006  51.8384981  68.8699150  96.6234016  50.6678200  69.2553616
  92.9461718 100.6297515  21.8179226  92.5542403 101.1547350  21.1200523
  93.3356572 101.2722276  22.4110127  67.3270273  29.3892503  81.4782238
  67.9494667  29.2013645  80.7757282  67.8320026  29.2731547  82.2830582
  75.9045696  17.0412421  38.5682082  75.7808208  16.2599790  38.0291820
  76.1013556  17.7365899  37.9405165  70.0448942  35.2181268  71.8785381
  70.9452915  35.3645825  72.1684742  69.7642803  34.4362998  72.3541784
 104.9923611  43.9922380  82.3679638 105.7633781  43.4632874  82.1630764
 104.2709923  43.3636618  82.3950577  79.9239016  18.2412136  91.1624908
  79.5513773  18.1709146  92.0414162  79.2224836  18.6231720  90.6349087
  28.7972454  61.0595112  27.8673172  29.1870788  61.6315423  27.2062302
  29.4674686  60.9873508  28.5468960  94.5696640  14.7794497  76.9878149
  94.2546654  14.2846847  76.2313652  93.8742352  14.6894181  77.6393604
  93.4403515  63.0773115  83.6568165  92.8758049  63.8502359  83.6672497
  93.6206436  62.9249048  82.7291870  57.5124793  19.5317261  14.6455002
  58.0959563  19.7033303  13.9063454  58.0520110  19.0449755  15.2685642
  84.2265987  43.4440899  74.9954605  84.3017006  42.4984121  75.1230669
  83.2839108  43.6085892  74.9727440  22.7932408  17.4534786  72.5891399
  21.9645455  17.8175712  72.2778130  23.3377603  17.3920643  71.8043041
  88.1264973   5.9365726  78.4819651  87.8894138   6.6766191  77.9230785
  88.5252571   5.3035843  77.8848457  44.0464353  87.3275405  82.4588013
  44.2331647  87.7086216  81.6008091  43.4804105  86.5789872  82.2703362
 107.7723408  68.0561768   2.4464035 108.3405877  67.6271604   1.8066597
 107.9644919  68.9889167   2.3499393  37.8112029  87.3662549  71.8353033
  38.5511398  87.1508199  72.4030304  38.1870794  87.9217177  71.1523628
  36.9443368  73.5923987  82.5874615  37.2084569  72.9257279  83.2215118
  37.7623128  73.8648802  82.1716404  12.9036335  98.0042337   4.3823624
  13.0943397  97.0665430   4.4068527  12.0862678  98.0952810   4.8721123
  89.4318867  20.1682568  91.2011623  89.4132233  19.8414457  90.3016758
  89.7291183  19.4216025  91.7211628  59.5257997 100.7239368  37.5573635
  59.8484086 101.1064362  36.7413688  59.3195676  99.8168909  37.3316050
   4.4646791  33.8711858  60.7856321   3.8594869  33.5948133  61.4738178
   5.3310063  33.8029718  61.1869431  79.4309902  81.0323715  81.6683388
  79.8617601  81.0406303  82.5230980  78.5876846  81.4587021  81.8210030
 106.4157248  81.0298227  49.9476337 106.5679837  80.8458375  49.0207100
 105.8301736  81.7870306  49.9484921 103.0629349  33.4221911  69.4957161
 103.1230831  32.8657293  68.7192059 102.3753929  34.0539384  69.2849827
   9.4706967  24.4534636  65.6655598   9.2041162  24.9852943  64.9156761
   8.9421418  24.7825551  66.3925791  91.8923664  16.4693463  88.6813354
  92.1158028  16.3760865  87.7552700  91.2192154  15.8060086  88.8332844
  93.7923003 103.3472847  25.7402992  93.9787627 103.8228296  26.5498161
  92.8773165 103.0793069  25.8252716  67.7883530  22.6032186  84.5410156
  68.0413485  22.7299047  83.6265945  66.8313313  22.6173353  84.5289135
  84.9399662  27.9924464  65.1874304  84.8700428  28.9285779  65.3745127
  84.0412426  27.6684785  65.2471733  94.4852973  78.1742214   1.4241886
  94.4294787  77.2212075   1.3543320  95.4060508  78.3732985   1.2544441
  83.1776237  31.6340780  76.4603662  83.0430222  32.4121213  75.9192896
  83.1548119  30.9046888  75.8409262  79.4602203  16.5678728  80.4712296
  78.9308119  16.1809564  79.7739029  80.2880478  16.7929280  80.0466347
  49.4100332 100.8656591  81.7694664  48.7122297 101.5160367  81.8488693
  50.1126718 101.3233807  81.3079262  30.3580097  88.8211225  22.0291805
  29.8509411  89.6329783  22.0267582  29.7549442  88.1610511  21.6873455
  20.8254246  82.6039694  16.4738083  21.1644939  82.0876406  15.7425880
  20.7821754  81.9860862  17.2035885 103.4879208  44.6262312  64.8277569
 104.1284180  45.0886250  64.2872143 103.9341450  43.8218641  65.0925493
   6.1458019  86.6113089  18.9545727   7.0282558  86.2778400  18.7924004
   5.6862739  86.4865945  18.1242085  74.0105867  12.6090789  67.1289158
  74.7194147  12.2174084  67.6391983  73.6141968  13.2483315  67.7209139
  89.6453762  10.5064714  77.5181103  89.8564720  10.1201832  78.3680820
  90.2359009  10.0706398  76.9036484 100.6236745  72.2814714  21.4944363
 100.1082707  71.4772855  21.4321709 100.0280619  72.9176234  21.8904114
  61.6730404  29.5531249  70.6091404  62.1377516  30.3843713  70.7056093
  60.9701681  29.7424006  69.9875546 108.3912230  59.9896638  11.3556099
 108.2198382  60.7090639  11.9633293 107.9456664  59.2367529  11.7439842
  97.8516865  88.4068750  28.6722946  97.0562888  88.3685492  29.2034340
  97.8380633  87.5972580  28.1618404  69.0699387  23.6415935  82.0671272
  68.7824631  24.5536685  82.1084309  70.0172901  23.6829114  82.1977139
  60.9721803  78.6564976  80.3578186  60.8652353  79.4489199  80.8839989
  60.4464864  77.9963070  80.8095169  21.4065079  89.6410202   0.7677841
  21.6970352  90.5501031   0.8412361  20.9514431  89.4676708   1.5918541
  70.1256466  13.7506640  73.9741373  70.0205183  12.8115082  74.1263485
  70.6100464  14.0643251  74.7378159  98.0316162  15.9450006  56.9091272
  97.1246719  15.7294858  56.6917658  98.4945583  15.9045911  56.0722971
  78.7210321   9.8244023  43.1303072  77.9697800   9.9277216  43.7144089
  78.3347845   9.6868020  42.2653723  76.9456291  46.0659122  87.0059586
  77.7623034  45.5755949  87.1001148  76.2606525  45.4351711  87.2277927
  56.9537258   5.5414206  87.8879738  56.2120628   6.1268139  88.0412102
  57.5789404   6.0713422  87.3934746  57.6775455  35.0674558  86.4669132
  57.1013737  35.4966831  87.0993900  58.1771660  34.4379187  86.9868088
   1.2026218  73.2041930   2.1618176   0.4490904  73.7841295   2.2718239
   0.9488300  72.3949360   2.6055717  90.6703472  21.7679262  81.2682247
  91.4426231  21.5824914  80.7339573  89.9350643  21.6953492  80.6596851
  61.2147665  13.7023866  76.8675852  61.6172314  12.8836524  77.1572876
  60.9633446  14.1455424  77.6779127  83.5024739  75.6335782   1.7267609
  83.4899379  74.7493385   1.3604355  84.1430331  75.5896567   2.4366856
  59.0555620  12.9819989  68.6114836  58.7385559  13.8849008  68.6340189
  58.4564066  12.5326014  68.0154181  52.5420097  92.7879928  17.7057171
  52.9857830  93.1793998  16.9533253  51.7473606  93.3106063  17.8136063
 104.5724869   8.9656091  61.1282110 104.0977573   8.3835912  61.7216110
 105.1526165   8.3846271  60.6361294  20.4050969 102.5140774  52.3534727
  20.9952544 102.9800474  52.9457712  20.9483289 102.2971573  51.5957928
   7.1113443  88.1198853  80.9727097   7.8907346  87.6744169  81.3048840
   7.0119809  88.8840693  81.5404987   1.9853929  36.6548538  48.6120510
   2.1286443  36.0736561  47.8651142   1.0629037  36.9024801  48.5493755
  81.9870663  47.3142862  83.6333275  81.2933540  47.6926279  84.1735744
  82.7707481  47.3636103  84.1807270  83.0827999  41.8055010  78.9898682
  82.3259163  41.6610909  79.5577574  83.1594753  42.7577734  78.9304972
  32.7987961  92.8381656  33.2759666  32.7586368  93.5745500  32.6657581
  33.2483772  93.1885742  34.0449429  92.3892307  38.7824202  48.4842110
  93.1996346  38.5547495  48.9398909  91.7343235  38.8490820  49.1791153
  11.7444852  30.8094430  89.6611023  11.4671567  31.6929770  89.9033546
  11.3183454  30.6469488  88.8195324  79.0799522  55.1062965  79.7050619
  79.4126177  54.5928621  80.4412365  79.5629025  54.7781754  78.9465618
  80.9884219   1.5235703  11.2847996  80.7993178   0.5870526  11.2264252
  81.8416075   1.5691941  11.7163467  89.8724079  12.9146624  62.6871777
  89.2711830  13.5443270  62.2893333  90.6850815  13.4049594  62.8113079
  91.7418861  52.9078054  73.6883307  92.1583843  53.7296295  73.4287882
  91.4871788  52.4970007  72.8621340  96.3667870  59.5669174  85.2055645
  95.8161068  58.7903738  85.3053665  96.8299770  59.6409178  86.0399532
  13.2302956 102.2747158   2.6134872  13.6886124 101.4510416   2.4469471
  12.5988869 102.3464559   1.8976688 106.5828037  47.1575880  76.3295841
 106.2187958  47.1558285  75.4443026 107.2648430  47.8288126  76.3067818
  45.3975395  99.2292045   2.0116901  46.3200191  99.0920042   2.2271824
  44.9437336  99.1694234   2.8523541 106.4786149  63.7079249  19.1243172
 105.8101750  63.1535195  19.5268726 107.2885371  63.4742056  19.5777798
  70.6931925   8.8598633  66.7253780  70.9343863   8.0356646  66.3025856
  70.0317192   9.2407447  66.1477852  90.7388783  52.5654793  85.4617596
  90.7205582  51.9003344  84.7736645  91.1340904  52.1224976  86.2126255
 101.0369205  38.1794167  82.2281551 100.4613781  38.1438589  81.4641476
 100.6131458  38.8024449  82.8184795  50.3041796  -0.2583320   6.6025829
  50.7740168   0.2405684   7.2708511  50.1921897   0.3575604   5.8784580
  26.1875347  77.4631761   0.9328365  26.4584259  76.8901085   0.2155876
  25.2677635  77.6560114   0.7510281  91.1767483  59.0307093  34.3899846
  91.4176559  58.7811947  33.4978318  91.7649460  58.5219955  34.9480677
  76.4720058  33.1217957  89.4645119  76.5657139  32.2015285  89.7105980
  77.2485304  33.5472345  89.8281574 102.2426605  87.2842884  81.0869026
 101.4842129  86.8876266  81.5154552 101.8867207  88.0427456  80.6240082
  99.0518475  15.0519454  50.1108885  99.1236115  15.8766675  49.6303511
  98.1148052  14.8565292  50.1126528   7.3174480  97.4120306   4.9790955
   7.1125225  98.2998251   4.6857357   7.8474239  97.5362943   5.7664394
  62.4664120  75.4865550  17.0282936  63.1736187  75.9330271  17.4938679
  61.6902069  76.0179638  17.2053146  77.7052116  35.8990383  84.7577763
  77.0109510  35.2400756  84.7590351  77.3644018  36.6049719  84.2084694
 100.2855206  24.7266769  72.2915983 100.0185108  23.9628577  72.8029871
  99.5045090  24.9656534  71.7924452  66.9613604   4.4825785  21.8240166
  67.2513346   4.2712824  20.9366035  66.0304408   4.6845620  21.7300701
  92.1565914  31.7033482  45.5670404  92.2578430  32.5301862  46.0385466
  92.9806709  31.5960288  45.0920486 103.5625935   4.0046087  84.4048119
 103.7947845   4.0213633  85.3332710 102.6911640   3.6091840  84.3829536
 101.9438457  64.0757561  88.8714600 102.5703049  64.7985697  88.8351059
 101.6041470  64.0081167  87.9791260   4.8840860  91.3867425   3.2981682
   4.7604755  91.8087290   2.4479485   4.6675924  92.0662998   3.9365768
  99.8365593  26.2566066  65.7991505  99.0826893  25.6852794  65.9457731
 100.1962185  26.4076281  66.6732550 110.8610249  26.0526848  87.7663422
 111.1209393  25.1491356  87.5866985 109.9282360  26.0804439  87.5533485
  73.4787273  49.8808241  80.8134747  73.4768963  48.9349413  80.9602261
  72.8368998  50.2211475  81.4367390  53.5713243  33.6670160  79.2692852
  53.5202599  34.5442414  78.8896847  53.0354786  33.7170124  80.0608635
  81.3787746  27.8817558  76.8690634  81.6651440  27.7545953  77.7735281
  80.6063080  27.3232937  76.7816448  84.2808680   9.2111247  13.9764690
  83.7624983   9.9267285  13.6084461  85.0231318   9.1210835  13.3788300
  37.6034550  96.3809751  11.4905167  37.9464249  95.5205225  11.7318058
  37.0994381  96.6607975  12.2546482  35.8468632 100.6060384   4.7520733
  36.3979629  99.8378538   4.6023369  35.2908710 100.3614114   5.4918480
  24.9292710  23.4853625  70.9560680  25.0906232  24.3324518  71.3715649
  25.3888276  22.8550673  71.5108299  90.2701283  68.6170601  38.2015610
  90.5502606  69.4575511  38.5639572  90.1267005  68.0616830  38.9678574
  27.0552304  77.9402351  74.1599751  26.1086419  77.7982855  74.1681814
  27.3562196  77.5021410  73.3639145   5.4236844  61.2381029  49.5150423
   4.7324041  61.6152525  48.9708710   5.1518014  60.3307343  49.6528625
  18.8102154  55.4050373  25.0727463  18.2613472  56.0830011  24.6786118
  18.8267616  55.6221463  26.0048485  15.5484632  56.3967848  75.7341480
  16.1139539  57.1434307  75.9315634  15.0005677  56.2987900  76.5128899
  94.4187832  50.9809732  66.2390709  94.3702888  51.9328547  66.1507130
  93.9329720  50.7898521  67.0413780  24.9726204  94.9499200  -0.1376438
  24.2109970  94.4758628   0.1961517  25.6250194  94.8758100   0.5588627
  39.2026189  18.1918955  80.0469875  40.0198892  18.2918358  79.5588207
  38.7305692  19.0104115  79.8939037  16.9905762  82.3168014   1.7792034
  17.7493194  82.7607702   2.1579361  16.4811710  82.0257805   2.5355434
  57.3077679   9.0877628  78.8815355  58.0969620   9.0859139  78.3398771
  57.5986719   8.7529594  79.7297812 104.1297774   3.8188927  16.2968636
 104.3495135   4.0390723  17.2021103 103.8189177   4.6415656  15.9189606
  33.1850723  94.7462009   7.7302265  33.0543522  94.0422367   8.3655071
  33.4653667  95.4948877   8.2566547  19.2923120  35.1101589  90.0973701
  19.5902494  35.3991270  89.2348385  19.1161111  35.9213042  90.5740643
  71.5268660  11.8747640  57.2724295  71.2989902  11.1522424  57.8574657
  71.2571430  11.5743840  56.4045238  83.2934050   2.2679227   2.6438522
  84.0290694   2.0384972   3.2116508  82.5979476   1.6603272   2.8956413
  70.2535963  46.3131332  85.3468800  69.5242691  46.6095448  85.8913517
  69.8359680  45.8874989  84.5981026  97.8315926  35.6703830  88.2431507
  97.7463436  36.4023590  87.6322746  98.5432148  35.1403880  87.8840828
 105.3356838  47.9837847  79.4817305 105.2700424  47.5574017  78.6272573
 105.8264828  47.3641491  80.0215340  91.4515400  24.4312620  51.5099096
  90.8094501  23.7360644  51.3661957  91.4708996  24.9139786  50.6835651
   4.7942975  66.8115187  55.3149176   5.6281236  67.0189619  55.7367325
   4.1518262  67.3505926  55.7762909  36.6641807  98.6889970  77.6428509
  36.5473365  98.0509680  76.9389343  36.5123748  98.1903720  78.4456968
  47.8978256  91.5985297   0.7836437  48.7720875  91.9588183   0.9322929
  47.3134712  92.3540114   0.8470249  45.5318503  13.4091466  12.1217346
  46.1217646  12.8858321  11.5791702  44.7098498  12.9187052  12.1235943
 104.8832607  32.4836016  80.0411320 105.2915478  33.2775307  79.6958590
 104.3059444  32.1859550  79.3380308  74.4478798  65.4465818  85.1632595
  75.2931023  65.8946753  85.1955128  74.5216894  64.7488499  85.8143711
   6.0739044  90.9914969  19.1700745   5.9076980  91.7432092  19.7388744
   5.6479935  90.2574037  19.6127129  93.4897614  21.5933514  55.7014513
  93.8759422  20.7305503  55.8520317  94.1680908  22.0811653  55.2343893
  28.2833771  88.7857412   0.9068584  27.8160862  88.9409851   1.7276955
  27.6178745  88.4348391   0.3150749  68.9610624   9.7506964  77.5984478
  68.4775686   9.9799925  78.3921003  68.7100267   8.8447195  77.4183941
   9.0579084  74.8074436  81.5290260   8.7573388  74.2385054  82.2376919
   8.2763818  75.2918434  81.2629318  95.4019356   0.8970921  45.2896833
  96.2729549   0.5017911  45.3255701  94.9583435   0.4350471  44.5783615
   5.6345990  57.9601812  75.0637054   5.4322198  58.8800907  74.8932838
   6.4523652  57.9829311  75.5606604 104.3695736  18.0884612  79.0601826
 104.0923023  17.6589763  78.2509279 104.4417858  17.3769224  79.6963692
  82.5579834  32.2398496  73.1115389  82.6439953  32.0722413  72.1730614
  83.1061840  31.5730476  73.5251570  77.2921181  38.4956813  61.6923332
  78.1935883  38.4466505  62.0104265  77.2055674  37.7475381  61.1015511
  66.0210800  35.8081841  90.6379032  65.6198215  34.9667406  90.8551598
  65.3298283  36.4511275  90.7960892  94.0129566  45.3670454  70.4250813
  94.7755909  45.9115458  70.2297831  93.3956718  45.9628391  70.8495998
  83.7386466  62.7404617   5.5492783  83.5217238  62.5108342   6.4528465
  84.6619893  62.5054221   5.4574871  50.8445553  99.6413826  20.3115273
  51.7478279  99.3282436  20.2637863  50.8376221 100.4350637  19.7764969
  33.1227402  25.5226557  23.9600849  32.9930071  25.9593146  23.1182194
  33.9834027  25.1103537  23.8859177  14.1715053 102.2310327  28.8004971
  13.6655907 101.8451904  29.5156288  14.2882637 101.5149330  28.1761551
 110.6822491  54.7964001  59.6511602 110.7130718  54.0693712  59.0292978
 111.1355591  55.5120850  59.2055798  79.4057274  17.5296259  60.0478554
  79.9876022  18.1044316  60.5451012  79.0426779  16.9324648  60.7019377
  87.8034878  65.5501699  75.8027601  88.5215569  66.1163759  75.5199003
  87.3774815  65.2792597  74.9895191  66.3384914  36.1429811  84.2625427
  67.1170712  36.1514473  84.8192978  66.6824913  36.1594605  83.3694458
  92.5761509  39.6477222  71.2628508  92.6932716  39.2401934  72.1210098
  93.1452847  40.4170704  71.2833738 106.1501312  40.1272917  76.7148733
 105.3245163  40.6115007  76.7037249 105.9577274  39.3373680  77.2200727
  75.6321430  39.1315246  86.0405350  74.9057102  39.6726990  86.3498211
  76.3435173  39.3115187  86.6551781  44.2796755  13.8357604  82.7056885
  45.0914955  14.3188310  82.5513554  43.6399317  14.5096886  82.9354286
  91.7659569  26.7598939  71.3206911  91.8377018  27.1100092  72.2086668
  92.6523590  26.8248439  70.9652901  84.1698551  26.4839482  90.3326225
  84.5123959  27.2150016  90.8468819  84.9009037  25.8688116  90.2743244
  46.2936214  80.6862615   2.0507050  46.5842823  81.5823697   2.2202396
  46.4507774  80.5563830   1.1154652  72.9985809  30.5661511  73.7918615
  72.4421406  31.1653018  73.2942486  73.6713028  30.2909684  73.1690025
  50.4692225   8.3094733  11.5439224  51.1763720   8.7418931  11.0651875
  49.7864775   8.1694167  10.8878136   9.0436891  68.0659819  70.6583881
   9.0044454  67.5136662  71.4391804   8.1554082  68.0412245  70.3026056
   6.3675789  93.4211515   6.7597580   5.7739548  94.1614412   6.8855095
   6.5196041  93.3938287   5.8151054  14.0534595  87.1403264   7.8721905
  14.1342834  86.4164065   8.4931946  13.3189777  86.8930768   7.3103809
  89.8566151  31.6375375  57.0074987  90.3511047  31.5744257  57.8246498
  90.4741478  31.3580346  56.3316584  55.0127654  25.4338019   0.9335804
  55.7995753  25.9738152   0.8590698  55.3432326  24.5394890   1.0185909
  84.3022823  57.4863529  89.2753887  85.0682640  58.0394268  89.4290733
  83.5584164  58.0298471  89.5352364  52.5058036  16.5155928   4.0076256
  52.2845130  16.8549721   3.1404018  53.3879618  16.8465655   4.1764164
   9.0182880  99.5471500   3.5804558   8.1849007  99.8636507   3.9290619
   9.6650223 100.1784872   3.8957119  94.9427128  11.3446844  71.4480305
  95.3730583  10.7143593  70.8703423  94.7248554  12.0821190  70.8779764
  54.7971825  83.5892223  22.6915360  54.1602901  83.0283402  23.1342697
  54.5317749  84.4799708  22.9203510  67.9986143  34.5880270  79.0787172
  67.7773285  33.7812352  79.5438528  67.1524858  34.9838614  78.8698816
  76.7071533  76.2806129  65.4257298  77.6032495  76.5005779  65.6804085
  76.4194679  75.6481028  66.0840607  55.8358912  22.7736228   0.9152508
  56.7415862  23.0114548   1.1136913  55.6038432  22.1326296   1.5872002
  41.8131547  17.3578494  13.1731319  41.2588553  16.9996207  13.8664150
  42.4984889  16.7008774  13.0509186  98.0921173  12.7989209  52.3083830
  97.9957294  13.4078670  51.5761757  98.0407047  13.3518040  53.0880690
  43.0965427  65.9304379  25.2868176  42.5593571  66.4926659  25.8450031
  43.8939480  65.7804059  25.7946110  85.4050827  20.0548077  49.3417978
  86.2340832  19.8860037  48.8940287  84.8717308  19.2815423  49.1578722
  37.1755604  90.5081247   9.6080494  36.3669971  90.8746575   9.2501068
  37.6693539  90.2216147   8.8397312  94.5433903  34.6039510  56.7231941
  93.6286068  34.3970799  56.5318537  94.5832443  35.5599666  56.6972065
  31.4196447  52.9712963  68.4083986  31.9424394  52.6435232  67.6766348
  30.6213334  52.4435568  68.3877468  76.3624668  40.4675102  90.1195621
  77.0639467  40.8559704  90.6423092  76.7076731  40.4552507  89.2268658
 109.9267006  60.3471708  79.6219635 109.9673462  60.0483418  78.7135172
 110.7591534  60.0682259  80.0033283  94.1709423  18.0327106  77.0290232
  94.4999695  18.5699558  76.3083696  93.2709694  17.8226781  76.7796755
  24.0231327  65.5705320   3.5227680  24.6638874  65.4780160   2.8177071
  24.3764023  65.0419711   4.2383480  83.8445091  40.7919312  90.1873112
  83.4957123  40.3872967  89.3930531  83.2947159  40.4492617  90.8919716
  99.4711494  69.1575336  65.2519560  99.6745586  68.6738253  64.4514036
 100.2540016  69.6819305  65.4204035  87.7046013  44.2948914  70.9991503
  88.3917427  43.9174604  71.5483427  86.9010735  44.1764355  71.5056562
  82.4047756  26.8944693  51.6437721  81.9548702  26.4992952  52.3905373
  81.8212414  27.5969315  51.3569403  94.0910435  70.0823498  50.3333569
  93.7018967  69.7650290  49.5184278  93.9216137  71.0244274  50.3287554
  74.9478626  10.1596153  90.0674343  75.0364828   9.2656928  90.3980064
  74.8942757  10.0593007  89.1170120 111.4120960  62.6890802  86.4089680
 112.0790672  63.3663988  86.5213299 110.5841351  63.1372547  86.5817451
 111.2849617  20.8759713  78.8398790 110.9610462  21.7765927  78.8538027
 112.2376728  20.9644842  78.8126040  71.1566734  53.1205177  90.8535576
  70.8730125  52.2501564  90.5738544  70.3573561  53.6470652  90.8453751
 105.3789711  56.3415480  90.7706356 104.5767784  56.6077518  90.3213501
 105.3962135  55.3883123  90.6853390  71.3321447  33.0161285  74.6506500
  71.7748356  33.8210392  74.3816280  72.0404863  32.4326825  74.9228096
 108.2631922  61.1947619   0.3910351 108.4253121  61.8566810   1.0632038
 107.7661277  61.6561161  -0.2844715  66.6419172  31.9954443  77.4239826
  65.9382105  31.3482475  77.3774767  66.4477682  32.5042200  78.2111835
  54.8510699  38.6549275  24.7888374  54.7367339  39.5115368  25.2003956
  54.2102389  38.0926507  25.2240658  31.4640335  91.5190958  44.4171333
  30.5304817  91.7275308  44.4527340  31.7480377  91.8375467  43.5603046
  89.7357368  43.7696314  68.7213230  90.3066444  43.4608221  68.0178118
  88.8573456  43.7538910  68.3412886  65.8751349  14.0929024   9.9065399
  65.9003024  15.0353854  10.0718403  65.7332568  13.7022107  10.7687855
  32.5389007  60.8686267  37.8948021  33.0032352  61.3673853  37.2225952
  33.1667141  60.2028446  38.1755352 109.1486931  50.2658892  83.7686443
 108.6026859  50.7940102  84.3510437 109.8092270  49.8801184  84.3440723
  31.3384823  91.6438936  26.7351341  31.4768413  91.4698957  27.6661587
  31.8848900  92.4078010  26.5504456  61.3357262  95.9188007   5.8831596
  61.2758831  95.8400320   6.8352413  61.7061237  95.0839923   5.5965805
  81.7217255  75.4466200  73.9429188  80.8864117  75.8453035  73.6989117
  82.3775864  76.1045504  73.7122583  88.2601929  58.7614489  62.2845984
  88.1205082  57.9534578  61.7907572  87.5779152  59.3549490  61.9707680
  88.2115936  63.9616776  88.0778313  88.1737041  63.9152861  89.0331554
  87.3133755  63.7917805  87.7939701  67.1722750  19.9099343  10.9944534
  66.6329722  20.6883328  10.8549118  67.1021514  19.4199507  10.1751614
 100.7029819  43.1231451  66.8263626 100.9787273  43.9540672  67.2133541
 100.1206207  43.3743858  66.1094522  90.3399277  53.7546253  89.8326492
  90.6562042  54.2437220  89.0730572  89.4253540  54.0214252  89.9254417
  24.0823177  89.5477437   6.4053440  23.2976917  89.6215342   5.8620644
  24.0723137  88.6434339   6.7189598  92.0252895  28.3426332  49.5487070
  91.5332699  28.4100032  48.7304115  92.7223015  27.7148843  49.3581009
 101.3571262  10.9682524  72.8449488 101.3997746  10.3489256  72.1163559
 100.8955574  10.4934835  73.5361624  44.2731384  44.0577834   7.0591640
  44.1804031  43.3027278   6.4781952  43.6356453  44.6920495   6.7312145
  76.1900139  53.1438637  85.9920502  75.6412792  52.3623991  85.9255028
  77.0498562  52.8115177  86.2498283  99.0635872  15.6164587  90.4442120
  99.7576618  16.2639427  90.5677319  98.2542419  16.0965276  90.6194878
 103.8046169  26.7636633  66.4349079 103.1560135  26.0611105  66.3905621
 104.3236160  26.6611981  65.6371784  76.6936064  25.4896331  71.0496712
  77.2006083  26.2979579  70.9735632  76.0886574  25.5156493  70.3083229
  44.2376903  82.6141881  11.0006809  44.4316486  83.5488914  10.9303761
  44.2204193  82.4433254  11.9423580  65.6970453  68.8042068  61.1856365
  66.3514900  68.2685566  61.6339827  65.3023005  69.3313456  61.8802786
  72.8904438  60.8192968  46.3767815  73.3985615  61.6133499  46.2108707
  73.5069418  60.2256298  46.8054104  21.9821743  95.5771707  33.5822868
  21.3450149  96.2901376  33.6262703  21.9629101  95.1845478  34.4550514
  24.9502758  95.6034301  12.6127338  25.7735447  95.1879285  12.8692818
  25.2116588  96.3044380  12.0156574  11.4170125  16.1309659  70.2163267
  12.2046712  15.8067739  70.6530380  11.2510160  16.9817519  70.6223297
  13.2351021  96.7776464  24.8554516  12.4468330  97.3124336  24.7613049
  13.1456188  96.0992406  24.1861343  64.1722488  82.1179104  45.5817556
  63.3717299  82.0098019  46.0952902  64.1190720  83.0105686  45.2403355
  19.5993093  38.9585304  84.4135380  19.0367273  39.4870949  83.8475418
  20.4577020  39.3783355  84.3574238  19.8883060  79.8966597   7.9564953
  19.3034653  79.4331764   8.5559750  20.0464062  80.7401656   8.3804512
 104.4452095  49.6141386  74.6010351 104.5582485  48.6971760  74.3507719
 105.1900864  50.0646257  74.2029762 109.0951157  29.9668765  70.3986073
 109.0614414  29.3183923  69.6953535 108.2598114  29.8682618  70.8555317
  44.1288189  60.2641557  26.4179802  44.1301636  60.4739092  27.3519230
  43.7472633  61.0359685  25.9997177  93.4472370  38.6472368  88.0272388
  93.2279682  37.9509377  88.6463642  94.0223598  39.2330480  88.5194683
  99.6826744  62.4032211  47.6293755  99.4202042  61.4828396  47.6137257
 100.5497456  62.4119425  47.2239876  92.4659114   7.8734772   5.8047485
  92.2312598   8.6544984   5.3035736  92.3873477   7.1542113   5.1780796
  53.7626270 101.3657449   5.5579567  54.2508892 100.6881546   5.0902939
  53.6020759 100.9907459   6.4238834  92.9272270  45.8608818  73.6285257
  93.1570148  46.7662621  73.8375998  92.6512051  45.8892679  72.7124214
  52.0503239 104.3534969   7.1490669  52.9164413 103.9508842   7.2121716
  51.5315632 103.7277244   6.6435719  14.3494800  51.7347689  31.4480305
  13.8077454  52.4345791  31.0833073  13.9380554  51.5257449  32.2866440
 107.5345898  74.6703529  65.8413124 106.9730949  74.3982077  66.5671873
 107.6970959  73.8654661  65.3494024  40.5664971  34.6061707  80.6434345
  41.4116338  34.7114468  80.2065182  40.7151368  33.9154482  81.2892246
  91.2101555  33.9102149  69.3850756  91.3446808  34.4028544  70.1946688
  92.0581436  33.5025978  69.2090273  98.8517761  40.1648188  71.0729599
  99.1366005  39.5666480  70.3820896  97.9702187  40.4305363  70.8112955
  26.5619949  75.2698969  20.6643391  27.0213131  75.1938771  19.8279858
  26.1792187  76.1470865  20.6485081  95.6536865  23.7192488  85.1022053
  94.9264145  24.3401909  85.0606155  95.2775574  22.8897667  84.8077297
  93.2838726  74.1814947  84.7969723  93.0412102  73.4367132  85.3471088
  93.2044315  73.8535500  83.9012146  86.0244231  40.6980698   1.1533546
  86.4327960  39.8385995   1.0496521  85.0879912  40.5116933   1.2211990
  52.2678665  48.0924560   8.9611053  52.1668056  48.0209162   8.0119419
  51.5177158  47.6171713   9.3183327  89.5194054  57.4069977  89.6655846
  88.9189911  57.0604992  89.0055275  90.0310898  58.0686378  89.2001343
  52.3308419 103.3367023  88.9198589  52.6580953 103.9805537  89.5480347
  51.3833284 103.3298854  89.0555000  77.1201897  57.6446056  76.3233757
  77.0505238  57.1471310  77.1381760  77.7406406  57.1466970  75.7910585
  86.2737656  21.3685799  86.4231110  86.7540264  21.9307828  85.8152390
  86.1464787  21.9110489  87.2014141  79.2876768  42.4092245  77.7054167
  79.6720695  42.0383263  78.4997129  78.3737278  42.5750971  77.9365349
 108.2204343  75.6352733  23.7735653 108.2507277  74.9992679  23.0588532
 108.0805445  76.4768528  23.3395004 109.3484211  37.9555416  78.9303875
 109.5362091  37.9806209  77.9921246 109.2062378  38.8710976  79.1707468
  82.3972225  14.0865242  78.3344364  82.5860310  13.7760091  79.2199659
  83.1494331  14.6329558  78.1067705  20.1069501  77.6133585  63.4205341
  19.6346238  77.0229101  62.8335810  19.6034673  77.5953245  64.2344236
   9.8491529  14.2195857  80.0560284  10.3254655  13.9210272  80.8307648
   9.2669538  14.9056840  80.3824425  53.8709120   3.5998528  36.5428543
  54.3526415   4.0484707  35.8479404  53.1497054   3.1623929  36.0903931
  90.6363964  92.2517014  54.8695755  91.4202309  91.7031670  54.9003553
  89.9537086  91.7168427  55.2746630 106.9634867 100.9618925   9.1490078
 106.6142989 100.0793480   9.0248489 107.6532651 100.8565687   9.8042488
  63.4835863  73.6984110  91.1160278  63.4900951  73.3479595  90.2253151
  63.6060810  74.6410418  91.0034275 102.6908302  14.4713271  79.9766397
 102.6331711  14.2978704  79.0370560 102.1718597  13.7759757  80.3808594
  33.0301098 103.8006090   6.4855671  32.0753960 103.8492702   6.4367771
  33.2866768 104.5940994   6.9554424 109.2285633  27.5241137  47.8875256
 110.0036716  27.8695536  47.4446917 108.9080334  26.8344808  47.3062372
 100.6122589  67.4884510  59.8869324 100.2025890  66.7221498  59.4854546
 100.9659386  67.1645451  60.7153177  19.1855004  57.2629738  51.8011999
  19.7805360  57.5817108  52.4798536  19.7327569  57.1861267  51.0196447
  94.3046622  29.3629353  16.3927746  95.2336650  29.5716279  16.2946320
  94.1608290  29.3496602  17.3390102  98.9326286  26.4737940  80.1901913
  99.0233612  26.6686487  79.2574310  98.3173656  25.7412672  80.2231026
 108.2624531  20.9645772  53.8179684 108.9686584  20.6049895  53.2811213
 107.9046631  21.6814256  53.2941914  44.5318751  10.2136653   2.5953770
  44.8040061  11.1249535   2.4870491  44.2461161   9.9436753   1.7226315
  13.6966470  76.8078089  79.6735716  13.7861303  77.7334929  79.9001551
  14.5325711  76.5787649  79.2673683  95.5642605  28.2022190  60.9668493
  95.7056618  29.1320992  60.7891941  94.8215675  27.9627013  60.4125309
  74.4140720  18.0385149  71.0176277  73.8962603  17.2873616  71.3072300
  73.7692690  18.7291598  70.8644295  36.5725807  78.3309864  19.4540310
  36.7782501  78.9785360  20.1282787  35.8722118  78.7338184  18.9407635
  83.8158989  31.2039328  70.3940010  83.8928604  31.0932755  69.4463396
  83.8659954  32.1501684  70.5294991 107.6925087  47.2692537  84.7728825
 108.1411362  47.5369167  83.9708138 106.9370079  46.7665386  84.4683743
  70.0135760  48.8474457   3.9496613  70.3195529  49.6261876   3.4847260
  69.0808253  48.7950699   3.7411881  80.2351856  30.6728506  44.1222763
  80.9628201  30.6244397  43.5022497  79.4775724  30.3610134  43.6272812
  36.4083533   6.4692872  18.3740044  36.2649159   7.4155705  18.3594894
  37.0230918   6.3092129  17.6579666 111.5163422  27.5037932  82.3827648
 111.6944885  27.3402977  83.3089161 110.6072903  27.8029132  82.3628902
   8.3407834  67.7446842  74.1704130   7.8198960  67.0288754  74.5344543
   7.7004388  68.4249735  73.9620638  88.7459469  67.7850914  69.0995836
  88.3921242  67.5343609  68.2462549  89.4892311  68.3519173  68.8935041
   7.6741607   0.0185816  22.9124355   7.7909286  -0.1484067  23.8476944
   8.5564430   0.2025502  22.5899982  67.5638346  14.5960944  19.6917629
  67.1993880  15.4715579  19.8220539  68.2332282  14.7132056  19.0176582
  86.6607952  76.9252157  64.4142437  86.4445305  76.3456106  65.1446629
  86.0872746  77.6825476  64.5315218 105.7070541  68.9917517  70.1372337
 106.2500000  69.5614815  69.5923948 106.0500145  68.1120586  69.9799013
  82.3362498   8.1610625  17.8888798  81.5515666   8.2790225  17.3535347
  82.0417075   7.6362221  18.6332035  15.3510526  94.1538048  89.7628307
  15.6302884  94.4464874  88.8953114  14.6211961  93.5586929  89.5913982
  29.6893075  51.4921951  84.7604465  29.6788266  50.7143974  85.3182602
  28.7811616  51.5952158  84.4760227  38.3556465 101.1532472  14.9913788
  37.9015068 101.0249256  14.1585922  38.7559036 100.3042816  15.1792145
   3.9112619  22.8852987  66.1007118   4.5897344  22.7036142  65.4503965
   4.0732053  22.2513080  66.7993259  85.7989693  79.2272711  40.6128931
  86.4394188  79.9034023  40.8340549  85.4899025  78.9041138  41.4592266
  92.0870399  25.9114122  89.2962265  91.7508411  26.4664769  89.9998569
  91.3113594  25.4747629  88.9442348  30.5466179  93.4770273  47.6916122
  30.4991344  93.8601230  46.8157101  30.0209049  92.6792716  47.6329422
  90.6451225  44.4331598  59.0705776  89.8842621  43.9119053  59.3267441
  90.5778122  44.5032549  58.1183243  66.5608649  17.9947417   3.4526825
  67.1587042  17.2586196   3.5828590  65.8880381  17.6553671   2.8624630
  69.2073493  18.3211129   8.4653854  69.6640067  17.5290864   8.7489033
  69.9074320  18.9299147   8.2298660 106.0615921  63.7092638  86.5517902
 105.7255268  64.4874859  86.1071968 106.0570908  63.0283833  85.8790207
 109.7969627  41.1492491  58.5773373 110.0879002  40.6586885  57.8086090
 109.9753475  42.0640564  58.3593035  54.0025382  21.5172141  28.2090282
  53.5450320  21.4013999  29.0417957  53.4045081  22.0435135  27.6783752
  12.5880960  40.7432938  89.4379520  11.9893602  41.1581326  90.0589657
  12.0696977  40.6363487  88.6404133  23.0169205  91.9432973  31.7950439
  22.3659233  92.5406741  31.4268398  22.6611236  91.6982769  32.6492214
   7.4554780  62.1335936  47.6178980   7.0007280  62.0694733  48.4577370
   8.1106332  61.4363289  47.6464319   6.7119363  61.4416981  91.4103699
   6.7802194  62.1723652  90.7958031   7.5150922  60.9388971  91.2748623
  66.4336543  10.7105630   0.3936100  67.0019679  10.5876057  -0.3667450
  67.0194869  11.0251420   1.0821342  66.7304377  16.9665282  20.6204224
  67.3033671  17.6927369  20.8665943  66.2664084  17.2800534  19.8441410
   6.9105580  65.3030920  66.2015629   7.7173761  65.6554985  66.5771818
   6.7407182  64.5061111  66.7037582  12.0446781  95.2407621   8.5098457
  12.5131992  95.9596466   8.0856705  12.7355389  94.6647190   8.8371468
 101.0830688  65.9313774  72.9670811 101.3584518  66.8476248  72.9968977
 100.1870632  65.9613752  72.6316595  19.2433552  97.0329069   4.8733234
  18.3282284  97.2993110   4.9616241  19.6477608  97.2864793   5.7030106
  14.0230087  99.4630407   1.9958305  13.7979130  98.7839912   1.3598633
  13.8150314  99.0740083   2.8453255 106.8665886  24.2532778  72.4841690
 106.6715813  23.7265038  71.7091131 106.8538189  25.1569986  72.1689558
  96.2390518  67.8463268  36.9190574  95.4460526  67.9996777  37.4327397
  96.6433620  68.7102461  36.8390059  25.4702428  54.8405981  79.0514612
  24.7372964  55.1571321  78.5234213  25.1772931  53.9920044  79.3835735
   3.1591943  37.0798254  84.6270180   3.2518533  37.7646828  85.2892971
   4.0058854  36.6333508  84.6240902 100.3403854  65.8782005  44.3229532
  99.8646450  65.5140305  43.5764360 101.0420418  66.3971424  43.9297533
  93.1366062  62.8639793  75.4336166  94.0936375  62.8555679  75.4498339
  92.8963089  62.0242596  75.0420046 104.8293877 101.5485764  84.9959183
 104.8770523 100.7298088  85.4894638 104.3543625 101.3194370  84.1971302
 110.2181721  27.3342609  41.9380760 110.0669003  28.2249379  41.6217756
 110.9885120  27.0359707  41.4545107  85.0274467   8.6880040  80.6970406
  84.8306847   9.5623177  80.3607464  84.1740799   8.3249021  80.9340286
  43.4812454 104.5109104  15.7685280  42.6028637 104.8112224  15.5350971
  43.3762077 104.1114687  16.6320419   9.7950891  29.5276761  79.9917889
   9.8881200  28.6127925  79.7261429   9.9509767  30.0268960  79.1900969
  12.6345590  19.5757532  85.3799343  13.4674600  19.1179204  85.2663612
  12.0699075  19.2194211  84.6940613  96.6266918  80.4564667  68.1897211
  96.6299915  79.6818876  67.6273584  96.3576126  81.1707020  67.6120567
  95.1054668  88.3899689  84.6544743  96.0222340  88.1364059  84.5473194
  94.6095848  87.6409054  84.3239594  94.0237999  47.9993343  38.3325863
  93.9105511  48.9488173  38.3760452  94.5871544  47.7909517  39.0778661
  93.3798695  80.0364971  89.5505047  94.2462635  79.8228550  89.2041588
  92.8560734  79.2524481  89.3858051  25.3144315  51.9629383  85.7112122
  26.0449079  51.8583155  85.1015377  25.4101613  52.8533697  86.0491467
  72.9086928  33.5443204   9.3639088  72.5135951  32.6729481   9.3929005
  73.8376383  33.3919995   9.5373821  96.2615585  51.9255257  75.5465984
  95.8994579  51.0912418  75.8450603  97.1792126  51.8989897  75.8176088
   5.4587224  67.8626013  71.0730410   4.8438695  67.7556801  70.3472614
   6.1167195  68.4736156  70.7414770  89.2331505  44.7549915  55.7619095
  88.4801006  44.2008018  55.9669113  89.0209103  45.6020737  56.1538839
   4.5548300  77.1362017  30.8769703   5.4150728  76.8197487  30.6011677
   4.5564464  78.0653952  30.6471252  75.5797529  50.3009510  89.7111511
  75.8816624  49.3930721  89.6822357  74.6262789  50.2347374  89.7634411
  20.7244733  53.4483957  70.9993649  20.8775571  54.3924856  71.0380316
  20.3926805  53.2955933  70.1146078  40.5893139  94.9677776   2.2428799
  40.3361229  95.6369279   1.6069794  39.8638824  94.9436782   2.8668976
  36.3925222  38.9043498  69.5989037  36.4557508  37.9708385  69.3969440
  36.8834165  39.0067983  70.4142284  76.6821098  71.9796038  47.3482752
  77.1831465  72.0725822  46.5379953  76.9615412  72.7185154  47.8887892
 109.7074604  26.2681413  58.6676645 110.4407692  25.8918810  59.1544199
 109.1968918  25.5110669  58.3806276   6.8988946  78.7248611  68.7673426
   6.3353017  79.4951439  68.8398552   7.1885923  78.5548210  69.6636629
  91.6572475  44.8096848  32.7483153  91.6533852  45.1724958  33.6340833
  92.5421143  44.9779892  32.4244118   1.6504338  56.6931581  79.9857616
   2.5522473  56.9866133  80.1155853   1.6909459  55.7422781  80.0878143
  11.2930444  40.8477783  60.2603531  10.4884389  40.3679132  60.4567575
  11.1620286  41.1820507  59.3730402  19.2773537  26.0646861   1.1358547
  19.4124655  26.5816348   1.9300461  20.1426892  26.0198491   0.7291508
  73.2091427  20.8364725  88.0491734  73.6331511  19.9846256  87.9452324
  73.5746050  21.1884832  88.8608074  80.1247692  55.0395060  49.1589499
  79.9013662  54.1105938  49.1002131  79.7526073  55.3230143  49.9940205
 109.3746090  86.0491276  66.0773754 108.9363861  86.7424297  65.5838966
 110.2447605  85.9879398  65.6832743  59.2438368   5.7175582   2.5378513
  59.3828826   6.5053980   3.0633926  58.9664511   6.0460084   1.6826248
  53.3993057  99.4317506  10.9076881  52.9495815 100.0684045  10.3521252
  54.1213135  99.9233221  11.2992096 111.4434338  36.5896606  52.5274515
 111.6536903  35.9295416  51.8669462 110.7804012  36.1741352  53.0787754
  97.4583817  54.6467113  76.2658119  97.3045158  54.6889448  77.2096205
  96.8229294  54.0052748  75.9480143  14.0376809  50.7903337  90.4327202
  14.8428491  50.6391048  89.9376678  13.6031106  51.5068483  89.9701405
  96.0455132  22.5313616  38.7725139  95.8575439  23.1270266  38.0471969
  95.9982014  21.6580057  38.3836150  15.2017739  72.6917124  60.3848124
  16.0135034  72.3515797  60.0084543  14.5149091  72.3766232  59.7973013
  95.5490208  67.7333069  82.9311085  96.2914371  67.4498272  83.4646702
  94.9510860  66.9858551  82.9362869 100.2383518  48.5627365  81.8298340
 100.1176834  49.4440985  81.4764595 101.1367130  48.3311272  81.5942001
  18.7188867  49.1282368  33.3793616  17.9756978  49.7034788  33.1977201
  19.3591836  49.3426943  32.7009344  93.0013084  61.0055161  54.4027472
  93.6624718  60.6420135  54.9917841  92.2517776  60.4168320  54.4915581
  16.6616681  78.3016968  74.0154886  16.5723470  77.4711657  73.5480833
  17.2203782  78.0958605  74.7649622   6.2222913  37.7684355  72.4995470
   6.4901212  37.6324534  73.4083939   6.1817124  36.8874598  72.1274328
  32.3613885  50.1358557  87.8470135  31.4200929  50.0131559  87.7239704
  32.4582818  51.0686016  88.0389309  35.9114316  99.0942192  61.9761515
  35.1708081  98.7656975  61.4664507  35.9944490  98.4770584  62.7030993
  96.3637829 100.8250904  50.4102182  96.0747147 100.1623058  51.0374260
  97.2702503 101.0089207  50.6567144  38.1869224 101.0023903  11.9555187
  38.4192184 101.9197343  11.8114662  37.5620369 100.8013128  11.2588787
 101.8787670  40.7278872  75.8406305 102.5269318  40.5422401  75.1611805
 101.0398865  40.4994631  75.4402065 103.5296154  76.9224548  87.5767899
 103.8407230  76.0284758  87.7191162 103.0147171  77.1241093  88.3580971
  35.1619820  87.0417927  -0.1511669  35.7870964  86.3196539  -0.2142811
  34.7675995  86.9421481   0.7152939   7.5695279  27.5786114  69.3774176
   8.1592038  28.2670093  69.0698051   7.8546098  27.4020004  70.2739525
  79.9549918   1.4369433   5.9636116  80.8127455   1.3969653   5.5406666
  79.9312739   0.6659834   6.5304470  10.2079156  41.6410398  42.5000858
  10.0545171  42.5242519  42.1644592  11.0571530  41.3907051  42.1362638
 104.8767853  62.4136305  67.5638771 104.4109440  62.0232153  68.3033371
 104.4898224  63.2840347  67.4696064  77.3409800  25.9911769  13.9759922
  77.0938162  26.8112652  13.5486698  76.6634230  25.3692286  13.7107849
   6.9817117  57.6104784  78.3382893   7.5844243  57.4629831  79.0671301
   6.8799070  58.5614920  78.3003807   5.4307511  53.2031822  86.2186050
   5.1238778  53.1746054  87.1248245   4.8197225  52.6421261  85.7410145
 104.8688698  77.1958399  77.4288797 104.3796825  77.9997921  77.2539568
 105.1568317  77.2835875  78.3375072  48.0203155  91.8666075   4.9306393
  48.8211922  92.0525168   4.4404602  47.5181583  91.2868236   4.3579960
 106.3817458  17.6294415  14.6793842 107.2212939  17.3637908  14.3041420
 105.7378916  17.0684378  14.2469883  87.8814983  67.4727488  85.0349331
  86.9941616  67.1182632  84.9783516  88.3974838  66.7659807  85.4228401
  80.4950333  90.8055782  63.0450344  81.0535526  90.7495975  62.2696924
  80.8378410  90.1352119  63.6360693 105.6058884  58.9403200  83.8816547
 106.3120556  58.2962656  83.9340878 105.5249977  59.1315222  82.9472351
  27.2202114  99.0532039  37.6573753  27.2111038  98.2421278  37.1491337
  27.7885441  99.6412109  37.1599007  83.7591171  86.5307522  73.8681507
  83.1298065  86.5450478  74.5892525  83.3411694  85.9922791  73.1961441
  97.5630188  56.9429874  88.1276131  97.8733158  56.2316370  87.5673199
  98.2451248  57.0393372  88.7922096  86.1917834  13.2263939  21.0616589
  86.5309767  13.8162844  20.3884506  86.9664435  12.9529708  21.5529442
  91.8769221  23.5574572   4.9449444  92.2230677  24.4377415   4.7982597
  91.6997389  23.5233348   5.8849907  81.3527059 102.0816105  85.1556206
  81.4749097 102.4405282  84.2767143  80.6417131 101.4480710  85.0588894
  21.7464879  67.3800707  77.3389530  21.6508439  66.6178226  76.7679358
  21.6016534  67.0381165  78.2211781  13.9685014  42.5850296  78.3383036
  14.3938974  42.0164299  78.9801502  13.6021283  41.9829750  77.6905870
  91.5648556  49.1557121  59.9559164  92.2327328  48.5043144  59.7417545
  91.1965656  49.4083977  59.1093111  33.6917499  78.4336852  21.2430000
  33.1922249  77.6500867  21.4725208  33.1480030  78.8834451  20.5962467
  84.1897774  52.3604679  78.0876398  83.6185646  51.6928911  78.4674883
  84.7029972  51.8907070  77.4302483  77.2873740  48.0993455  25.4416180
  76.9580798  47.8689950  24.5728588  77.5417475  47.2627156  25.8309269
 106.9912148  40.4365826  89.9813938 107.3390675  40.7434273  89.1440868
 106.1009884  40.7868481  90.0137234  77.9383135  83.1311321  78.6694193
  78.6211824  83.4748745  79.2454147  77.9841089  83.6823082  77.8881788
  93.6810207  56.3778639  79.8627281  93.5653114  56.0097122  78.9867687
  92.8238392  56.7413092  80.0849342  10.3751042  47.6367950  46.9800091
   9.9949697  48.5140800  46.9341612  10.1867250  47.3403788  47.8704500
  48.9293102  72.5546621  24.8002911  48.6223034  72.8329133  25.6631660
  48.2557110  71.9494532  24.4900990 110.6786442  63.9112520  76.0369253
 111.1928177  63.1354380  75.8133793 111.2572861  64.6474552  75.8384132
  95.5327892  54.7577715  85.3729248  95.9675407  54.3822336  84.6072960
  95.5130196  54.0445232  86.0109806  95.9954262 103.1564999  78.1701803
  95.7188034 103.7656879  77.4856377  96.2996960 103.7188053  78.8825464
  78.1404400  63.1818914  47.4663115  78.6410332  63.0374432  46.6633368
  77.7123213  64.0275431  47.3328066  93.6102867  49.2084503  71.5533829
  93.7358475  48.9577103  72.4685860  94.4799137  49.4772482  71.2572098
  72.6040511   4.1659157   9.8595810  72.4880747   3.8614123  10.7596111
  73.4617381   4.5908969   9.8591518 105.5516148  41.8632078  62.3728657
 104.6135616  41.9301987  62.5511646 105.9539223  41.7746449  63.2368898
  98.2713032  98.8823032  62.1602011  97.9841518  97.9751682  62.2644997
  98.3683491  98.9955997  61.2146950   9.1539815  76.0761642  73.8193703
   9.2304376  75.1285458  73.9307451   9.9692205  76.4261150  74.1787624
 101.5882683  30.1204014  81.6111374 101.4795876  30.3511572  80.6885529
 100.7339954  30.2980661  82.0047092  15.4825500 103.5866331  19.8340034
  16.3839153 103.5685896  20.1556301  15.5555443 103.9057325  18.9345169
 101.2768841  38.0922556  55.5218887 100.6022453  37.4136949  55.5476046
 100.7895756  38.9111900  55.4318333  64.5280604   3.3362620  -0.1530933
  64.8336463   2.5585406   0.3138161  64.9101977   4.0701382   0.3281879
  45.2583554  32.8718400  81.3334751  46.0605767  32.5813961  80.8995247
  45.5351689  33.0997849  82.2209644  65.1800685  19.5333235  46.6443443
  65.4770617  19.1563170  45.8161545  64.2930178  19.1921847  46.7583561
  78.0647139   1.6600077   3.8953781  78.4452204   1.6176884   4.7726727
  77.2040324   2.0578044   4.0265369  40.1392512  55.6290906   2.2795486
  40.2299885  56.3523572   1.6591549  40.8548598  55.7565491   2.9023647
 103.0271722  60.2364759  23.1321621 102.7903462  59.8871879  22.2730064
 103.0196000  61.1864351  23.0148888  85.0461197  11.6278219  86.2985992
  85.3715134  12.2989178  85.6986141  85.3228283  11.9265246  87.1648788
  96.2404823  48.3584833  83.5075855  96.4089489  48.8389540  84.3181419
  96.4545918  47.4497795  83.7188816  75.4994063  26.2806409  30.4626846
  74.6209864  25.9144633  30.3600693  75.6128745  26.8481963  29.7002983
  17.6246694  33.5102820  42.5216007  17.0279172  32.9824424  41.9910288
  17.1822694  33.5958862  43.3661079  12.8552392  17.0588374  56.3570786
  12.4479821  17.2568560  57.2003841  13.5654500  17.6957691  56.2786341
  10.5959180  57.1299648  86.7592716  11.1224607  57.3415661  87.5301170
  11.2329629  56.8401861  86.1062527  85.7123852  75.7922982  15.7875252
  85.1680518  76.1829351  15.1039124  85.1679183  75.0988005  16.1601448
 100.6397438  38.7066865  87.9298878  99.9802017  39.0612912  87.3336601
 100.9464264  39.4654059  88.4264088  46.7303327  43.0969000  81.9236565
  46.8714669  43.7927961  82.5655651  47.5813058  42.6653385  81.8472576
 102.7470779  21.5570521  71.2054634 102.7923775  21.4756298  72.1581173
 103.6611938  21.5591764  70.9215212  96.2336402   1.5315573  11.3865566
  96.9536833   1.9788306  10.9419155  96.3178877   0.6166022  11.1182404
  86.3014369  20.1537888  21.7688465  86.5032153  19.2768328  21.4425564
  85.3470759  20.1687949  21.8409538  88.0355601   3.5452502  35.3008175
  88.5888915   3.5531371  36.0818386  87.8266959   4.4664567  35.1459503
  57.8958797  60.7675505  77.3727131  57.1798897  60.1599407  77.1872473
  57.9650593  61.3043308  76.5832090 105.5371857  67.2569227  84.2461014
 105.2545357  67.3811245  85.1521492 104.7813797  66.8618679  83.8114452
   0.4336599  52.1165848  68.1685495   1.0470346  52.7696609  68.5054493
  -0.0249717  51.7957211  68.9450407 103.7425804  65.8215380  89.8592281
 103.7442493  64.9464273  90.2470589 104.5900917  66.1933947  90.1035213
  17.1606210  60.3305578  54.9836874  17.5549749  60.0489712  54.1582012
  17.1426156  61.2859058  54.9269342  48.3952431 100.7313083  26.2502956
  48.6184601 101.6223835  26.5193462  47.8626636 100.3904508  26.9689083
  19.6533874 101.7969011  20.9377670  18.9577488 102.4536966  20.9683800
  19.2506603 101.0047172  21.2934208  26.6013578  70.2973175  71.3699198
  27.2422269  69.6356010  71.6300201  25.9188417  69.8039436  70.9149647
  44.9062972  34.2966263   7.8851032  44.4787364  34.8368733   7.2206020
  45.8132510  34.2242711   7.5877285  32.6106457  95.0687431   2.7109432
  32.6493553  94.1123890   2.7220440  32.2626404  95.2843355   1.8457031
 110.8322334  44.3742657  80.4507446 111.2598801  45.1330853  80.8476543
 111.4753056  44.0355158  79.8278952  33.8622669  79.8024129   4.5891380
  34.3783001  79.3221925   5.2366924  34.3307499  79.6715759   3.7647438
  91.5231852   4.0692561  18.1435490  91.5372710   3.4488671  18.8723564
  91.3306002   4.9135344  18.5513973  77.7886200  61.6159391  76.2324476
  77.0126534  62.0699167  75.9037971  78.3720350  61.5602636  75.4756403
   2.0739034  96.3648605  55.7504988   1.2891629  96.8690109  55.5354261
   1.9466546  96.1007786  56.6617060  11.2260678  67.2739506  69.1171074
  11.7300084  68.0871916  69.0867662  10.5459455  67.4378681  69.7703934
 108.2266235  71.1075306  47.5279188 108.2342625  71.6434002  46.7348099
 107.3659420  71.2659121  47.9157019  26.9199041  65.7260036  41.7060709
  26.4858773  65.1661730  41.0623074  27.2506383  65.1183796  42.3676157
 109.8327732  88.6444759  74.9174261 110.4471397  89.1192150  74.3576002
 109.8811054  87.7386570  74.6118355  81.6585732  41.5766716  48.9351702
  81.2105083  42.4012518  49.1237068  80.9517670  40.9456921  48.7990713
  27.0417885  87.3648833  14.1685390  26.5809540  87.2273944  13.3409119
  27.3098663  88.2834433  14.1436863  53.6340384   8.5542815  12.0684242
  53.2093386   7.8945963  12.6167679  53.3194022   8.3689063  11.1836243
  56.3159470  95.5712103  15.6487179  56.0923962  95.7527851  14.7358704
  55.4708103  95.4930853  16.0912991 109.6164417  44.6510220  48.7439013
 109.0799236  44.3465948  49.4758177 110.4789066  44.8081255  49.1282177
   1.1250070  90.6002568   6.2379169   0.3855852  90.1116966   6.5995789
   1.2735514  90.2078246   5.3775883  74.6047263   0.9452765   2.4413013
  73.8092093   1.1131232   1.9361210  75.3191523   1.1559432   1.8400955
   4.3404534  44.0508366  41.2665701   5.2310422  43.7060070  41.2018585
   3.9930871  43.9854765  40.3770208  94.8418427  74.7248220  88.7081432
  95.2173901  75.4856920  88.2651138  94.0412331  74.5340872  88.2193947
  51.7575458  87.4965404  24.2014122  51.8354706  88.0308412  24.9917889
  51.8280319  88.1228541  23.4810066   2.0671704  83.8073730  84.1945553
   1.2495378  84.0876007  83.7832260   1.8836072  82.9243755  84.5152378
   8.3342603  44.9427986  71.3910627   7.9149297  45.6335545  70.8779860
   8.6016610  44.2915297  70.7425404  48.8663821  33.3724206   9.2173195
  48.5823874  32.4794762   9.0217876  49.4840102  33.2740586   9.9419498
  26.1098626  66.9486809  77.4604893  26.5575650  67.4992371  76.8180847
  26.1005071  67.4736977  78.2608032  97.2642517  62.4227858  81.8846893
  97.6494884  61.8512201  81.2205124  97.5109482  62.0217514  82.7180862
  32.7012352  89.4889091  23.7502861  33.5742763  89.1012024  23.6893082
  32.2759060  89.2520903  22.9261303  65.5822425  13.6023991   1.8295002
  65.6299548  14.2243807   2.5555134  66.4648871  13.2370656   1.7686939
  15.4880670  72.3213768  69.8753786  14.5844129  72.3554468  70.1891708
  15.5316213  72.9952860  69.1970158  36.4032415  29.7552609  87.3247051
  37.1989110  30.2862358  87.2900105  36.0539392  29.9043345  88.2033348
  70.8662371   6.8678038  18.4526825  71.6549353   6.7957776  17.9150867
  70.5713420   7.7695458  18.3256722   6.3296464  71.6828632  86.6678905
   6.9194272  72.3850155  86.9424438   6.8008664  71.2353420  85.9651089
  61.6796020  12.4221820  67.4445057  60.7529453  12.5454730  67.6502657
  61.7307190  11.5332717  67.0931292  14.5290807  50.0862551  82.4377441
  14.4400743  49.1370773  82.5235844  15.4119638  50.2135992  82.0905685
  60.6767134   0.1753562  11.1422539  60.2500395  -0.6717641  11.0135365
  60.3118567   0.7340472  10.4559803  91.1424732  70.9906673  48.7238789
  91.5061474  71.5278530  49.4277334  90.2872276  70.7129669  49.0519905
  90.7941723  56.8168163  79.9254131  89.8997688  56.4886951  79.8325729
  90.8909321  57.4524069  79.2162609   0.0214055  58.2668829  55.4848671
   0.0495484  59.2236376  55.4927254   0.8872655  57.9992676  55.7929230
  15.2346519  15.5304355  85.4544163  16.1374000  15.3354949  85.2028561
  15.2722935  16.4167136  85.8140278   5.5406812  69.2240286  87.7944946
   5.9148648  68.4613037  87.3535156   6.0779908  69.9590349  87.4990368
   4.2510656  15.0869429  58.8897514   5.1533273  15.3693974  59.0393639
   4.3346170  14.2309630  58.4695721   4.5748189  17.4721515  78.5546684
   4.9505380  16.7210817  79.0139771   3.9573625  17.8510952  79.1802740
  19.0124039 102.2586082  11.7324543  19.6847061 101.9776653  12.3532009
  18.2269100 102.3756193  12.2668171  24.4046787   5.6200141  52.0362377
  24.5511345   6.5620917  51.9509602  23.7565998   5.4163665  51.3618803
  84.4236903  20.5677693   4.1921806  83.6566500  20.6162493   4.7627354
  84.0697341  20.6548731   3.3071041  52.9255061   4.2846911  19.6084785
  53.8420252   4.3217795  19.8820591  52.5884013   5.1638787  19.7805882
  96.8480587  34.8286223  67.4664021  97.0872879  34.2468905  68.1879234
  97.1513844  35.6927538  67.7447987  97.6233673  69.2153883  85.7784653
  97.3680878  68.3281326  86.0311222  98.2600117  69.0902090  85.0747299
  93.9258003  47.5329733  31.5691090  93.3314514  48.0647326  31.0397673
  93.8863659  47.9257822  32.4411058 104.6188259  84.3834591  88.7374973
 105.1368618  83.6476898  88.4111404 105.2473354  85.1005745  88.8209057
  96.3110733  73.0898094  67.2420120  96.4459610  72.1439171  67.1843672
  97.0937347  73.4167576  67.6856184 102.3605728  95.3328133  81.8042374
 102.8785038  96.1204433  81.9703865 102.7374363  94.9622631  81.0061741
 100.6098080  51.7732334  82.3316193 101.1876106  52.4952364  82.5787735
  99.7571945  52.1855545  82.1927929  72.1950488  28.0293553   1.3976860
  72.6312403  27.1908419   1.2464523  71.2787680  27.7985470   1.5505791
  18.2051709  57.1102858  72.1261692  17.6650384  57.8923750  72.0129299
  18.4683087  57.1320915  73.0462313  71.2433720  70.3330183  69.6472359
  71.1115360  69.7202635  68.9237833  72.0392132  70.8110905  69.4141817
   7.9017594  31.5045953  59.6328831   6.9507077  31.3964033  59.6390820
   8.1431344  31.4488626  58.7082958 104.0123653  80.0632954  88.4242153
 103.4039974  80.2058601  87.6990986 103.8671875  79.1533327  88.6832905
  81.6059208  96.9145012  55.3208208  80.9621048  97.3995972  54.8046637
  82.4494362  97.1509171  54.9350452  23.9527611  39.4465344   6.2703800
  23.8507657  40.3960030   6.2045670  24.7891287  39.3260853   6.7200661
  89.3603377  19.7480815  27.0080090  89.1124587  20.3986352  27.6649475
  90.0336985  19.2196219  27.4364185  19.5231251  13.0347556  85.1930904
  19.7323135  12.1257514  84.9781895  20.2880100  13.3490199  85.6751919
   5.9480050  73.3640528  80.8164597   6.8039182  73.0939627  80.4837418
   5.9692720  74.3204594  80.7838249 106.6355705  69.6553659  64.9548483
 106.6808128  68.8055515  64.5166779 105.7458973  69.9651814  64.7853518
  96.1055946  84.2771149  84.2346573  95.4213619  84.8717403  83.9272785
  96.6589165  84.1315842  83.4672642  79.6287589  12.2274344   1.1061478
  79.4872908  13.1380885   0.8474350  78.9193015  11.7449086   0.6818008
  88.3541679  63.9972210  79.0739107  88.8206673  64.7707272  78.7572098
  89.0249062  63.4778547  79.5173120  57.3839240  13.8911240  21.5641594
  57.6567607  14.1418402  22.4467278  56.9116931  14.6551793  21.2333298
  90.6177139  31.2611508  86.5607738  91.3659477  31.7508745  86.2194061
  90.7637787  30.3629327  86.2639618  23.3768181  95.9503482   3.6940670
  22.5010494  95.5683826   3.6360168  23.4309200  96.2907861   4.5870495
 100.3070354  32.8854322  79.4037294 100.8290863  33.5573792  79.8421144
 100.3385544  33.1241632  78.4773111 105.8648300  78.2092285  74.5463276
 105.2126026  78.2600689  75.2450657 105.8962250  79.0942907  74.1831303
  48.3762602  22.7005952  21.0298252  48.5078005  21.7881148  20.7723141
  47.4799113  22.8990834  20.7589149  99.0210247  98.7771320  59.0722752
  98.6662579  99.6598530  59.1779566  99.6208096  98.8473797  58.3296061
 107.8629875  63.2912302  53.4999323 108.3641148  62.5654078  53.1280565
 107.7949142  63.9256573  52.7864218  88.8332939  60.6353331  70.2541447
  89.6313000  60.5014992  69.7427559  88.8093662  59.8939562  70.8591366
   3.0794480  39.0198398  86.4381313   3.9270452  39.4639897  86.4148426
   2.4502614  39.6904540  86.1723709  68.8472179   1.2711448  85.8970356
  69.4805149   1.9001121  85.5512428  68.4162430   0.9137362  85.1206684
  98.7468433  97.0935822  77.6567316  98.3629227  96.3409615  78.1066179
  99.6634293  96.8515396  77.5243902 105.3477478  28.6091447  38.8669300
 105.9625816  29.2221236  38.4638524 105.1067352  28.0114770  38.1591630
   7.8163007  66.2761164  82.7628708   7.7529958  66.5235472  81.8403816
   8.1544259  67.0587254  83.1981087  12.7827409  14.1158402  56.8767500
  12.0486882  13.5768366  56.5820026  12.5450376  15.0062799  56.6182041
   3.0620721  73.0703926  69.3905497   3.7136987  72.4903727  68.9966059
   2.4834016  73.3076954  68.6659431  83.3650494  56.6278696  52.6417017
  83.5922432  55.8556700  52.1236992  84.1837597  56.8786287  53.0695581
  66.3220362  35.4167454   0.8094597  66.0048346  36.2336915   1.1944580
  66.3672595  35.5962460  -0.1296711 100.4249911  21.8947260   5.6975937
 100.7362513  21.6442292   4.8277664 100.1520495  22.8070586   5.6007576
  46.3241343  25.6529896  16.0849381  46.3704161  24.7456877  15.7834530
  45.4172187  25.7646887  16.3699913  20.7854703  99.4891453  35.7643199
  20.6525567  99.6762085  34.8350334  20.0357965  99.8947239  36.1998916
  13.6665204  30.7834673  64.0711927  13.0527547  30.0950313  64.3272781
  13.4482530  30.9715247  63.1583786  82.2759056  76.9332647  46.2421513
  82.0426273  76.1506081  46.7414045  82.3225117  77.6299572  46.8968916
  71.1683993  34.6338742   2.1459484  71.0422473  34.3248456   3.0430603
  70.5008464  35.3099053   2.0293999   1.4616445  32.7425933  85.1881886
   1.4037088  31.8119264  85.4043674   0.5911401  33.0887723  85.3846931
  88.4179878 101.0032749  28.6871481  87.5025177 100.7332993  28.6146927
  88.4039593 101.9453526  28.5182762  64.7056060  42.2704022  14.3416595
  64.2377810  43.0488198  14.6440411  65.1009040  42.5359910  13.5113430
  18.9060501   4.9642962  70.0245094  19.3843464   4.1441936  69.9024487
  17.9947380   4.6951789  70.1399183  87.6722240  29.5374036  73.2888651
  87.8507900  28.6684227  73.6483335  88.2320404  30.1258135  73.7954283
  16.7989114  68.8972855  61.5996885  17.6788762  69.1997242  61.3751507
  16.3836816  68.7206459  60.7555199  49.6080546  40.1772111  23.8666248
  49.6495394  39.4112961  24.4392395  48.6769156  40.3951161  23.8251686
  82.1152020  74.7445202  64.1404200  81.3279629  74.2025471  64.1929054
  81.9653797  75.3119230  63.3842230  74.3915510  61.1760521  76.7201757
  75.0451803  61.3994694  77.3828125  73.9557171  62.0054913  76.5244484
  20.1518491  94.8095894  82.1151066  20.6378701  94.5653152  82.9027176
  19.2328218  94.6876335  82.3533154   0.0423864  56.8546391  64.1821003
   0.8135465  57.4186611  64.2406321  -0.6908652  57.4613285  64.0796232
  64.7048525  45.0128739  17.1051025  65.5430846  44.6586602  16.8082333
  64.9384551  45.6372254  17.7920151  22.8739789  30.3832579  82.9919910
  22.5134137  30.3435993  82.1061897  23.0969766  31.3054490  83.1187534
  97.1829796  90.1122379  87.6803589  97.9096889  90.0315857  87.0626068
  97.5787926  89.9551201  88.5376072  49.1286902   8.3205121   5.0219154
  48.7500815   7.4469941   4.9226666  49.9913077   8.2556431   4.6121311
 103.7982897  32.8941529   0.9182072 104.5503001  33.4781544   0.8200169
 103.3602385  32.9226487   0.0675964  63.9804320  17.1847003   2.2268867
  64.1341452  16.4977257   1.5783024  63.5742430  17.8956311   1.7310810
  70.7646327  36.1774628  22.6967907  69.9830870  35.8576291  23.1474972
  70.9726958  37.0028393  23.1346321   2.9761556  76.5969229  85.3013515
   2.3142102  76.5019608  85.9862137   3.7531236  76.1662722  85.6578445
  17.1440601  97.4283677  60.3070736  17.3428535  97.6233387  61.2228775
  16.1902332  97.4862581  60.2514601  79.8315955  59.6436565  25.8839130
  79.7335482  59.3267094  26.7817783  79.1242600  60.2794318  25.7757568
  61.3001107 102.5065672  55.0245619  60.9653424 102.3448702  54.1425085
  60.8397722 101.8733042  55.5752850  85.6233215   7.0732403  69.2606497
  85.1102448   7.8733194  69.1472530  85.4633522   6.5708733  68.4617376
  40.1303100  87.0080274  73.4510851  39.7461938  87.3889297  74.2407703
  41.0523223  87.2627371  73.4863949  36.0052823  92.1582037  85.4508400
  35.8532809  92.8800541  86.0608006  36.1400317  92.5842648  84.6043491
  49.3481493   4.6863633  88.3491707  49.0917826   4.0289882  87.7023602
  49.3745756   5.5077296  87.8583717  65.8831548 104.3832186  83.5981464
  65.2300405 104.6751468  82.9621792  66.7170285 104.4499901  83.1329346
  27.6208209  88.0349439  86.5713692  27.6605319  87.9700035  85.6171989
  26.8948364  87.4629420  86.8203545  81.4246464   9.4838941  79.7864246
  81.2919140   9.2800450  78.8606453  82.0350361  10.2212179  79.7841978
  38.9369965  21.6297913  81.0163116  39.6603465  22.2518873  81.0937119
  38.9582944  21.1346126  81.8352032   2.0778039   5.6396317  52.3692751
   1.6565087   6.1432981  53.0657387   1.3511518   5.2853322  51.8567610
  63.9247704   2.5851980  83.2507992  64.4042683   1.8182248  83.5639572
  63.5075092   2.2924435  82.4406052  40.8991908  93.3772605  88.6266994
  40.0193595  93.0006832  88.6086750  41.4824151  92.6297062  88.4954071
  32.0246219 102.1512189  61.6488838  32.4227332 101.4742213  61.1016989
  31.3196944 101.6999632  62.1132946  81.1702061  31.9815183  58.7573147
  80.7004833  32.8001118  58.5976362  80.4802513  31.3308549  58.8870621
  81.0408783  18.5497618  71.1324024  80.8163452  19.2552030  71.7391729
  80.4645729  18.6878943  70.3807211  42.8426313  79.2368537  56.1223841
  42.7278280  80.1802975  56.0085011  43.6106824  79.1555649  56.6878319
 101.7152882  13.0434215  89.8036575 101.4114094  12.5473011  90.5637550
 100.9224510  13.4429049  89.4458103   9.4682506  62.4692343   7.6299000
   9.3257145  62.1384333   6.7430687   8.8935093  61.9364815   8.1795216
  78.9383507  18.3114111  57.6769876  78.1518555  18.8029051  57.9138231
  79.2196131  17.9009962  58.4947157 103.6679935  34.6507692  61.0767078
 104.2744350  33.9102030  61.0727882 104.2305946  35.4214573  61.0008621
  24.5009903  54.9183397   5.7969952  24.1590217  55.8120580   5.8205318
  24.2059330  54.5710847   4.9552155  93.8851929   6.7828304  46.7164278
  94.8196030   6.8018371  46.5096426  93.7868118   6.0402107  47.3123026
  80.0344944  10.8652520  60.1670647  79.8944902  11.5445721  59.5073986
  80.4736900  11.3176405  60.8872604  93.3870029   8.3171964  87.3429585
  94.1690350   8.0247450  87.8110600  92.6579762   8.0393064  87.8975201
  67.8942013  29.7631741  68.2943821  68.2191753  29.7993255  69.1940069
  68.1623316  28.9007235  67.9773426 100.3829623  56.5377452   2.7229691
 101.0308791  57.0321696   2.2209930 100.9017516  56.0147660   3.3341789
 105.0564480  45.5373526  90.1572704 104.9026680  46.3329554  89.6477604
 105.1867580  45.8481359  91.0531902  94.5811749   1.0140408  74.5826340
  94.1772938   0.1837638  74.3301487  93.9892960   1.3778473  75.2410841
  75.9519863  30.5451202  83.9712620  75.1174831  30.7975125  83.5761261
  76.5983915  31.1089826  83.5464668  71.7775869 100.1520949  86.7420387
  70.9266233  99.7182512  86.8042660  71.7400598 100.6357985  85.9169006
  75.1993895  30.4909277  68.8366079  75.6941319  31.1709881  69.2937565
  75.6054926  30.4400301  67.9713202  54.8010873  69.2717343  66.9374418
  54.2849588  69.2709261  67.7435684  55.7097768  69.2258554  67.2347879
 110.6039238  12.9071748  72.0124626 110.6671429  13.8497555  71.8582726
 111.2169933  12.5205505  71.3872385  72.3089433  65.5865859   1.8468761
  71.9785143  64.9331580   2.4633884  72.4374915  66.3729225   2.3773289
 110.9031821  75.6372403  24.9215221 110.0174714  75.7623194  24.5807934
 111.4751578  75.8328055  24.1793442  45.1882938  47.9979609   7.1603012
  45.6573967  47.1752219   7.0214653  45.8703712  48.6248811   7.4010849
  55.8362961  40.6031322  77.6492834  54.9388790  40.9138012  77.5294256
  55.8398008  40.2124119  78.5230970   3.2311252  71.1075626  12.6733303
   3.8704780  70.4646896  12.9802132   2.6095060  70.5978976  12.1536541
   5.9160427  64.2851328   4.1468906   6.8225006  64.5439707   4.3128967
   5.4041866  65.0721167   4.3337059  57.7866315  90.4906982  71.7386484
  58.3552789  91.2319654  71.9469500  58.3447980  89.7213870  71.8519449
  92.3038960  32.1936226  65.9187841  93.1248188  32.5035954  66.3011837
  92.5244045  31.9917917  65.0094604  88.3175659  17.1942341  46.6210985
  87.6519203  16.7705512  47.1629906  88.8744354  16.4760470  46.3205481
  83.6786556   7.3048234  86.5318584  83.9853287   6.5010732  86.1121368
  84.4782639   7.7941686  86.7252541  71.7402983   5.5463743  83.5391712
  71.4929247   6.3900048  83.1605911  72.2135544   5.7726878  84.3398285
  81.2799835  41.1933374  81.0676479  81.0348320  40.2865362  80.8836746
  80.4456806  41.6489553  81.1798096  88.2025528  12.2941327  90.8583355
  87.4804497  11.7456663  91.1649036  88.4349728  12.8299999  91.6166592
   8.3455995  26.2259245  63.9620972   8.9660600  26.9344354  63.7909937
   7.8147939  26.5435839  64.6925545  89.6670914  55.2679174   0.8535290
  88.7846041  55.3809743   1.2066078  89.5504475  55.2954532  -0.0961399
   4.6544984  20.6582618  46.2446833   4.9535802  21.1967850  45.5120373
   4.2143109  21.2740755  46.8305540  74.2183399   8.9977640  87.4477005
  75.1280260   8.9328647  87.1570301  73.9819384   8.1041026  87.6961231
  78.5624409   8.1799132  67.7361107  78.6485195   7.7126211  66.9051743
  78.8383436   7.5453198  68.3974743  37.6004361  94.3170684  71.0417986
  38.1324100  94.2769342  71.8365479  37.0834064  95.1166373  71.1397839
  78.0962753  27.6557064  70.4604578  78.8263702  28.2419491  70.6592417
  78.4054565  27.1296620  69.7229528  65.9840918   8.8369685  89.4681358
  65.1012421   9.2039585  89.5142651  66.2678242   8.7801224  90.3805447
  17.1043924   6.0475916  67.5056648  17.1627191   6.0555786  66.5502787
  17.7970842   5.4479784  67.7829170  90.5964279   9.1339105  67.4290943
  89.8954582   8.6066341  67.0458794  91.3075924   8.5118443  67.5824213
  90.1880932  19.0016425  87.2521496  89.3652630  18.8422918  87.7145290
  90.8054924  19.2493749  87.9403973  99.5079757  64.5999848   7.6476765
 100.3084088  64.6347355   7.1239090  99.5431472  63.7480317   8.0826092
  63.8256359  23.0716610  36.9300961  64.3347263  23.8810277  36.9746089
  64.4657707  22.3984408  36.6993785  71.2740612   3.0791906  75.1338530
  71.5092802   3.4403902  74.2791986  71.4589596   3.7863708  75.7518673
  33.2577466  89.1408676  41.3179970  33.8287448  89.2871421  40.5638123
  32.4842166  88.7111515  40.9529924  24.8588561  90.4928773  50.5473423
  25.7173490  90.1253277  50.7574177  24.6774434  90.1853019  49.6592426
   1.7297509  14.2572653  45.5415964   1.0697797  13.6217320  45.2645206
   1.4397863  14.5411658  46.4085150  88.5433865  21.3096881  71.1595821
  88.3130932  21.5131450  70.2530479  89.2207050  20.6369734  71.0894346
  95.9470081  24.5842457  48.6076117  95.5295277  24.3307447  49.4308233
  96.4137554  23.7982345  48.3237696  68.4193516   1.5840277  62.2308588
  67.9515409   0.8572137  61.8196154  68.2671881   2.3274928  61.6474771
  35.4833888 103.9053523  77.1415710  35.1918172 102.9942739  77.1755505
  34.7391748 104.3814171  76.7731428  73.5959768  95.8030152  69.8930073
  72.6805734  95.9219652  69.6397734  73.5546159  95.3477317  70.7339811
 105.3372288  66.5299152  15.3657532 104.9897958  67.1594511  15.9975815
 105.2707387  65.6841527  15.8090305  88.7308025  11.4460254  51.5731573
  88.8704205  12.1884596  50.9853411  88.1617928  10.8543992  51.0807848
  14.7686246  26.3756537  69.1711712  15.3134111  27.0867348  69.5085192
  15.2155259  25.5773401  69.4525957   2.6964143  57.7090025  74.0003157
   2.3558286  58.5607624  73.7269354   3.4736684  57.9170418  74.5187950
 105.6847573  42.3055624  19.1013432 105.6604815  41.3493692  19.1379166
 105.3215457  42.5866650  19.9411678 108.9104748  26.0363126  65.4970503
 109.0873623  25.6817269  64.6257257 109.1108513  25.3155279  66.0941696
  58.5329103 100.7670024  68.0628061  57.8387307 100.3081047  67.5897741
  59.3330049 100.5491569  67.5846624  90.8456898  22.2885966  59.8553562
  90.0951481  21.7693734  60.1440144  90.6211567  22.5598812  58.9652872
   1.3483861  48.2383347  78.5582304   1.1267713  48.8960409  77.8990269
   1.6852811  48.7443447  79.2976093  36.9030713  97.6297676  70.9309006
  36.8011712  98.2484960  71.6541052  36.1718415  97.0204395  71.0321617
  93.3956718   2.5566283  82.0831585  93.2484913   2.8076315  82.9950619
  93.0216122   3.2753742  81.5735435   6.3684705  17.2352028  50.7740450
   5.7673791  17.8664887  50.3785801   6.2244371  17.3250198  51.7160749
  16.1398175  34.2870975  44.7918081  15.6660703  34.0143847  45.5775642
  15.7813123  35.1497817  44.5832920  79.6536493  25.8126259  52.9423141
  79.0433884  26.4141011  53.3689785  80.3921509  25.7509899  53.5481596
  57.0004892  89.5164925  58.0509806  57.6634454  89.8035592  57.4230433
  56.9890069  90.2030796  58.7178421  93.6170197  25.4728723  84.7488308
  92.6879311  25.3969693  84.9662209  93.9150333  26.2409973  85.2360821
  30.6741051  83.0207656  10.9328079  30.4499058  82.0986270  11.0578251
  29.8500446  83.4350227  10.6767845  36.5201333  12.0229650  43.0596924
  36.5924123  11.7482793  43.9737797  35.7889226  12.6406288  43.0523109
  21.3175300  68.7270890  24.4627476  22.0993332  68.2080232  24.2740822
  20.6040481  68.0891417  24.4764900  16.9052986 102.6559185  13.4137630
  16.9625191 102.1872829  14.2464352  16.3811592 102.0842956  12.8527355
 102.4134922  62.4826288  47.2028303 102.9333878  61.7762375  47.5861788
 102.7445316  62.5655031  46.3085318  78.3617115  27.5282526  57.6215649
  79.2119265  27.1853685  57.3462391  77.8000641  27.4205637  56.8539810
   0.8747581  20.2339147  14.2302322   1.3340858  20.7501076  14.8926544
   1.5611271  19.9593090  13.6221886  67.4657393  25.5408645  76.9405031
  66.6301680  25.2104902  77.2705030  67.2227478  26.1880779  76.2784576
  84.2230081  81.4986402  57.9915762  84.7309446  80.8162862  58.4304619
  83.4656095  81.6366702  58.5603714 104.7374630  46.9485331  66.9829512
 103.7859535  46.9388771  66.8792152 104.9131203  47.7285385  67.5092316
  94.1769981  32.2671819  54.2124081  93.7640095  32.7926135  53.5271358
  94.6215248  31.5635777  53.7395763  81.4562225  15.0668275  57.3066282
  82.1543980  15.6229854  57.6522827  81.8088245  14.1785598  57.3604012
  72.4844837  25.9834957  70.4161549  72.3463869  26.4667797  71.2307692
  71.6402912  26.0251689  69.9668884  85.3876781  18.6661243  63.4604406
  84.8224258  19.3968916  63.7108469  85.6029415  18.8333273  62.5428724
  98.2602596   4.5630464  82.4328804  98.9657211   4.3998465  81.8068314
  98.6560631   5.1257682  83.0984020  80.7261323  83.9058786  57.1278191
  80.2280568  84.7053867  56.9577122  81.4336347  84.1836768  57.7096319
  79.8781872  26.9166803  79.4226933  80.3560638  26.9513941  80.2513409
  79.6506214  25.9930730  79.3159533  94.7393990  33.5238290  66.0663939
  94.0768814  34.2146993  66.0685921  95.5210209  33.9403796  66.4294052
  77.2482920  25.5098844  78.9087057  76.4030266  25.1204085  78.6849546
  77.4273539  26.1206412  78.1937599  59.7729921  15.6823778  79.2196226
  60.0209045  15.5167019  80.1291943  60.4674053  16.2476504  78.8812637
  94.5072174  29.0594149  56.4603758  94.2934704  28.8307405  57.3649502
  95.0899410  28.3587742  56.1675024  21.8091873  89.7992657   4.9256706
  21.2024406  89.4266223   4.2859650  21.6942791  90.7458233   4.8416424
  55.5624723 103.0678347  67.5982761  55.2725553 102.1586638  67.6730394
  56.3269376 103.1233743  68.1716299  12.9441503  65.9991217  44.6898508
  12.5730756  66.0235071  45.5718613  12.3990968  65.3694248  44.2180204
  21.8801407  61.9958298  25.3287029  22.7628044  62.0738869  24.9667072
  21.3547138  61.6513346  24.6065617  34.1668180  18.5965550  61.8335533
  34.9048284  18.9402974  61.3301611  33.4335950  19.1673756  61.6038084
 101.8932629   6.8378741  48.1036282 102.0195484   5.9007061  48.2519531
 101.7689705   7.2043186  48.9791298  77.2538042  19.7544479  65.0049114
  76.8884993  20.5028725  65.4767656  77.1447754  19.9777031  64.0805197
   1.9648556  43.5193788   2.7165985   2.2952751  44.3433075   3.0746365
   2.4337391  43.4127496   1.8889427  94.7789622  85.9212087   5.3816319
  95.6848193  85.7338475   5.6276989  94.4900418  86.5788554   6.0142899
  32.3056797  92.3792385  19.5958328  32.2650341  91.5912531  19.0539360
  31.4902500  92.8430580  19.4056225  41.0798835 104.9547873  75.7593727
  40.9308910 104.6241668  76.6452217  40.2546357 104.7940862  75.3017950
  51.7302560 104.7216413  43.9994621  52.0291566 103.8146418  44.0645790
  52.4176549 105.2317033  44.4278812  10.4642537  15.4041266  23.7642622
  10.2081159  16.1105061  23.1712604  11.4006665  15.5402875  23.9085960
  82.5309753  22.1121311  51.9507885  82.9462624  22.9724216  51.8902683
  83.2394600  21.5216422  52.2069120  81.5669537  44.4312048  51.9791126
  81.6619396  43.5016918  51.7712307  82.2751236  44.6119785  52.5972176
 105.1195812  25.5476141  42.5053072 104.4341183  26.1200714  42.1608448
 105.4083252  25.0375199  41.7485619 104.3386173  23.4132648  89.0871239
 104.1795635  23.3396602  88.1461048 105.1046467  22.8612781  89.2444515
  96.0643101  34.4734526  13.7877285  95.4992962  35.2417302  13.8697839
  96.9222164  34.7739410  14.0876424  93.9046669  23.9639258  82.2233963
  93.6982918  23.1528854  81.7587948  94.0818310  23.6866140  83.1222534
 101.7891884  32.7112603  72.4729681 101.6881084  32.2875404  71.6206312
 100.8933067  32.8851891  72.7617216   9.9329137  98.3543360  49.0105820
   9.6421241  99.2311084  49.2614651  10.4794835  98.0650633  49.7412109
  86.4359283  33.0072308  76.2279463  87.2195148  33.5569644  76.2258768
  86.2010384  32.9215240  75.3039837  94.3211937   4.5704418  48.3719826
  94.9832821   4.0494278  47.9176521  93.7079048   3.9248693  48.7231779
  11.0737279  33.5113215  74.6051359  10.8940271  34.0575862  75.3703356
  11.4374593  32.7035213  74.9676180  13.7338498  46.7681456  45.1535034
  13.9169267  47.6588106  45.4525566  13.0189279  46.8687153  44.5250082
  51.4567994  95.5514651  84.3431854  51.9729661  95.9599697  85.0381088
  51.5864515  96.1189937  83.5833645  92.7328491  10.1290751  53.0458641
  93.5048962   9.7491801  53.4652042  92.3976994  10.7574344  53.6854506
  78.8696671   8.9480180  63.6433506  78.7356377   9.8817408  63.4807777
  79.5311928   8.6859643  63.0030775 109.5887375  29.9588871  21.4988637
 110.0501442  30.6985855  21.1036682 110.2839851  29.3560028  21.7622852
  14.0640453  50.5026375  21.7322826  13.5612015  50.4089202  22.5413513
  14.8374943  51.0053307  21.9878483  67.5606012  12.0824671  23.8990545
  68.2193995  12.7650619  24.0266585  67.0288754  12.3965085  23.1676984
 100.1606083   2.3895578  60.4653406  99.6226692   3.1811187  60.4483175
  99.7435760   1.8029505  59.8342991  91.0492706  63.0094957  80.0562191
  90.7681656  62.1643209  80.4067707  91.2351990  62.8361559  79.1333866
  99.0336990  29.5409083  75.6812286  98.4956741  30.3325558  75.6737995
  99.0411854  29.2478538  74.7700214  99.2266083  33.0378675  73.5101175
  99.6571255  33.6289048  74.1278219  98.4163189  33.4886146  73.2724190
  98.6385536  26.3744879  84.1506004  99.4748116  26.0147548  84.4463921
  98.0369759  25.6302357  84.1711712  44.1665696 100.5369219  85.5347061
  45.0257634 100.9234863  85.3656673  43.5434579 101.1859816  85.2080822
  47.1924543 102.7818778  87.2741604  46.9949006 102.3570075  86.4394855
  47.1303319 103.7184983  87.0867729 110.0457764  40.0057983  36.2267470
 109.7568893  40.6025076  35.5363011 109.5819855  40.3028870  37.0096040
  85.6307411  39.8249817  45.9799576  85.1131630  40.4261589  46.5156174
  86.3746929  39.5899940  46.5345287  65.0360489  10.6414378  50.5687857
  65.6546068  10.6695485  51.2987423  65.5562115  10.8891749  49.8043966
  16.4554647  53.8338470  76.5346909  17.1892217  53.3747244  76.1259747
  16.1379293  54.4297075  75.8562040  97.6639462   4.7176966  68.7384462
  97.4112892   3.7948474  68.7111235  98.3873844   4.7495285  69.3644238
  87.2014713  18.0079484  78.4752560  86.4397430  18.5460067  78.2596159
  87.1753788  17.2909784  77.8416109  89.9347687  21.3931108  74.4373131
  89.3299389  21.2280822  75.1606274  89.4471645  21.9630957  73.8426733
  12.5217441  65.8757816  14.0413284  12.8486828  65.2331101  13.4117889
  13.2929615  66.1269330  14.5496273  23.1806950  75.8052157  24.2297935
  23.9241985  76.3765262  24.0373325  23.0805878  75.8544611  25.1804733
 110.0645733   7.1521634  81.1281204 110.3075314   6.2266093  81.1516762
 109.6290970   7.2640473  80.2830887  73.2390404  31.2088132  88.7615585
  72.9201508  31.6081548  89.5709229  73.9136553  31.8106961  88.4471321
  93.5085583   1.0752921  79.1333008  94.2413712   1.6848657  79.2207050
  93.4468651   0.6506737  79.9889469  61.8165063 104.2617891  66.0024023
  62.1171998 103.8565790  65.1890039  60.9374189 104.5818218  65.7998562
  74.1558409  27.4345374  80.8980942  74.0726042  27.3364234  79.9495745
  74.9247026  26.9120741  81.1263657  59.8983288  36.6458297  88.5411072
  59.4121456  37.3146105  88.0588245  59.7994089  35.8520341  88.0154324
  48.1135988  88.7287265  68.9157677  47.5975274  89.5115798  69.1082382
  48.5063409  88.4884542  69.7549677  99.2916060  71.4190827   8.2529259
  99.0736104  71.8195938   9.0945339  99.5009566  70.5100070   8.4673595
  83.1978703  41.0395813  58.9981508  82.9931068  40.8585548  59.9155045
  82.4743652  40.6473494  58.5093451  27.3710922  50.8774203   3.1489754
  26.5150455  51.2614522   3.3385277  27.9879478  51.6009669   3.2594299
  23.9468483  70.9133385   4.0495873  23.2328705  71.4327453   4.4192886
  24.7279171  71.4501809   4.1836357  78.4922886  26.7914724  16.5137064
  78.0389690  27.6330662  16.4641845  78.6484432  26.5494585  15.6008661
 107.6281071  33.8926935  67.3390865 106.7694950  34.2924118  67.2003794
 108.0758286  34.4891024  67.9391432  96.6106415  14.9018812  59.8375988
  96.8099785  14.0043366  60.1038885  96.2253952  14.8131180  58.9658546
  88.7953281  13.7810290  80.7484531  88.3389187  13.2852960  81.4282799
  89.0849495  14.5802498  81.1884499  78.1079912  53.5586023  74.6572447
  77.4426603  54.2137957  74.8676968  78.9244843  54.0552235  74.6030378
  70.7551146   7.9644686  42.4306202  71.2310076   7.2111666  42.0809078
  70.3750944   8.3864510  41.6600704  78.5826254   9.7650367  75.3068256
  78.6295509   9.0211809  74.7062349  78.0632353  10.4185987  74.8385048
   8.4985879  35.7742476  64.2968369   8.9571622  35.1055312  63.7881517
   7.8455785  35.2870679  64.7992897  87.6081562  42.2597361  84.6767044
  87.4880600  42.5257492  85.5883217  87.5817966  43.0791473  84.1826344
  70.9658479  98.6447870  56.7055130  71.2283181  97.9801005  57.3423290
  70.2562474  98.2352805  56.2105465  17.3162655  85.0438307   9.7146893
  17.5628761  85.2097677  10.6245708  16.8548969  84.2055629   9.7406483
  77.2734404  24.2538381  64.5334768  76.9879150  25.1631761  64.4450808
  77.1672392  23.8832068  63.6573553  84.1154671  38.8993549  66.4935160
  83.2817841  38.4313107  66.4472437  84.0712452  39.3866253  67.3162222
 108.2235909  34.8573661  41.3242245 107.8201008  34.5391464  42.1317911
 108.7744236  35.5886030  41.6036987  36.8466619   6.8408787  73.8175964
  36.2681821   7.3217285  74.4095230  37.2073129   6.1359411  74.3553925
  46.9248533  98.4731489  38.3133221  47.4626683  97.6827961  38.3616090
  47.2509526  98.9380491  37.5427651 103.9933491  19.3703353  84.7058868
 104.6769047  18.8674188  84.2631054 104.1845322  20.2815771  84.4838047
   4.3376640  93.5333799   4.8957729   4.5239023  94.4558309   5.0707912
   3.8547090  93.2360481   5.6668663  68.6182117  26.9699979  72.0207357
  67.8151894  26.4496875  72.0464039  68.3179045  27.8668356  71.8733263
  56.0570625  72.7896784   4.2996597  55.5806068  73.5599183   3.9898968
  56.6817192  72.5972043   3.6003780  61.8036126 103.0820971  59.7947025
  62.6779031 103.1084436  59.4059181  61.7256974 102.1963626  60.1491547
  84.0219498  44.2813969  81.1733150  84.4055748  45.1473331  81.0347080
  83.2200527  44.4510365  81.6677094  12.0329956  83.0185341  26.5931225
  12.5247387  83.6273097  26.0419273  11.1154465  83.1946181  26.3849545
  84.1066360  56.5501976  59.7446394  83.7449837  56.8852139  58.9241552
  83.3392715  56.3520241  60.2813911  76.3017845  21.7250633  33.9017248
  75.9238529  22.1002817  34.6970916  75.6893301  21.9685721  33.2075834
  79.0827084  24.7567916  59.0760422  79.7538948  24.2574596  58.6108446
  79.3258762  25.6721210  58.9372110  35.2195882  83.9668113  76.9105387
  34.6441745  83.4487229  76.3477659  35.7243156  84.5081168  76.3035250
  77.8491163  32.7110815  80.8181190  77.2021914  32.5682425  80.1272392
  78.4307003  33.3849120  80.4660606  90.3512859  21.3880992  67.8496456
  90.0915909  20.7397604  67.1950865  89.5466995  21.8695450  68.0422354
  82.5709343   3.4484875  85.6354046  82.3534775   3.9088210  86.4459896
  81.7948437   3.5530657  85.0849819  94.9208641  46.4609575  36.2673926
  94.6272182  47.2855949  36.6546559  94.1464424  45.8986616  36.2855291
  81.6229534  14.7167575  73.1531620  81.0633755  14.0366125  73.5280037
  81.0348511  15.2348316  72.6036406  96.0538007  86.0325597  19.3265247
  96.8937922  85.5933426  19.1933441  95.9794236  86.6363691  18.5875320
   3.1329492  28.2855177  85.1066208   3.9606717  28.6324859  85.4393768
   2.7569154  27.8108692  85.8479309 106.4623451   6.1122477  63.4164619
 106.3724899   6.3697928  64.3339729 105.6575489   6.4218104  63.0008793
  48.0143309  27.1962309  71.5899324  48.9200401  26.9109702  71.7105579
  47.5484562  26.8408084  72.3468161 102.6632214  27.7821159  51.9461060
 102.2392273  27.7962852  51.0880423 103.3053780  28.4909010  51.9076872
   7.2356800  77.5762795  16.0774994   7.6951507  77.9612850  16.8237495
   6.6975883  78.2893609  15.7336998  87.1881580  53.7503910  64.8020983
  87.9575062  53.3408928  64.4063044  86.6268539  53.9734316  64.0595198
  64.5675898  57.1066713  80.9189606  64.4316244  57.5872183  81.7355537
  65.4661798  57.3163795  80.6644249  78.9060354  45.5027533  54.8507309
  78.5700703  44.6308804  55.0585651  78.6546421  46.0414219  55.6009769
  83.8951874   9.1020596  59.4833088  83.0164337   8.8971382  59.1638994
  84.2944050   9.6098977  58.7769413  87.8984833  10.1076591  57.8349686
  87.5700378  10.0197875  56.9401836  87.1770096  10.5127275  58.3162403
  86.2812042  43.6564827  79.5740461  86.8391800  44.3237877  79.9735403
  85.4205799  43.7960052  79.9691391 110.3989124  59.4986105  33.7044430
 109.8682022  59.3632841  32.9194212 109.9740791  60.2265120  34.1582131
  14.8618081   5.7742286  77.4918032  14.5268777   6.4026469  76.8521595
  14.1214040   5.6089145  78.0754995  81.4563989 104.2901978  45.7252312
  81.4873552 103.8854351  46.5920877  81.6177415 105.2194034  45.8888721
 110.3850365   7.1439141  55.6957245 110.7437229   7.4954754  56.5105772
 110.4594326   6.1944056  55.7912874  74.7924089  24.6908593  78.3859015
  73.8683414  24.4413996  78.3960247  74.7836399  25.6363153  78.2366753
  97.9777050  22.7378654  48.7260485  98.0527020  22.1688151  49.4920683
  98.5329628  22.3242259  48.0651188  81.9532585   2.3882110  69.2705059
  82.5814247   1.6828944  69.4259787  82.4562263   3.1911820  69.4064856
  62.7462482  15.3625011  84.3862152  62.2607613  16.1630857  84.5852089
  62.7671623  15.3265166  83.4299183   1.6371682  18.9270186  57.6600361
   2.5094751  19.3207276  57.6426888   1.7743924  18.0275631  57.3627520
  91.0905743  19.7401536  56.7613697  90.7396698  20.5731225  57.0764351
  91.8728828  19.5933795  57.2930384  27.8034261  16.9112623  75.5141258
  28.2564119  17.6241875  75.9644222  28.1557038  16.9279003  74.6242619
  47.9194116 103.5921699  59.6275139  48.0264615 103.1530311  58.7837553
  46.9721078 103.6788888  59.7339106  59.3067407  88.2971853  82.1174335
  59.2559194  89.1463071  82.5563431  58.4282350  87.9279726  82.2076416
   5.3061346  52.7971065   6.3635731   4.7707132  52.1663780   5.8821869
   4.9211983  52.8186834   7.2396946  47.0141701  74.1290592   0.2048683
  47.3950962  74.0616773   1.0804176  46.2343315  74.6711730   0.3240204
  38.1439690  83.3481525  14.6848965  38.4731487  83.9709829  14.0368462
  38.1413463  82.5067018  14.2286205 109.5138741  39.2740035  74.2493439
 109.1806889  38.5084486  74.7174788 110.4567051  39.1226268  74.1830921
  95.9386253  30.2816868  66.9457579  96.7354298  29.9437785  66.5369225
  96.0717297  31.2288523  66.9830894  79.0756941  21.9212127  49.5531559
  79.8594999  22.2117615  49.0868330  79.0567064  22.4565506  50.3464317
  75.9546423  26.0623693  62.4008417  75.8045006  25.8179355  61.4876413
  75.0778961  26.2021232  62.7586365 107.5858307  47.0356512  61.7063999
 108.0675888  47.7877092  62.0507002 107.7782822  46.3266230  62.3199701
 108.6216927  23.5758042  47.1164894 108.4278011  23.1507683  46.2810373
 108.5007000  24.5095205  46.9439602 109.5802879  37.4605799  65.3374672
 109.3510818  36.5357876  65.2455044 108.8473415  37.9297757  64.9388647
  85.8859253  60.4679060  64.0861034  86.5779686  60.8136082  63.5223675
  85.3364658  61.2264490  64.2834234  40.8194446  99.4115019  84.0512371
  40.8345842 100.0217533  84.7885323  40.7242584  98.5492825  84.4559002
  91.7024612  11.7087615  28.1148863  91.2328148  11.2631667  28.8199472
  92.5386810  11.2468565  28.0548167  81.0365582  36.6840792  76.1569786
  80.2930546  36.4854574  75.5877829  81.0239697  37.6372695  76.2435865
 105.7241821  50.2097607  61.8607044 104.8867416  50.5430126  62.1829844
 106.2744427  50.1493931  62.6416016  10.7233337  45.5144970  11.5163708
  10.0415424  45.5480956  12.1873856  11.5044693  45.2177178  11.9832611
  86.7049503  21.5084982  74.3815756  86.7796612  20.8118987  75.0338030
  86.9969940  22.2970748  74.8388433 107.7230835  35.0486207  51.6894341
 107.2519302  35.6773806  51.1427069 108.1529903  34.4636512  51.0655499
  91.0643344   4.4052355  28.7025261  91.1717181   3.7096064  28.0538368
  91.8089633   4.9881117  28.5541630  98.8925648  14.5971274  69.1458035
  98.4101582  13.9664471  68.6112404  98.4821892  15.4396629  68.9509916
  46.6647481 101.5818766  84.6201611  46.4833307 101.8845966  83.7303925
  47.6027154 101.3909682  84.6216297 100.5721760  25.5972838  54.7399426
 101.0616398  24.9746728  54.2023516 101.1431694  25.7675552  55.4890823
  86.6709137  26.0942578  65.8341503  86.0399914  26.8019581  65.7025242
  87.5048923  26.4586568  65.5376196  95.5207539  35.3433180  52.9696560
  94.7726727  34.7719646  52.7959633  95.1330948  36.2041616  53.1274652
  77.1695566  12.7781904  79.6006584  78.1216097  12.7270126  79.5157385
  76.9061327  11.9001818  79.8762274  90.3706121  90.0693184  82.7308083
  89.7761297  89.6119362  82.1361542  91.0323381  90.4560154  82.1573830
 108.9196682  21.0997128  89.0805340 108.9872551  20.9266925  88.1415367
 109.5845413  21.7672586  89.2495441 107.4034309  61.8333006  64.2071581
 106.5105152  62.1695948  64.2835569 107.3011971  60.8815956  64.2006588
   3.0682710  48.6415815  45.4009819   3.3009008  49.5560122  45.5620289
   3.5863355  48.1472111  46.0361481  70.5166817  20.4575586  88.5355949
  71.3872719  20.8482027  88.4600830  69.9827290  21.1394477  88.9432144
  93.0407619  47.5000191  43.0574989  93.1721497  47.9697132  43.8811207
  93.6890984  47.8753567  42.4616718   7.4243882  21.0988307  66.7369938
   6.8557504  20.4098058  67.0806980   7.9099897  21.4115596  67.5002861
 102.5744057   6.0256284  43.2840919 102.6862049   6.6602248  43.9919186
 103.3031178   6.2002689  42.6885223 101.9860172  62.0697165  67.6661396
 102.2056675  61.7414713  68.5380602 102.1818352  61.3395452  67.0789909
 106.8765163  29.6754193  41.6975212 107.5636101  29.4324756  41.0769510
 106.7023182  30.5983281  41.5127897  94.9237347  29.4707036  46.1372137
  94.2652225  28.7980103  46.3106394  95.5020809  29.0769506  45.4839897
  87.1530437  16.6356599  23.4298015  87.2548103  16.8472302  22.5018382
  87.3060131  17.4649405  23.8827062   0.3528360  25.2852297  64.4820642
  -0.4810283  25.0138164  64.0983343   0.6007722  24.5590997  65.0543308
  94.2766857  48.0398083  65.3538418  93.9591217  48.9088249  65.5991936
  94.1681671  48.0046558  64.4034624  52.3612642  94.4395178  54.5997858
  52.2758912  94.6764201  53.6763048  51.5751981  94.7973007  55.0124931
  72.9174948  24.5044279  85.5768394  73.4170151  24.5926881  86.3885784
  72.8116989  23.5600257  85.4621983  81.6093731   1.2586501  82.3106003
  81.2446404   2.1423419  82.3584461  81.3790512   0.8587454  83.1492043
  26.3755849  27.2055197  68.7778807  26.7136624  27.4206424  67.9085970
  26.1051801  26.2898326  68.7098455  98.9525032  28.8712573  33.1751943
  98.1372452  28.6821628  32.7106094  99.0783405  29.8136449  33.0642796
  77.4183941  28.5910368  87.9527473  76.6235256  28.4185004  87.4481201
  77.7314711  29.4343519  87.6255798 109.6068001  23.5211730  66.7633963
 110.2257252  23.2483435  67.4406862 110.0522709  23.3256388  65.9390450
  96.6163063  47.6178789  53.3558941  97.1723938  47.3567581  54.0899372
  96.5399551  46.8281174  52.8204679  95.8983803  33.7160230  59.7277927
  96.7946434  33.9300632  59.4686937  95.4109764  33.6891460  58.9044189
  95.2541733  30.7520366  40.9823895  95.9671688  30.3420877  41.4721060
  94.4577217  30.3900790  41.3708162  94.8225117  65.3818846  85.2480316
  94.9433899  64.4825506  85.5526829  94.0544510  65.3405666  84.6782780
  92.2463894  19.1748226  65.5591583  92.2857571  18.2433856  65.7762003
  93.0686665  19.3489850  65.1011467  90.6200123  29.4955468  66.8837309
  90.8028793  28.9927697  67.6774597  91.0740662  30.3275514  67.0173073
   9.2582230  63.6385904   1.5001297   8.6594108  63.9333962   2.1862412
   9.1330437  64.2652439   0.7874775  91.6714573  55.2125978  40.7817936
  92.2989082  55.6462860  41.3601160  91.0503292  54.7908401  41.3755512
  19.6887974  91.8144487   7.0104504  19.9362091  91.0634969   7.5499725
  20.3320793  91.8224619   6.3016796   7.6798871  53.7733078  53.3950377
   8.2040456  53.4233856  52.6745939   8.2871583  53.8174772  54.1336250
  89.9112129  10.9223926  85.6769466  89.8969841  10.5696988  86.5666866
  90.1804447  10.1838207  85.1308155   5.0999978  31.4985275  58.9683437
   4.2697671  31.0381222  58.8459396   5.0078920  32.2996688  58.4526634
  12.9164937  38.3010936  64.4867134  13.3255151  39.1591787  64.5990753
  13.4037450  37.7245808  65.0753117  90.5141354  44.5613050  79.6396780
  90.2692127  44.1275930  80.4570770  90.7164669  45.4607677  79.8970890
 109.1546917  46.1711454  86.8568325 108.7807083  46.6083765  87.6218033
 108.6414337  46.4994287  86.1185646  12.4597505  27.3693585  69.8059416
  12.6826623  27.6006794  70.7076263  13.1124738  26.7144704  69.5583296
 106.5834141  46.0006762  80.7704353 107.2384644  46.6387987  81.0531807
 106.5042210  45.3958559  81.5081024  80.7425690  29.3585467  69.9720192
  80.9067059  29.1954112  69.0432167  81.5558338  29.1031218  70.4074383
  68.6611128  18.3174777  47.6683712  68.0091524  17.6238024  47.7683449
  69.5027161  17.8683746  47.7473688  71.2286519  94.1623384  68.2267904
  70.4014253  94.6111113  68.4015226  71.3195276  93.5385352  68.9470959
  10.8130696   2.0788570  64.8937321  10.5843690   1.7382373  65.7585478
  11.5367273   2.6834366  65.0581264 106.1076927  48.6853266  70.3998280
 105.8642197  47.7761793  70.5742168 105.2730370  49.1372252  70.2758169
   0.0082543  18.1881261  44.2898798   0.2961019  19.0479481  44.5966053
   0.7420400  17.8616059  43.7691259  90.1305389  25.8708000  54.7940111
  90.4650116  26.3735127  54.0512896  90.6468105  26.1744046  55.5406809
 109.0789986  35.6062603  69.2164373 108.9699078  36.5323472  69.0003586
 108.9435577  35.5636144  70.1630449  16.1233667  27.6873660  42.9306889
  16.1505368  26.9459963  43.5355568  15.3501371  27.5269341  42.3897552
  74.0604734  49.0665293  84.2402840  73.1037998  49.0467691  84.2155647
  74.3281460  48.2594538  83.8007164  78.9840937  35.7055593  74.6538210
  78.6533117  35.7232070  73.7557650  78.6308289  34.8962975  75.0233221
   8.7615064  10.8938932  68.8894320   7.8973058  10.6990385  68.5269165
   9.3385270  10.9305477  68.1265831  81.5532017  13.2436883  81.4802742
  80.8383465  13.2648718  82.1164894  82.1141720  13.9794159  81.7257309
 105.3264427  48.2825470  44.7516966 106.1605549  48.6000586  45.0976419
 105.4314518  47.3321199  44.7081232  72.0636225  35.0113988  77.1565104
  71.2028646  34.6367478  76.9695091  71.8894482  35.9362411  77.3313236
  73.4282303  37.7852321  73.0843830  74.2500544  38.2606792  72.9627800
  72.7487612  38.4179926  72.8516483  99.4580078  37.3869205  70.4914665
 100.3215694  37.7991295  70.5155277  99.1754055  37.3694086  71.4058304
  16.1263326  27.0519090  80.1117039  16.9756177  26.8906569  80.5227280
  15.6038812  27.4686742  80.7969666  96.4205360  30.9592867  62.9449749
  96.7894268  30.9549308  63.8282251  96.9958687  31.5408611  62.4479914
  73.7197542  39.7773576  68.9524555  73.3975410  38.9537001  69.3185186
  72.9427767  40.1939821  68.5796881  77.3831272  30.0157928  53.4543276
  77.1220064  30.7938719  53.9469147  76.6113615  29.7911978  52.9345560
 100.9642696  25.9439969  30.6920815 101.0937214  25.5979896  29.8090458
 100.9499264  25.1687694  31.2533712  82.8929901  38.1772208  63.2441187
  83.7358189  37.7673864  63.4388018  82.4872303  38.3091879  64.1009569
  12.7050355  39.8573446  46.0107327  12.4449971  38.9381075  46.0708904
  13.4640363  39.8538733  45.4275274 103.8945007  71.6258717  68.2768536
 103.6677551  72.5241995  68.0363750 104.5619392  71.7210293  68.9563465
  98.4939861  30.4329967  64.7531223  99.0975571  30.0672936  64.1064358
  98.6141586  31.3801193  64.6841955  10.7015660  34.6815205  79.9031734
  10.0513223  34.5182157  80.5863762  10.6317952  33.9253449  79.3204594
  55.8048300  10.2008622   9.4357491  55.8813147   9.7561829  10.2799320
  56.6864543  10.5277007   9.2564583  10.7106069  51.3812447  55.1473951
  10.0180963  51.9417524  55.4973745  10.9989885  50.8604813  55.8969784
  89.6615124  55.5929232  56.1588812  89.8020077  54.8520803  56.7484951
  89.4169617  56.3158369  56.7366552  69.6326927  60.6448113  42.5652313
  70.2504162  60.0920485  43.0438805  69.5455746  60.2222942  41.7107582
  85.8592415  49.3635368  53.9145279  86.2843800  48.5066366  53.8798428
  86.2721825  49.8644352  53.2111025  66.4828539   8.6437219  61.7440796
  65.7155561   8.3233845  62.2182846  67.2275400   8.2551736  62.2031021
 102.2400284  58.1381607  66.3255167 102.9327774  58.7521887  66.0819960
 101.5960789  58.2119560  65.6211662  36.3676217  33.9983082  35.5616546
  35.4607823  33.6950254  35.5180812  36.3033345  34.9524379  35.5199814
  16.2429002  31.2915421  64.4878912  16.6135266  30.4508495  64.2193794
  15.2958444  31.1550307  64.4618893  84.4804764  15.8149767  77.1235275
  85.3820419  15.8228576  76.8020439  84.0327168  16.4773607  76.5972281
   2.3426107  58.7998581  64.2068863   1.5977815  59.3893623  64.3249702
   3.0139115  59.3420982  63.7926865  17.9428247  64.8847008  76.0086489
  18.0487779  65.6592512  75.4563093  17.4231485  65.1900578  76.7522383
 106.1015987  34.1756988  45.6115866 106.7719078  34.4153929  46.2514782
 105.8722210  35.0010204  45.1844311 100.2839661  53.8889885  76.3668919
 100.1731396  52.9871035  76.6678143  99.4006729  54.1733789  76.1320591
 106.9431114  38.6472893  64.5492649 106.4689064  38.5128570  63.7287283
 106.3989162  38.2230639  65.2126741  70.3933191  25.7861137  83.8768196
  70.9289360  25.3541255  84.5422077  70.9779549  26.4327335  83.4814548
  55.6414559  47.1701479  32.6156926  55.5314401  47.7194166  31.8395281
  54.7500184  47.0164824  32.9286814  86.5028954   0.4511712  84.9584675
  86.0337257   1.2386605  84.6828461  86.8096256   0.0569895  84.1419029
  32.6727155  48.0246544  44.8532820  31.9913819  47.7351046  45.4600573
  33.2389882  48.5883951  45.3803110 103.0814457  70.9884644  58.2223988
 102.2238064  71.2345839  57.8758287 102.9926968  70.0618696  58.4455109
  77.9372454   0.1811565  80.6766415  78.2274771   0.9339537  80.1615715
  77.6012182   0.5614591  81.4882374 100.7370567  50.4468584  47.2937775
 100.3524399  50.4743814  46.4176846 100.3734875  49.6550846  47.6902008
   8.0553582  40.6585741  58.2601833   7.6105455  40.5627584  57.4180508
   7.3518136  40.6220388  58.9081955   9.5005944  26.1068082  54.5897818
   9.2997602  25.8036423  55.4752111   8.7638238  25.8028579  54.0596676
  24.6797470  98.5454391  22.9383755  24.9790768  99.1915773  23.5780144
  23.7387756  98.7030338  22.8610992  91.4087486  46.2352562  40.6237745
  91.1710358  47.0510626  41.0644388  92.3033810  46.0579634  40.9143543
  24.5636085  80.6073688   6.3156796  24.5689014  80.1441287   7.1533012
  23.6365227  80.6835865   6.0899830  11.2302593  75.6361364   2.8865719
  11.4602665  75.8919929   3.7798023  11.7443375  74.8452161   2.7240849
  28.6607793  18.0239642  52.8353310  28.6148599  18.1673467  53.7806177
  28.7316087  17.0741284  52.7403164   0.2936414  41.8954611  61.3970900
   0.4264119  42.2893238  62.2593403   0.6239179  41.0017204  61.4885950
 107.9281139  34.1835427  55.7354975 107.4678612  34.6880889  56.4061928
 108.2604313  33.4152246  56.1996984  12.0991948  10.1170182  74.5447826
  12.3147252  10.8508897  75.1202917  11.1943868  10.2795279  74.2780352
  -0.0260302  38.8308907  51.0530043   0.9240487  38.9413023  51.0902405
  -0.1901862  38.0103064  51.5176868 101.8234730  19.5334768  50.7875681
 101.6994762  20.3055048  50.2354527 102.6662445  19.1738725  50.5106878
  74.1161442  30.7536578  59.7618771  74.6998501  31.4750385  59.9966717
  74.3986368  30.0266623  60.3167725  19.1913465  56.7426014  87.4263954
  18.3731797  56.2458086  87.4210644  19.6812585  56.3892698  88.1689453
  43.7873272  81.4646171   4.5065117  43.9258770  80.6423448   4.0365028
  44.6672634  81.8196987   4.6324635   9.0703110 101.1164116   1.1474895
   8.2087520 101.0760091   1.5625858   9.5433525 100.3644060   1.5038013
  99.7254562  42.7532387  71.7119789 100.6274033  43.0441761  71.8464613
  99.8074532  41.9451427  71.2055254  82.0740986   8.6201894  63.7729597
  82.1155834   8.7984896  64.7124910  82.6568222   9.2699301  63.3799028
  16.5024903  41.7235327  75.0643253  15.9357026  40.9891844  74.8282814
  16.5444902  42.2581673  74.2714596  51.5514711  19.1198123  78.8185978
  52.1976426  19.8192668  78.9158201  51.4558747  19.0118730  77.8723192
  95.4825497   6.1870652  61.7251444  95.1462173   5.6422007  61.0136414
  96.3283348   6.5020716  61.4063263 110.0815201  50.7028055  53.6711025
 110.6311989  49.9566889  53.4315157 110.6952095  51.3515282  54.0157413
  94.6084404  55.5198288  75.1929379  94.7717190  54.8042107  74.5785570
  95.1114941  56.2552500  74.8431921 106.6734695  26.1759496  40.2749968
 107.4812984  26.6851521  40.3410339 105.9785080  26.8018007  40.4788828
  11.9687417  57.7994776  61.5285349  11.5233663  57.2813082  62.1988869
  11.4141324  57.7152443  60.7529449  96.0784054  55.1273108  59.2867422
  95.2178764  55.5170918  59.1324615  96.5450478  55.7772923  59.8120928
   3.3743909  24.6380758  82.3543167   3.8696530  24.0670562  82.9415798
   2.4809697  24.2958355  82.3846149  93.1655788  39.6604967  77.4572706
  92.9823208  40.5990124  77.5001621  92.3460865  39.2700839  77.1535444
 107.4093819  22.6137018  44.6393871 106.4884663  22.7843165  44.4418097
 107.8731155  22.8391814  43.8329506   0.9265664  47.6052141  66.2601709
   0.8363202  46.9112349  66.9132233   1.8000463  47.4746609  65.8910942
   2.6970056  30.0675631  22.4821091   1.8333867  29.6590590  22.5414801
   2.5382188  30.9921241  22.6723814  19.8769048  63.3661127  80.9103870
  20.7651189  63.6517811  81.1241627  19.7830060  62.5233126  81.3543510
  91.7095280   9.2860973  75.9997749  92.5263977   8.8560277  76.2527466
  91.9311523   9.7733510  75.2062416 103.3594608  11.9250917  87.9742050
 102.6447296  12.1328402  88.5760593 103.6745071  12.7773750  87.6732159
  12.5953583  69.9725317  25.1292133  12.2792820  70.0868283  24.2329693
  12.9273800  70.8351623  25.3779316  87.8887749  43.0974483  59.3508291
  86.9915485  43.3710051  59.1600561  87.8742313  42.1451283  59.2554188
  18.8718513  94.0285896   8.2106781  19.6416382  94.3655084   8.6690998
  19.1524319  93.1828951   7.8609562   0.7566884  27.4166250  66.1683989
   1.3095525  27.1340895  66.8969154   0.4531243  26.6018629  65.7680941
  17.6501516  81.8349552  48.3064461  18.0784753  81.0518169  48.6520863
  16.8125013  81.5197563  47.9670095  92.6500702  19.3810093  73.5829449
  92.1877098  18.9685750  74.3125677  91.9575119  19.6319807  72.9717159
  93.3662033  69.2598915  56.7582226  93.4324837  68.4066057  57.1868706
  92.4810505  69.5620680  56.9617605 103.3198738  25.7295585  70.7687759
 102.7810955  24.9590254  70.5892515 102.7339935  26.3290882  71.2308788
  75.6271076  75.1471233  69.8005533  74.7944403  75.0401115  70.2603769
  75.7252884  76.0939646  69.7001171   8.8490251  34.1634107  66.6265774
   9.3079045  33.5375047  66.0663128   9.3049386  34.9926805  66.4827728
  28.4493592  54.0313053  63.6756229  29.2556813  54.3588638  64.0740919
  27.7483323  54.4272137  64.1933632   1.4910749  78.4734915   0.8893776
   1.3711170  78.1393431   1.7782974   2.1824364  79.1303586   0.9716892
  33.7571004  27.6059079  52.4969578  33.6726812  26.8793678  51.8795109
  32.9193547  28.0656552  52.4418259  82.2369622 104.0795618  55.9758806
  82.7033185 104.9145810  56.0144091  82.1863794 103.7912068  56.8872118
   4.0237477  19.9242413  64.9637938   4.0980771  20.5505133  64.2437315
   4.9273351  19.6771061  65.1605034 100.8072758  29.1794062  89.3185329
 101.7413425  29.0097570  89.4409180 100.7130432  30.1200914  89.4684124
  86.7459393  37.7195239  57.6962566  86.2728977  37.0669270  57.1799421
  87.1624088  37.2157168  58.3955097  21.0745099  15.5916274  82.1052647
  21.8511155  15.6327796  82.6633167  21.4196256  15.6119204  81.2126732
 103.2900810  37.9272056  45.4885483 102.9971886  38.5175133  44.7943068
 104.2094517  37.7554536  45.2848673 105.1118851  35.2335405  66.9955444
 105.3729725  35.1190972  66.0817814 104.3602657  34.6509600  67.1046448
 109.7657967  31.3191652  48.3878183 110.6384850  30.9894180  48.6020947
 109.7292328  31.2962842  47.4315882  84.5210648  43.3464336  65.1098347
  85.3252506  43.4618092  65.6160021  84.7806931  42.7982235  64.3693686
  98.6230946   1.9166116  53.8705301  99.2165852   1.1865650  54.0467119
  98.4048462   1.8292975  52.9426432  11.7351487  18.7387609  50.6216860
  11.8700555  19.2806649  51.3991022  12.2721627  19.1519511  49.9455786
  88.6903095  35.2547693  73.1216764  88.7335968  34.5093632  72.5227404
  88.1416035  35.8947635  72.6682854  77.4693584  67.8376627  79.1682577
  77.6168251  68.7758017  79.2881775  77.8991079  67.6318455  78.3380842
 107.5467873  40.3787661  51.6283274 108.3181381  40.1035738  52.1238136
 106.8107033  39.9724674  52.0858669 102.7642536  45.3833008  80.8930683
 102.4913883  46.1338663  81.4207363 103.7019825  45.2978134  81.0651016
 107.8593636  59.3729973  58.4293747 107.6652622  58.8190126  59.1854525
 107.0053577  59.5443869  58.0324841 108.7601471  35.1674294  58.6396742
 109.0060234  35.5842638  59.4655228 107.8724766  34.8425174  58.7903452
 107.8570652  14.7095919  59.7236681 106.9642258  14.5675504  60.0381279
 107.8915405  14.2498398  58.8848162  17.3667958  79.4337320  60.9064388
  17.4269155  80.1119137  60.2336168  16.4597753  79.1312408  60.8612442
  79.8394012  59.3238688  78.8607597  79.0573692  59.8353386  78.6532593
  80.5569363  59.8059845  78.4497404  21.4619354  95.9962391  22.8510094
  22.3280147  95.6819700  23.1105614  21.1612896  96.5140127  23.5978317
  95.8264065  33.7496710  89.2052746  95.1014328  34.0518665  89.7523785
  96.2484455  34.5533395  88.9015675  11.1539605  54.2703390  77.4103165
  10.2926400  54.6147966  77.6463223  11.6593412  54.3122435  78.2221508
  45.6043056  98.1959413  14.3519115  44.7357658  98.2086633  14.7540379
  45.5000976  97.6479553  13.5740376   8.1135514  91.1843014  60.2479410
   7.4517873  90.7015896  59.7526741   7.6134446  91.6781616  60.8977365
  74.3331575  33.5884333  80.3650475  74.0583277  33.6260748  79.4489241
  75.0345898  32.9372358  80.3781223 102.9445457  18.4082568  45.8141947
 103.5978794  18.3409345  46.5105152 102.9625034  19.3301463  45.5572319
  93.3172226  33.6329842  51.9405127  93.1735420  33.3456635  51.0388327
  92.4545765  33.9187741  52.2411728 105.4640293  10.0009823  30.5340028
 106.1514854   9.7190356  29.9305677 104.6486378   9.7332782  30.1100826
  53.9696746  18.9210694   6.4205647  54.5824008  18.8699906   7.1541691
  54.5046191  18.7370007   5.6484318  13.3136418  29.4987893  41.7515326
  12.3884633  29.4618130  41.5088129  13.7587979  28.9851761  41.0775375
  93.0917263  55.1300907  77.4605894  92.3030567  55.5751228  77.1504688
  93.6665249  55.1005936  76.6957569   5.9242490  84.6717072  74.3460512
   6.8661931  84.5435524  74.4580603   5.7543424  85.5370712  74.7182178
   1.7876294  46.0736227  80.7847309   1.6094068  46.4173508  79.9093390
   1.2936071  46.6458321  81.3718891   0.7924703  69.1276884  64.6098375
   1.4232686  69.4566154  65.2502489   1.0513547  68.2177401  64.4642115
  89.3780518  39.7898316  90.6134319  88.7064934  40.3455067  90.2178764
  89.9164677  39.5029211  89.8758507  87.7449846 101.2658944  45.9320068
  87.1128034 100.7038396  46.3799763  87.2087716 101.8466454  45.3921652
  13.1673864  58.5454082  84.7247124  13.0282357  58.2309866  85.6180286
  13.6691144  59.3536615  84.8307037 102.3484898  53.3375692  58.5131741
 101.9935894  52.6989698  59.1316175 102.9591942  53.8603592  59.0327597
  95.9170437  53.3044481  73.0162954  96.7699528  53.0329037  72.6771259
  95.8272171  52.8324986  73.8441992 100.7254028  29.8352766  86.5756607
 100.0575447  29.3527222  86.0884762 101.1719990  29.1672182  87.0957375
  52.3246288  27.9373312  74.6758223  52.4512053  26.9992375  74.5337343
  51.8090057  27.9902649  75.4805374  99.7931004  63.0105495  53.7350464
  99.0918064  63.1879187  53.1081820  99.5175076  63.4572887  54.5354891
  92.6949406  21.7778635  45.8145142  93.1033134  20.9528375  46.0768080
  91.7546082  21.6098571  45.8760309  86.3037586  19.2203104  84.6714687
  86.3942909  19.9115145  85.3274250  87.1973991  18.9097667  84.5258617
  94.2015553  26.9938517  82.4347210  94.2131233  26.0587859  82.6390457
  95.0785065  27.1761107  82.0971298  38.1738618   8.7397635  41.4879322
  38.3278325   8.1993639  40.7130194  37.3112062   9.1279411  41.3416767
  26.3847116  78.4563112  13.4624290  25.6113771  78.1906033  12.9648411
  27.1164659  78.0367231  13.0099738   7.2338632  29.5498037  81.1172199
   8.0976155  29.9517417  81.2099743   7.4142507  28.6651158  80.7993793
  95.9232330  62.8297997  85.1852894  95.1529598  62.4868059  84.7322273
  96.2110519  62.1100569  85.7468605  95.5849838  31.9643545  33.4623647
  95.1308727  31.1227036  33.4219599  95.5991554  32.2726035  32.5562668
  95.5842113  48.6111450  56.6541529  95.5489159  48.3931017  57.5855207
  94.7631454  48.2721853  56.2975216  81.7835712  46.0478973  61.1265755
  82.0621395  45.9909058  62.0405722  81.8706703  45.1547480  60.7935095
  96.6215611  22.1668744  61.2904406  96.8121052  22.3075843  60.3630114
  95.7138729  21.8633556  61.3050985  63.4745841   0.2154868  12.9586792
  64.3299155   0.2312176  12.5292683  62.8968577  -0.2115829  12.3261642
  33.2639984  64.1695570   6.6357327  32.5980953  63.8132654   7.2238350
  32.7891163  64.7925256   6.0856152   8.7323812  33.9952135  61.0417080
   8.1951764  33.2043767  60.9945297   9.1213658  34.0728521  60.1705647
  82.4162769  43.0563354  91.1043644  83.0034637  42.3551178  90.8219814
  82.9937840  43.7044573  91.5076733  13.8430074  56.0706472  66.0289478
  14.1944268  55.1805925  66.0057020  12.9019979  55.9532928  66.1591434
 105.8728981  23.7709093  78.0184031 105.6050968  22.9518652  78.4351540
 106.2515354  24.2885685  78.7289619  16.9400457  28.7057829  91.2055111
  16.3680795  27.9776621  90.9627628  16.5668443  29.4637918  90.7556534
 109.3893909   9.8153919  73.4645462 108.4487915   9.7203559  73.3146620
 109.7538757   9.9891186  72.5966740  95.4876041  62.3754454  42.0090055
  94.9163437  61.6076994  41.9874907  96.3609600  62.0196342  42.1729517
  19.0591577  49.4080591  54.6505547  19.2210916  48.9673424  53.8164186
  19.2123845  50.3346348  54.4655895  27.4611428  30.9327102  67.3479700
  27.8807691  31.3863182  68.0789852  28.0967858  30.2684236  67.0816755
  90.2376270  32.9058504  54.0122747  90.4060078  31.9642091  53.9777803
  89.5200157  33.0436420  53.3939886  98.0404663  32.7881646  61.7057514
  98.8736153  32.7541947  61.2357092  98.0808449  33.6031389  62.2061729
  94.2792086  16.3426345  23.8040447  94.3897681  16.9669621  24.5211411
  94.9740367  16.5643780  23.1841564   3.7375024  51.3914394  45.3299522
   3.8271764  52.0922756  44.6841812   3.4606412  51.8373251  46.1304331
  79.9094105  49.7458315  73.4721565  79.9245071  49.7959566  74.4279242
  79.1394186  50.2543974  73.2177782  86.7412186  32.8722668  73.5704803
  86.3943195  32.0110583  73.3376503  87.6768398  32.7243543  73.7082434
  94.0422916  63.6371231  59.5869017  93.4878731  63.0459261  59.0776539
  93.7381744  63.5334301  60.4885674  97.2609997  82.9471874  21.8881941
  98.0828571  83.3580017  21.6198587  96.5812588  83.5418415  21.5710640
   2.5275472  45.5865908  25.1641273   2.3870900  44.7945213  25.6829071
   1.7954877  45.6020594  24.5476222  21.2886861  74.7995758  76.6321659
  21.1868909  74.0431261  76.0545349  20.4730371  74.8306131  77.1321487
  74.8280096  33.2978821  74.7024918  74.5459986  33.3902597  73.7924576
  74.3898964  34.0136743  75.1628447  92.9257870  60.5475712  74.5180416
  92.9440689  59.6992397  74.9610233  92.4734211  60.3767061  73.6919641
 103.0167961  39.6970153  40.6066322 102.1649933  39.5993400  40.1810503
 103.2806492  40.5960655  40.4108810 104.9812412  46.9244242  73.7940121
 104.9907017  46.0022449  74.0503979 105.3454781  46.9306707  72.9088449
  52.5856446  89.1985792  79.6837091  51.6955518  89.4190377  79.4091702
  53.0526876  89.0262204  78.8661528 109.0822697  10.0929761  47.5017262
 108.3811188  10.2159715  46.8618155 108.6851406   9.5637643  48.1934261
  92.4454498   5.9998417  83.9294434  93.3685398   6.0756367  83.6878109
  92.0438862   6.8021536  83.5958576  88.9166737  48.3529758  80.5839920
  89.0652561  48.5191441  81.5148735  88.8094330  49.2229843  80.1995277
  85.4477024  40.4209042  57.7526855  84.6376419  40.4950619  58.2571983
  86.0741329  40.0296879  58.3615923 109.2856216  44.8730946  71.2330961
 109.6617603  44.8211861  72.1117640 109.2340469  45.8111382  71.0496664
  93.1112003  70.1457739  36.0308933  93.4421921  69.3412209  35.6316781
  93.4305573  70.1146364  36.9327092  97.6372051  82.9981232  47.4943542
  96.7445564  83.0867577  47.8283501  98.1889439  83.0220222  48.2761765
 109.3724155  53.6847210  51.0902548 108.4212017  53.7281561  51.1879015
 109.5446682  54.0896463  50.2402020 102.1521473  34.4939184  77.6093340
 102.5480652  34.4892550  76.7378616 101.4159775  35.1011348  77.5347090
  92.0452690  43.1780291  41.6753435  92.2553444  42.7916288  42.5255203
  91.6848469  44.0393448  41.8862009  20.0763753  66.5593100  70.1421547
  21.0216573  66.7006922  70.0904322  19.7345784  66.9244432  69.3260145
  21.9330171 103.3193588  63.2152176  21.6519406 104.0273380  63.7948656
  22.7904180 103.5987568  62.8942204  68.4166145  49.3283463  84.6085453
  68.1057787  50.0472832  84.0583229  67.8412485  48.5947466  84.3917179
  21.2062123  76.4647675  72.6589155  20.8372930  77.3196030  72.4366808
  22.1379617  76.6347075  72.7974844 106.3197041  71.1261797  31.6994667
 106.5715981  71.5602827  30.8843994 106.9826603  71.4018917  32.3324752
  87.0533085  44.9017572  63.5254860  86.6321564  45.5736876  64.0615511
  86.7931843  45.1128769  62.6288271  27.7616838  34.8789501  52.7257872
  27.5077680  34.8596787  51.8030787  28.2561353  35.6929851  52.8211880
  94.5833874  32.6171613  74.8136711  94.5533562  32.2390819  73.9348125
  93.9398766  32.1142435  75.3128719 109.3394947  34.5684409  64.9309635
 108.9557362  34.0612984  65.6463480 108.6645412  34.5738387  64.2522573
 109.7145844  28.1337881  76.7108870 109.1287231  27.4781799  76.3325071
 109.1302681  28.7538743  77.1471167 110.5646992  71.7872810  65.5110836
 110.9739685  72.3463678  64.8506689 110.9772491  70.9320879  65.3899193
   5.3075364  50.2594900  50.5395651   5.0051835  50.0120306  49.6657324
   6.2532189  50.3716564  50.4429483  96.2720299  49.8575306  42.4657011
  95.4267216  49.7185183  42.0386696  96.0496140  50.0891161  43.3674431
 105.4003620  77.2873974  80.1954556 106.3003445  77.5409079  80.4003716
 104.8595619  77.8998375  80.6941414  17.8245023  54.5301533  52.9757452
  17.5964597  55.4034948  52.6571465  17.0246556  54.2113209  53.3938694
 100.3478909  37.9115248  20.1988959 100.9208965  37.2137237  20.5166531
  99.9531555  37.5537920  19.4036305  13.8247541  57.3831558  73.9621830
  13.8380864  58.3387041  74.0167999  14.3176988  57.0924950  74.7294903
  10.8476689  53.8917255  58.3087397  11.1556581  53.3480453  59.0338516
  10.3493455  53.2914448  57.7541447   5.5122903  54.3617249  62.4396467
   6.4605764  54.3123913  62.3190355   5.2801374  53.5311270  62.8549051
  99.0058613  39.8318291  67.4628353  99.9476147  39.6607208  67.4707699
  98.8609123  40.3367758  66.6626787  26.1844304  17.3886395  78.7640238
  26.0172513  17.8922772  77.9673862  26.7160657  16.6481197  78.4720850
  15.6851819  31.1935163  51.4879751  16.0833600  31.2330723  52.3575306
  14.7508290  31.3285637  51.6460323  94.1694927  60.0555182  27.8549409
  94.7291946  60.8229733  27.7367187  94.0370655  59.9991417  28.8012600
  12.5366834  75.3177595  39.9329495  12.3373273  75.5279112  39.0206337
  13.4709981  75.5052328  40.0232601  75.6732035  54.7106028  27.2442722
  74.8969698  54.5425320  27.7785444  75.9931040  53.8404226  27.0061970
  28.1003144  74.2063236  59.6044159  28.6121896  73.8573265  58.8747501
  28.7212422  74.2541742  60.3313255  23.1996587  38.0198383  29.0833879
  23.4062627  37.1804333  29.4944191  22.6554349  38.4739947  29.7266483
   7.1701387  74.0240431  44.2478037   7.2848561  74.4635487  45.0903606
   6.9513276  74.7286320  43.6379576   2.6672700  48.6440420  59.4620275
   1.8762544  48.3842802  59.9343014   3.3295396  48.7512302  60.1447773
  93.9037800  47.2136497  50.4994822  93.8060951  48.1658506  50.4989147
  94.1212749  46.9957304  51.4058113 104.7828484  24.8906660  64.4144821
 104.0486908  24.7000504  64.9983549 105.2519512  24.0595937  64.3403530
  96.0405159  27.3427558  49.3386030  96.0944843  26.9536662  50.2114868
  95.6719208  26.6503000  48.7900782  74.7790770  19.3893473   7.4863243
  75.3931193  18.8425295   6.9962406  75.2908568  20.1583045   7.7373695
 105.1945210  53.5661793  43.0123711 104.8473835  52.6889992  43.1744528
 105.2951241  53.9487839  43.8839912  90.8013916  30.0468230  62.3002863
  90.2190781  30.3684545  62.9885387  91.0621834  29.1744328  62.5955057
  13.5922769  76.5112352  69.0033340  13.8336328  77.3459387  69.4048929
  13.4059671  75.9341526  69.7439432 109.2831039  54.6134949  54.8169708
 109.5101833  55.5005503  55.0958967 109.8387909  54.4525766  54.0543795
   3.8513425  39.4939089  77.5025940   4.3361524  40.0509501  78.1116104
   3.1084779  39.1711640  78.0127096 105.2164364  86.4044571  64.3560648
 105.6342220  85.7723427  64.9409771 105.9312344  86.7375469  63.8135290
  25.2271561  76.2148260  14.9719906  26.0662273  76.4545916  15.3653049
  24.5714954  76.6053461  15.5497742   3.0190137  42.3852110  77.4808884
   3.5995916  42.5592184  76.7400217   3.6046270  42.0998430  78.1822205
  68.4843020   6.5436213   5.6840038  69.1236071   5.8365481   5.7710171
  68.7463050   7.1859210   6.3435745  18.1471208  33.6551380  52.2834063
  17.3209909  34.0857673  52.5031805  18.5362580  33.4370542  53.1303072
  99.5178604  58.1678677  71.9518995  99.3857288  57.2336864  72.1133947
  99.7623348  58.5262108  72.8051567  93.5734749  66.9308901  57.7125263
  93.4766483  66.5514278  56.8391037  93.0821419  66.3420439  58.2853079
  10.6530812  58.2476282  65.4710340  10.6472448  58.8925886  66.1782980
  11.4752153  58.4077263  65.0076771  88.1603527  44.4969463  46.8837738
  87.8396893  43.6721039  47.2485256  89.0862274  44.3349457  46.7028427
 107.6268101  97.8036404  35.8104682 106.9780064  97.7866745  35.1069021
 107.1787453  98.2331467  36.5391564   7.4376825  78.3999157  57.4987459
   8.1537870  77.8462362  57.1875000   6.9066766  77.8202200  58.0448389
  90.7076836  27.8046513  73.8855839  90.1441383  27.0487738  74.0507841
  91.5928364  27.4870372  74.0640879  34.6407846  37.7694392  53.2053328
  34.3465188  36.9952869  52.7254057  35.5610135  37.5939822  53.4018278
   9.7131208  62.7984571  68.1710911   9.6059659  62.6605034  67.2299671
   9.2421773  62.0696354  68.5751486   8.7081197  63.2262373  85.9699345
   7.9311708  63.0410433  86.4974594   8.8212827  64.1744995  86.0349083
  75.7147503  62.1713734  51.2066364  76.0395384  61.8011522  50.3858614
  74.7629547  62.1800613  51.1054039  26.5889458 102.6727842   4.3000507
  26.6248135 103.0983423   3.4433937  25.6594852 102.4903701   4.4381332
  18.9120916  69.1508913  76.2430334  18.7056783  68.6241531  75.4709148
  18.9939645  68.5137844  76.9527006  83.3203697  88.3547592  42.3149967
  83.2018280  87.7639675  41.5712547  83.8085175  87.8379440  42.9559708
  14.8226979  53.3771420  66.0535145  14.5519593  53.4251070  66.9703722
  15.2874234  52.5431919  65.9843206   0.6801179  41.8972111  90.5951500
   1.0535768  41.1085176  90.2018070   1.4168504  42.5049925  90.6588459
 110.2806091  20.6800699  62.4000978 111.1382580  20.2934384  62.5767040
 109.6799183  20.2015018  62.9713917  84.8693466   6.7816383  57.0728159
  84.8172188   5.8812249  57.3933935  85.2252960   7.2780353  57.8097820
  20.4944661  71.6972971  53.6891985  21.3252786  71.5772533  54.1491795
  20.6367734  72.4637890  53.1337976  27.9948381  21.9045401  35.5508900
  27.7531579  21.8145418  36.4726949  28.1236413  22.8450108  35.4277730
  49.5218705 101.0389921  29.7686100  49.9137544 100.1809650  29.9312472
  49.4100999 101.4202055  30.6394792  11.5601304  27.0294881  78.7613058
  11.4641717  26.2000608  79.2293596  12.4053434  26.9578266  78.3177853
  72.6717996 101.6884005  75.3826523  71.9785642 101.5528863  74.7366667
  73.4570836 101.8523195  74.8604536 111.4391232  49.6317196  27.2416449
 112.2245884  50.1718473  27.1547699 111.6754818  48.7981224  26.8348432
   4.9020723  30.7924891  30.7912946   4.8725846  30.3277493  29.9550056
   5.7426026  31.2503529  30.7813597  86.1059284  28.8692355  54.2587471
  86.3330555  28.8177562  55.1871872  86.7473602  29.4756484  53.8885260
  75.8332205  25.7752585  43.0148554  75.0230694  25.6614971  42.5179243
  75.6458902  26.4956164  43.6167049  82.1187401   8.3256030  51.2822104
  82.1260548   8.9673638  51.9923687  82.6741314   7.6127625  51.5978479
  77.8794718  30.4977489  64.0990162  78.5085773  31.0263395  63.6080456
  77.1816063  30.3112602  63.4709740  46.8610195  72.8100561  13.8870430
  46.5259174  72.8901719  14.7800827  46.0768894  72.7764391  13.3390999
  90.2548695  35.8299494  37.7204633  89.7138309  36.4443183  38.2165098
  89.7223759  35.0368524  37.6597762  68.9274835  87.6795584  77.7952623
  68.6442708  87.3278349  78.6392498  68.7585592  88.6195963  77.8586864
  97.0807457  16.6132724  69.0005970  96.4380074  16.1269069  68.4843063
  96.6481686  16.7641723  69.8410320  97.6387501   7.8785050  60.2459764
  98.1246471   8.6879522  60.4038763  97.6401806   7.7801472  59.2938423
  13.3079961  22.8192592  66.4043331  13.3971265  21.9175386  66.7128611
  12.5960973  23.1832099  66.9306087   6.1002496  40.6810284  60.3117752
   5.7216886  41.5220547  60.0556612   5.3463796  40.0999403  60.4130363
  49.2979001 101.3135841  57.6147509  50.0244092 101.3752129  56.9945765
  49.7192334 101.2004724  58.4667587  86.0935688   9.3670905  46.0809755
  86.8934250   8.8711447  46.2556314  86.1202812   9.5410943  45.1401043
  99.5217419  18.9270771  67.5523663  99.9679184  19.0758848  68.3860445
  99.9769306  18.1781650  67.1674395  63.8885831  92.3004085  67.3786068
  63.7667894  92.2600680  68.3271694  63.0286168  92.0854729  67.0173550
  92.4255371   0.7868542  36.6332579  91.7054081   0.9140396  36.0156274
  92.8622437  -0.0095861  36.3312626  69.4392442  78.0842238  59.2148542
  69.9880075  78.7133533  59.6831417  68.8725900  77.7113753  59.8902178
  90.4683685  29.9913859  53.6401749  90.6459427  29.5832753  52.7927399
  91.3064289  29.9597454  54.1015625 103.9110565  22.9350328  86.2205505
 104.7958565  23.2607126  86.0553741 103.7285423  22.3528504  85.4829979
  92.7999783  41.7515278  81.0272694  93.0465889  41.7985773  80.1035786
  92.0992279  41.1000633  81.0551929 105.1676559   0.3743938  63.8643789
 104.3163300  -0.0531152  63.7710953 105.0702477   0.9370100  64.6326256
  86.5179348  39.9697971  68.9501524  86.5919113  40.5376005  69.7171974
  85.7779694  39.3956280  69.1476583  16.2727979  38.2425857  84.2433262
  16.9305947  37.7615261  83.7412167  16.7785695  38.8635492  84.7675800
  15.4549268   1.4604884  38.4378362  14.5876363   1.1608911  38.7103605
  15.5148843   2.3556527  38.7714791  86.5430069  53.7472010  67.7191019
  87.4132729  54.1089058  67.8865290  86.6801357  53.1063652  67.0214224
  16.8956044  30.9133220  67.2624350  17.2352842  30.1874852  66.7389727
  16.4935544  31.5018225  66.6234875  99.0841484  24.2623591  52.5955439
  98.5291290  24.1452622  53.3665657  99.9764252  24.2717361  52.9419279
 101.6775608   0.5056679  65.5056620 102.0703888   0.0058822  64.7900248
 100.8791447   0.0247641  65.7236099  98.0437374  49.1101742  50.1832390
  97.7928734  49.9699974  50.5208921  97.2578716  48.5735893  50.2867842
 109.9574089  28.6254811  73.1421471 110.5165768  27.8493428  73.1764030
 109.8926926  28.8330960  72.2099829 105.1966000  51.4193773  58.2210970
 105.1109791  51.6630602  57.2994041 104.4065475  51.7667484  58.6350727
  92.1469116  34.3247700  58.2990170  91.7463112  33.9944482  57.4948788
  92.3821354  33.5376406  58.7902689   3.7178472  23.9000773  33.6854982
   3.2509378  23.0669975  33.6206341   3.0409101  24.5646286  33.5575771
  99.7347832  21.4359903  46.2735844 100.0810719  22.2148538  45.8380556
  99.6222687  20.7977533  45.5691528 106.2638187  18.5750163  43.8036871
 107.1677494  18.6972904  43.5135412 105.8045101  18.2540584  43.0276346
  92.4823761  12.3390317  65.5112600  92.1000290  11.7405593  64.8694897
  91.7304516  12.6941991  65.9852743  93.8057709  19.1436267  61.9972515
  93.6223316  20.0471735  61.7399931  94.0695477  19.2048490  62.9153538
  54.7363424  86.1611241  77.7739668  53.8881158  86.3231545  78.1868649
  54.9809217  85.2829128  78.0657911 104.7700882  14.5894420  38.6471963
 105.0044918  13.8427520  38.0960703 105.6010628  14.8797834  39.0232468
 108.3729076  19.4915700  63.8711882 107.7259445  20.0016379  64.3585253
 107.8639030  18.7990093  63.4498787  95.4047966  40.8827496  56.8235064
  95.2177143  40.8860874  57.7622414  96.2990665  41.2174129  56.7563105
 100.0406075  21.9494724  87.3986912  99.8339462  22.1379447  88.3141136
  99.3487549  22.3864675  86.9020844  54.6388101  99.5728934  33.4517932
  54.0549516  99.7909862  32.7253151  55.4285001 100.0882584  33.2874179
  91.8462563  52.1730328  56.1156750  91.2381649  52.0687342  55.3838444
  92.5944901  51.6221142  55.8857393  12.8722718  38.0300689  20.3049755
  13.0771878  38.2390571  21.2163281  13.6594823  38.2772303  19.8197389
  75.0656939   9.4634932  42.3092079  75.9057045   9.2473286  41.9043779
  74.8207092   8.6725891  42.7895021  43.0419544  59.3543290  15.1155281
  42.2077850  58.8908290  15.0409508  43.3973316  59.3523978  14.2267513
  -0.0405928  15.8181119  73.3474970   0.2912000  15.3140175  74.0904856
   0.5157331  16.5965056  73.3186054  88.3968067  31.0621357   0.8337835
  87.9803467  31.5707207   1.5295812  89.2621994  30.8453727   1.1806968
  91.0214806  16.6022849  59.1768837  91.8437672  16.4317453  58.7175417
  90.7155323  17.4356306  58.8188887  65.7269906  75.1531130  34.4563317
  65.1331472  75.8545428  34.7238851  65.1491784  74.4291788  34.2148972
  64.5450258 104.8190708  51.1571121  64.3488454 104.2903644  50.3836679
  63.6948728 105.1580013  51.4374781   3.5972264  10.9952772  24.9774742
   4.3207696  10.5082321  25.3718233   2.9396108  10.3285801  24.7792792
 109.9450016  71.8873549  73.0487919 110.2059460  71.2572098  73.7204027
 110.6564999  71.8638277  72.4089146  20.6292012   3.3722648  31.1087394
  19.7421506   3.1088740  31.3536811  21.1399129   3.2694846  31.9117594
  81.9554615  31.7971253  61.5760279  82.5556374  31.5721393  60.8651114
  82.3086452  32.6090431  61.9397306  10.9636071  38.6546803  43.4754658
  11.3486436  39.4380188  43.0825853  11.3571122  37.9270458  42.9938745
 104.9703217  12.1996367  46.6740704 105.7831192  12.3395729  47.1598673
 104.4752693  11.5792644  47.2091341  37.0543956  97.5929904  80.3201485
  36.1271857  97.7960819  80.1966190  37.1704005  97.5715548  81.2700558
 100.2693558  36.3810182  66.3663054  99.4968605  36.5174103  66.9148397
 100.1190090  36.9335246  65.5992508  25.2076963  30.6571651  40.8167887
  26.1049131  30.5703473  40.4947567  25.2408460  30.3199053  41.7119932
 100.3008556  16.6065001  54.4692278 100.0812531  16.6346157  53.5379839
 100.5080032  15.6875014  54.6388197  29.0950444  21.2077665  42.5817060
  28.5094789  21.8650603  42.2058058  29.5753816  20.8577800  41.8313599
  98.8175106  40.2300644  64.4448042  99.2335415  39.9217248  63.6397696
  98.3675385  41.0351467  64.1886902  88.5136890  85.4352283  32.3456860
  88.6267853  85.7154942  31.4374518  87.5659180  85.3608894  32.4571514
  12.9868177  37.0799541  31.5935063  13.8084844  36.6429090  31.8173051
  13.2266381  38.0003691  31.4860225  99.5017529  20.5856276  91.1231422
  99.2768192  21.0768294  91.9133091  99.4037247  21.2184596  90.4117012
  97.2399521  37.8068256  33.4100676  98.0446720  37.3078132  33.5501742
  97.0440865  38.1904101  34.2648959  14.4537786  25.0100493  27.5405931
  14.6545175  25.7101202  28.1617498  13.5944226  24.6877980  27.8124237
 101.2637997  58.5739422  49.2819500 100.8966446  57.6957417  49.1809702
 101.5679264  58.6035490  50.1890707  87.3336792  17.0569301  58.4446239
  87.3132610  16.1676514  58.0910730  88.0936146  17.0659196  59.0265656
  90.8202648  50.1264286  49.9117088  90.5850315  51.0187912  50.1658344
  91.3843918  49.8164749  50.6201744   6.6955903  36.9602704  55.1100206
   6.4891198  37.5024652  54.3486881   7.3705533  36.3572025  54.7986174
 101.7268805  28.8476460   1.5875053 102.5732474  29.2029755   1.8588734
 101.3557486  29.5214741   1.0178947  85.8428860  51.4671993  24.5925331
  85.3625488  51.3430214  25.4111195  86.6934013  51.0569763  24.7493052
 100.3544331  29.9809933  61.9680214 100.7010841  29.4205213  62.6622343
  99.7116566  29.4336867  61.5168762  87.2659683  46.6332674  53.4928703
  87.4028873  46.1918449  52.6546431  86.6983223  46.0407066  53.9857054
  83.0075836  17.4739480  39.1314030  83.6402512  16.9234884  38.6699319
  82.2763252  16.8874860  39.3252301   1.8265298  45.9922028  70.0731516
   2.7573636  46.1378431  70.2421999   1.3808778  46.4130211  70.8083630
  89.3608761  28.5145116  89.7808552  90.0656986  28.2364178  90.3657627
  89.4601822  29.4646621  89.7209740  13.2405999  23.2244778  15.0793850
  12.8024820  22.5110555  15.5434144  12.5263646  23.7674308  14.7457516
  10.8110479  49.3365622  25.0151896  10.2114823  49.3970680  24.2714882
  11.2550595  48.4968281  24.8971748  73.7555981  27.7177715  78.1841135
  74.6877098  27.8631210  78.0220032  73.3934021  27.5041699  77.3242188
  11.1752561  21.0490513  74.4674444  10.5035737  21.1204147  73.7892246
  11.8512490  21.6724157  74.2015934 106.3958931  39.0519714  61.6507101
 106.2528896  39.5549273  60.8489513 107.1891022  39.4288039  62.0315647
  38.2105068  98.5322546   3.8272572  38.8323025  97.9123424   4.2084503
  37.5338367  97.9813694   3.4337139 100.2165699  62.8543282  30.0142241
 100.5067730  62.3289728  30.7598853  99.3719292  63.2121897  30.2876234
  13.0312303  49.6663141  66.5847111  13.4344056  48.8761806  66.9443941
  12.5890687  50.0706577  67.3311901  95.9762001  30.1341629  28.0981708
  96.2169266  30.8956981  27.5705838  96.5856647  29.4494772  27.8225040
  23.7144712   1.2724067  63.4147644  24.5592263   1.1499416  62.9815960
  23.4424546   0.3889695  63.6633110  17.6451638  29.3871117  44.4976854
  17.4654439  28.6118674  43.9657688  16.7810205  29.7508240  44.6905613
  19.9385789  41.4719200  51.9682121  19.6859601  40.5999231  51.6648340
  20.1531652  41.3508701  52.8931618 109.9322510  42.9844141  55.4711437
 109.3258095  42.9362297  56.2101603 109.3697739  42.9526711  54.6972895
  95.1919365  61.7949581  78.6699152  95.0641727  62.0261335  77.7498770
  95.7647991  62.4812889  79.0119934  80.5693531  37.3495412  71.1234236
  81.2001991  37.0107293  71.7586088  80.8008862  38.2731032  71.0251665
 106.5141869  15.3225815  29.7461510 106.0956287  14.7806203  29.0773320
 107.0506096  14.7101283  30.2495193 109.3246937  32.8397131  23.8926744
 109.8317337  33.6378956  23.7442303 108.4661102  33.0273628  23.5133886
  21.3963464  19.2213655  46.9823933  21.6262677  19.6771812  46.1727047
  20.4607823  19.3897581  47.0946646   1.0069277  91.8392116  52.4354410
   0.8627512  91.4213222  53.2844496   0.8635714  91.1404651  51.7971325
  87.2553730  24.3496275  18.4258592  86.5127659  24.4411421  17.8288674
  86.9504166  23.7372255  19.0953386  96.7352104  14.6047580  53.9431906
  95.8998585  14.2147171  54.2006493  96.5020466  15.2537453  53.2793570
  22.0970872  37.1314478  34.5820332  22.3174909  37.8397298  35.1870036
  21.4272550  36.6243815  35.0407696  40.5694488  66.3980006  11.6847324
  40.7295421  65.5533205  12.1055889  39.7813038  66.7330562  12.1122742
  90.4943562   3.5931110  54.5355272  89.6558380   4.0527508  54.5784473
  90.4425907   3.0748737  53.7324190  87.7524090  33.0815220  88.9378738
  87.1586132  33.7854171  89.1989708  87.3915100  32.7574682  88.1126595
  89.7371864  49.9229622  68.5410690  89.5502472  49.1152906  68.0625820
  90.5179596  49.7207260  69.0565443  17.1182492  23.5002732  75.5408764
  17.5333360  22.8285122  74.9998856  16.9581750  24.2272568  74.9391270
  98.8590813  50.4857779  44.8010206  99.5443153  50.4852772  44.1326761
  98.5890484  49.5698929  44.8678684   9.4612077  36.6375327  76.9075727
   8.8559201  37.2821259  76.5410280   9.1607812  36.5115690  77.8076315
 110.2470779  73.3851528  48.1220865 109.6415997  72.6463795  48.1841087
 110.6544495  73.2893372  47.2612143 103.2916832  59.0954494  51.4319372
 102.9708672  59.1314745  52.3330545 104.1322994  58.6419964  51.4949179
  71.1802197  17.2168696  48.4149694  71.7103100  17.9966486  48.5798216
  71.6454315  16.7539108  47.7182055  14.6260694  44.1704845  50.1063204
  15.0441602  45.0013447  49.8802567  14.0484002  43.9838791  49.3662500
  23.1652787  31.4658189  50.5444717  23.1915620  30.7207775  49.9440956
  23.2966092  31.0801768  51.4106512 103.2501698  21.5037489  45.2734852
 103.7730122  21.8038774  44.5299864 103.7771702  21.7243695  46.0414886
  18.3385804  13.7296188  47.9451466  18.4406236  14.6717656  47.8103209
  19.0768674  13.4862447  48.5036564   9.1993859  13.0372572  75.1572704
   8.4409288  13.6195445  75.1134205   8.9320996  12.2586060  74.6689129
  94.3828869  32.0597863  61.0300064  94.9595642  32.6107383  60.5007458
  94.9388790  31.7474198  61.7438221  83.3331776  38.5046411  49.1121244
  82.9934883  39.3679500  48.8764572  82.5528240  37.9595780  49.2130423
   1.2950853  53.6434078  91.2467384   1.7314580  54.4269466  90.9122467
   0.6585458  53.4159899  90.5690002  22.2443822  60.7947397  28.6304879
  21.9373754  61.5802860  28.1778288  21.9905809  60.0725508  28.0558062
  89.4177532  44.3046951  73.2047176  88.4654617  44.3645859  73.2807684
  89.7040462  43.9566422  74.0491819  73.1505822  75.9619266  80.6999493
  72.7512311  75.1672154  80.3461266  74.0907144  75.8345657  80.5728626
  39.6484564  50.5380563  85.3326273  38.8971327  51.1027482  85.1513380
  39.2809103  49.7983183  85.8162898  94.0932466  44.4818394  58.9000702
  93.1399216  44.4688218  58.8150215  94.3235911  43.5872262  59.1507339
  97.4043962  67.9333973  68.7497520  98.1481311  67.6551390  69.2842245
  97.5248989  67.4784327  67.9162550 111.5117051  30.8640854  23.3992577
 110.6067373  31.1564343  23.2906532 112.0394136  31.5887063  23.0635738
  41.7339263  85.8971904  13.9488888  41.8831248  86.3069247  14.8009968
  42.5475282  85.4285453  13.7627316  17.7521086  83.8808632  87.9299736
  18.5579753  83.5353756  87.5459766  17.3427725  84.3773174  87.2213078
  11.7388777  37.7997582  27.0952034  12.3620419  37.0904820  27.2527409
  11.9011597  38.0644601  26.1897564  45.4895378  92.7019547  47.0704651
  44.5986272  92.6720856  47.4192047  45.4083479  92.3680996  46.1770535
  90.8686198  25.4126065  23.3809567  90.2095260  25.9279339  23.8459969
  90.4609765  24.5549481  23.2606220  93.0356217  95.2161621  29.0235806
  92.2572900  94.8590397  28.5959148  93.7284995  95.1325153  28.3684826
  83.7290819  12.5722497  31.9343376  82.8185512  12.5918238  32.2289276
  83.7755842  13.2451146  31.2551308  79.8144527   5.0957911  35.1334858
  79.0373521   5.4227536  34.6802330  80.3937162   4.7986262  34.4317913
  89.0877248  98.5318826  10.3876209  89.6974231  98.3299755   9.6778774
  89.3682719  97.9714082  11.1110783  54.9719858  54.1493177  87.3541832
  55.2012444  53.2734489  87.0434952  55.3949738  54.2181826  88.2100868
   9.9235968  21.9158118  53.5206318  10.7962756  22.2776930  53.6745930
   9.3347029  22.4983018  54.0003586  26.9119167  72.9314995  81.6195965
  27.6976037  73.4656858  81.5030956  26.3466382  73.4571791  82.1855927
 102.9364516   7.3160212   6.2985516 102.9666378   8.2362979   6.5600967
 103.1133486   6.8318694   7.1051121   0.4932575   3.1922333  50.9112549
   0.1494913   2.3589223  50.5893135  -0.2852745   3.7012427  51.1371613
 110.0342585   3.2411664   4.4516945 109.5077206   3.7081092   5.1004982
 109.9461366   2.3185198   4.6908379  13.9514339  47.3614025  82.9534626
  13.3127546  47.0247889  82.3249626  14.3525219  46.5781546  83.3301449
  85.6352879  14.5844405  11.1460686  86.1268391  15.3594105  11.4181423
  86.1379589  13.8477366  11.4936638   9.1090636   5.4211657  12.0094776
   8.7401347   5.9021227  11.2686634   8.3478264   5.0591509  12.4630165
  18.0893473   4.1233342  18.5678196  18.5381989   4.4485371  19.3482113
  17.8288321   4.9135296  18.0945873  74.1146384  44.0940087  13.1997967
  74.5498816  43.2509129  13.0733013  73.1812321  43.8822549  13.2118702
  12.0932154   8.3019059  25.5937672  12.3478083   8.8535397  24.8540878
  11.4353709   8.8166754  26.0611916  78.4304209  26.1380189  27.0193386
  79.3387337  25.9620469  27.2647667  77.9116584  25.7303612  27.7128315
  99.3693186  22.1959202  34.4612789  99.6393873  21.7194026  33.6762810
  98.4191610  22.0847123  34.4939518  82.4197484  83.4025620  21.2522888
  81.5737248  83.8499521  21.2345505  83.0539752  84.0801715  21.0181141
  94.4337178  97.5251268   4.7912884  93.5861016  97.7425502   5.1792431
  95.0142909  97.3958467   5.5412483  18.6290269  37.4432843  28.8216209
  18.1067805  36.6633599  28.6339760  18.4462027  38.0352204  28.0919456
 106.1298205  18.2383435  19.5913696 106.6706397  17.8732293  20.2916813
 105.5042364  18.8051360  20.0426102 111.7436315  25.5663054   2.9903793
 110.9763505  25.7487338   3.5328102 111.4444329  25.7172053   2.0937538
 107.1035410  23.3247655  27.0862579 107.6983310  23.9230292  26.6339970
 107.5288464  23.1539767  27.9265976  32.1451144  31.5354912   6.8907166
  32.7714066  31.0084908   7.3869705  32.6790528  32.2103779   6.4715862
  97.2534658  33.1498139  69.4807053  97.6720859  33.1955617  70.3403091
  97.7334644  32.4638264  69.0167618  12.7985625   4.6252101  24.9070549
  12.6744609   5.3289788  25.5438709  12.6276641   5.0361388  24.0596104
  82.6538016  15.6940739  24.8628521  82.4873187  15.3837721  23.9727879
  81.7844494  15.7726376  25.2556515  72.5179420  38.4541028   5.6224537
  73.1829773  38.3837311   4.9376106  72.9599933  38.9081948   6.3398266
  17.1330790  16.8793910  50.7432747  17.5063662  16.5252440  51.5504074
  17.3807006  16.2480919  50.0677204  17.1702802  52.6863337  69.3850946
  16.9662547  52.8825903  70.2994776  16.4372730  52.1481276  69.0863276
 109.7993137  16.2755721  29.1073132 110.4501225  16.8714516  28.7363625
 109.0728404  16.2964814  28.4843922  89.0596260  29.1991322  33.2098293
  89.8136522  29.4283860  33.7530804  89.0179981  29.8936837  32.5524902
 111.0806252   4.8902791  17.5080013 110.8613659   4.1277688  18.0434799
 111.9636370   5.1327937  17.7867603 106.6836716  39.7594540  15.7404137
 107.5005771  39.7244637  15.2427483 106.2598754  40.5666249  15.4486847
  71.4171825  10.5645268  14.2330360  71.6591795   9.6525138  14.0721130
  70.4804857  10.5330365  14.4275665 108.1946970  12.6192563  40.3390217
 107.5420476  11.9764369  40.6166172 107.9317261  13.4305661  40.7735920
  56.7350150  76.3386654   4.6417046  56.7183841  76.9885920   5.3442383
  57.5969816  75.9289144   4.7148514 103.4600808  13.7830012  24.2895508
 104.0101172  14.5446293  24.1062069 102.9644348  13.6456006  23.4822750
  35.7597117  21.4946501  26.0109138  35.1268201  22.2122233  25.9831238
  35.8967309  21.2604563  25.0929737  51.1664677  60.7464457  85.0087643
  51.2965012  59.9124718  84.5573044  50.9302902  61.3607597  84.3137264
  25.5538849  20.1318305  71.7368507  26.3033633  20.0437968  71.1479950
  25.7293038  19.5093243  72.4425125  86.9394363  21.6931527   2.8413105
  86.4402534  21.0033076   2.4040890  86.4046575  21.9327681   3.5981655
  84.7069670  27.3497098   0.2633953  85.1641680  26.5364020   0.4772472
  84.2748983  27.1691935  -0.5714512  93.4770012  47.9392672  86.6013622
  94.1879940  47.3626852  86.3215733  93.8861942  48.5385656  87.2255707
   6.9017701  62.3916237  26.7374134   6.6747241  62.8195946  25.9118748
   7.7980427  62.6762002  26.9161510  40.6619458  26.8800109  47.8359795
  40.5253415  26.1304276  47.2565937  40.9767680  27.5751393  47.2581291
  37.9517607  33.2907288  12.7040386  38.0590396  32.4798482  13.2012272
  37.0166354  33.3263390  12.5027752  17.6201300  52.4546998  17.5629234
  17.6359801  52.1331685  16.6614819  16.8374447  52.0577233  17.9450798
 111.1433603  20.4320281  28.7089062 111.3864280  19.5221322  28.5379314
 110.3615095  20.3719800  29.2578506  19.2473845  15.6162350  28.9772129
  18.6629681  15.2252905  28.3277130  20.1245265  15.4959195  28.6133766
 107.7648760  18.4436457  71.5736008 108.5658266  18.9039843  71.8241882
 107.2024919  18.5037463  72.3458290  23.7704949  61.7056077  30.7262230
  23.4453921  61.5372937  29.8417950  22.9805236  61.8319028  31.2517929
 111.2192179  55.6736748  23.8342094 110.5237891  55.4332154  23.2220078
 111.2491561  54.9493020  24.4592094  10.6500535  63.0472367  23.9625645
  10.1714139  62.3680680  23.4873009  10.2013020  63.1110852  24.8056412
   7.5009875  27.0350545  26.4697647   8.3984046  27.3103135  26.2823963
   7.5033431  26.0901921  26.3165855  27.7072816  37.4172967  45.8104992
  27.3398261  36.9402306  46.5545559  28.3476596  36.8147366  45.4322720
   2.8216509  31.6444676  38.0045033   3.4175591  32.3731797  37.8310394
   2.2011308  31.6638558  37.2759342  76.2168606  68.5879414  36.1316776
  76.1856377  68.1610863  36.9878674  75.8810578  69.4699662  36.2913990
  10.9802604  70.7755518  90.0395203  10.1716936  71.2201023  89.7849083
  11.6204667  71.0476923  89.3820190 107.7067567  21.0541146  25.1417923
 108.4753562  20.5652993  25.4359818 106.9796158  20.6785767  25.6382465
  56.1824374   0.7917302   8.9842510  55.7685046   1.0025733   9.8211765
  56.0227065  -0.1447685   8.8672543  79.2693849  20.6207459  -0.1282883
  79.4660376  20.6948226   0.8055592  79.7923024  19.8758547  -0.4248142
  95.6221725  39.5970338  22.6476288  96.2692405  39.1762059  22.0815468
  96.1157323  40.2698319  23.1166363   2.9131751  16.1711066  19.1022110
   3.6384968  16.7475217  18.8616180   3.2926325  15.2923720  19.0937805
  84.7503711  20.2100604  52.2979164  85.2706720  20.4731028  51.5387535
  84.1041560  19.5983880  51.9450760  10.1846366  12.6397269  28.8200283
   9.3106274  12.2683518  28.9401245  10.7769637  11.9792788  29.1794586
  49.3569183  50.3512144  80.7380962  48.8894320  49.9774361  81.4850712
  50.1670980  50.6979704  81.1117363 109.9285460  94.6068023  14.2579937
 110.4316808  95.2322315  13.7365341 109.9948502  93.7835287  13.7742043
  54.0079360   4.6420472  38.9716911  53.1158690   4.8918574  39.2125988
  53.9280562   4.2963927  38.0826569  21.6789155  13.2726328  16.4321232
  22.1869139  13.5663502  17.1883583  21.4807419  12.3549073  16.6185284
  88.3001233  88.6596941   6.8293190  87.5220347  88.4699558   7.3535442
  88.2529212  88.0430506   6.0987377   4.0429644  20.2979558  14.1136456
   4.9601082  20.4902165  14.3088627   3.7632565  19.7194474  14.8230934
  40.4958582  96.2670803  87.5169563  41.2071466  95.6769276  87.7659798
  39.7450829  95.9668541  88.0292320  80.9940822  48.3518975   0.8897209
  80.9192057  49.2556088   1.1962032  80.9354503  48.4166138  -0.0634861
 111.6332436  85.5609344  14.4384003 111.4267636  84.8381542  13.8457966
 112.3248006  85.2169894  15.0038147  45.2214865  25.3253405  12.3311996
  44.7054534  26.0910218  12.5835514  45.6008677  25.5606597  11.4844799
   0.9471588   7.1461766  46.9528198   0.4805212   7.6187079  46.2634754
   1.4705162   6.4954035  46.4850330   5.7749467  51.8688576  41.1250114
   5.1391892  51.8132775  40.4116058   6.2750296  51.0549538  41.0641289
  97.7839757  32.8726571  20.0870991  96.9054748  32.9876320  20.4493809
  98.3594443  33.3194535  20.7079315  32.2271562  97.7003765  90.5584145
  31.7567229  96.8906879  90.3600883  31.6240907  98.3972645  90.2997780
  12.3526196  43.9006226   4.0319729  12.3539261  43.1130688   4.5760250
  13.2188468  44.2854016   4.1654778 106.6855456  17.0521395  39.7451973
 107.5285150  16.5999549  39.7111130 106.5675737  17.4056809  38.8635445
  68.9472558   2.3671668  18.5296059  69.0505309   1.5768426  17.9995537
  68.0365415   2.3413699  18.8231468  10.3993154  86.4297485  86.9733524
   9.6376127  85.9902763  87.3513794  11.1172545  86.2212658  87.5711250
   8.1370883  39.5402711  23.4479618   8.7154727  39.5128815  24.2101669
   7.6216607  38.7360280  23.5093975   3.7129645  41.4887707  13.1361580
   4.2197470  40.6793873  13.2018471   2.8089957  41.1965172  13.0192661
  22.1501780  83.0915070  82.1899128  21.3542986  82.5703430  82.2956944
  21.9456291  83.6995888  81.4795303  55.0955009  86.0582256  87.2352219
  54.2856884  85.8851910  87.7153206  55.1222658  85.3813934  86.5589046
  94.9837233  32.9458802  22.9460716  94.7163345  32.4538701  23.7223816
  95.6525661  33.5517590  23.2651138   5.4002432  21.2703841  30.6960773
   5.7975392  21.6286557  31.4898205   5.4565100  21.9816821  30.0580120
   9.7313838  10.7602923  23.3094311   9.0632920  10.1041739  23.5079098
   9.9302582  11.1629288  24.1547489  77.8012753   4.4223136  89.0670490
  78.4663773   3.7411231  89.1663361  77.9972697   5.0514335  89.7613335
 110.2777840  35.8585732  48.8374043 110.5083467  35.6672661  49.7465038
 110.6161667  36.7409127  48.6850739   4.1317420  10.6800406   7.2057629
   4.5061164  11.3790791   7.7418709   4.4329886   9.8720639   7.6212883
 110.1741387  63.3019726  55.8650875 109.3244959  62.9509633  55.5983830
 110.4979803  63.7603943  55.0897121  95.5986430  35.1457112  39.4307804
  95.6540252  34.6731179  40.2613354  94.6907641  35.0310032  39.1500092
 107.8039648  10.2692740  33.7826538 106.8840815  10.4224579  33.5668182
 108.2534434  10.2812092  32.9376316  59.1933847 100.9852098  59.4414139
  59.9437238 100.4081319  59.5835304  58.7050439 100.5721496  58.7292767
  33.3620238  15.7605147  85.3452778  32.7005434  15.0968695  85.5408478
  33.0455256  16.1867189  84.5487785  48.1150675  19.3025243  78.8615894
  48.8446522  19.0928733  78.2785130  48.1323433  20.2568817  78.9332533
  38.1665011  79.6330141   4.4918728  39.0390903  79.3839000   4.1872978
  37.7748746  78.8132022   4.7931480   3.7390665  95.6457637  16.3302326
   3.7420563  96.5888427  16.4940262   2.8178171  95.4310058  16.1838913
  86.7928649  84.7031115  39.2421436  86.1489249  84.2344664  38.7111568
  87.1150399  85.3988718  38.6691189  85.5813123  60.4879783  11.1533165
  85.3298283  59.9923705  10.3739834  85.2236844  61.3635658  11.0060787
   5.5934195  10.8109706  22.9993629   5.3116374  11.1908763  23.8315392
   4.7814088  10.6742709  22.5113201  78.4090440  25.2952998  32.4845314
  77.6236127  25.6162350  32.9276180  78.8142829  26.0805934  32.1166611
  52.3961782  43.8589716  85.7844162  52.1412945  44.7565937  85.9978294
  53.0924606  43.9557314  85.1347542  74.6075106 103.6854528  13.0656719
  74.1306949 102.8629182  13.1766319  73.9637233 104.3645547  13.2671452
  41.2115959  84.3919133  47.3050690  40.4954407  84.9982761  47.1161842
  41.1494664  83.7268637  46.6194439  11.1046743  27.4831009  88.7125111
  10.5030119  27.1076536  88.0696487  11.5858173  26.7311740  89.0579700
  37.4717927  96.2193464  47.3409176  37.2510895  96.2755512  46.4111996
  37.6622552  97.1218179  47.5968552 106.9085694  89.0980433  25.4549980
 106.5886880  89.9714159  25.2288914 106.4269782  88.5088347  24.8743629
  74.1309214  96.7479156  33.1189823  73.4878135  97.2443222  32.6127911
  74.9084235  96.7245267  32.5611496  57.0910288  90.5501031   2.5463486
  56.6409589  91.2895297   2.9549122  57.8007389  90.3372072   3.1523323
  13.5477924  48.9726973  85.1638317  13.0330777  48.1695604  85.2430344
  14.2311001  48.7576246  84.5289516  34.1462756  93.3030056  12.8353596
  33.6606318  92.9622768  13.5865498  34.9546397  93.6518310  13.2109928
  74.1941906  79.4157456  17.5736046  74.0090562  80.3453659  17.7068901
  73.8361789  79.2220377  16.7072773  45.9348822  41.0796833  79.2917728
  45.3969431  41.7853355  78.9327335  45.3896618  40.2972603  79.2094421
  31.0170388  46.7890978  76.5402460  30.8348560  47.5087166  77.1445560
  31.2011814  46.0405779  77.1077347  18.4944634   9.5112651  24.4289780
  18.5100464   9.8627131  23.5387707  17.8915267  10.0845664  24.9022961
  94.8951150  86.2524890  43.2543659  95.0106383  86.5780352  42.3616695
  95.7861758  86.1291288  43.5815144  98.6600161  94.1573404  14.8239994
  98.4714938  93.4322141  15.4197216  98.2170773  93.9194893  14.0094662
  13.6407571   0.2098744   2.8750324  14.5172934   0.3938477   3.2127762
  13.7537150   0.1688807   1.9254112  88.8887501  86.1155938  25.2917671
  88.1389428  86.6618107  25.0558281  89.3832160  86.6449188  25.9175110
  89.4480754  85.3340577  20.4595089  88.7486077  85.4369305  19.8142242
  89.0083123  84.9887870  21.2364388  30.1393037   2.8283446   1.8200111
  30.7899003   2.1319859   1.7303658  29.8853593   3.0360739   0.9207916
  73.9310385  73.9517926  19.1917324  73.8795591  73.9621376  20.1474953
  73.0451275  74.1693400  18.9017963  28.9736366  53.0100584  82.0323944
  29.5074630  52.3816442  81.5462303  29.5737958  53.3869028  82.6758480
  46.4912439  73.6135315   9.1052532  46.2477393  73.0079983   8.4050560
  46.7532135  74.4135736   8.6496925  24.8778248  71.6051245  80.0960255
  25.5593777  72.2045517  80.4000092  25.2348590  71.2233496  79.2941523
  71.0979851  14.0975325  26.3952065  71.0541360  13.1446641  26.3155365
  71.9110204  14.3378728  25.9508610  86.9455195  96.8396877  30.7526970
  87.3779727  96.6688465  29.9160194  87.2725678  97.6985286  31.0203934
  34.6789265  59.0040302  74.8824596  35.3516150  59.6811533  74.9547434
  35.1599979  58.1797314  74.9555302   8.1907535  82.8191280  83.3597565
   7.4395424  82.3857212  82.9547024   8.5241562  83.4051895  82.6803493
  68.6106635  88.0181573  21.5578461  69.1828538  88.5915183  21.0478592
  69.1485382  87.7413581  22.2996712  59.0547180  35.3533053  70.9811687
  59.8885918  34.8922515  71.0723734  58.9022303  35.3879547  70.0368309
  97.9288436   4.2368739  19.7439861  98.7403871   4.2712491  19.2375755
  97.5268771   3.4043067  19.4960213  83.8783360  74.8355435   8.3895874
  83.4582997  74.0851067   8.8098812  84.7068835  74.4907950   8.0565929
  68.3184195  77.9542802  55.2526569  68.2593489  77.2728108  54.5830727
  68.1523419  77.4957918  56.0763264  99.4116403  70.7852547  23.8082314
  99.4364931  70.0948136  23.1457329  98.4901954  71.0403817  23.8538361
  35.2834058  54.4081020  89.0039349  35.9347916  53.7266636  89.1699696
  35.1391339  54.8148012  89.8583508  59.7053743  90.0763892  30.0921917
  59.3949223  89.7897934  29.2332840  60.5841852  89.7041987  30.1656532
  76.9827938  66.4118290  90.8895683  77.4756098  66.7176247  90.1280880
  76.3482618  67.1080351  91.0595608  67.9390383  76.7620468  82.7321148
  68.6016798  76.6562462  83.4147167  67.5298309  75.8997536  82.6598454
  77.4160910  60.9699224  41.6387844  76.7874671  61.0816793  42.3519230
  76.9347835  61.2278454  40.8526230  55.0389195 103.8186906  11.2717056
  54.5376158 104.5161174  10.8491898  54.9923719 104.0224098  12.2058201
  55.3330506 101.3795494  54.3338013  55.1271964 102.2941135  54.1403294
  54.4995547 100.9198783  54.2327023  15.8823685 100.8635114  21.9021893
  15.3493122 100.4870723  21.2019157  16.5286831 100.1862310  22.1016693
  93.9279271  83.6283229   4.2409039  94.1352273  84.4853734   4.6133518
  93.6010886  83.1179141   4.9817753  99.3703891  85.8602546  10.1754951
  98.8650943  86.2195300   9.4462299  98.7157012  85.4535650  10.7431316
   2.2702269  23.6385481  18.1336784   2.9194884  23.9833729  17.5206661
   2.7449183  23.5489838  18.9600468  20.9325004  59.9974823  89.3200779
  20.7503772  60.8934832  89.6033573  21.7648649  60.0589657  88.8514423
  44.2003679   2.0468238  83.8913631  43.9670658   2.9744968  83.9263535
  44.8631954   1.9923511  83.2029438  59.4677115  81.8462466   5.8182240
  58.5275293  81.8042420   5.6435013  59.6684623  82.7821349   5.8251190
 105.7956061  25.0796938  83.5233498 105.7709190  25.9864354  83.8290310
 105.6365558  24.5574570  84.3096066  78.2063007  20.6709146  81.2007713
  78.4377575  20.2289104  80.3838921  77.3149586  20.3765798  81.3881302
  91.6866685  96.7442392  26.9798374  91.3081742  97.3113178  27.6517010
  91.0512114  96.0355733  26.8787670  90.9005333   0.9644930  44.6449375
  91.2968112   0.7198041  43.8086796  91.6057040   1.3966744  45.1267910
  89.4857074  87.7750276  16.7498684  89.4635249  88.1221460  17.6416397
  88.6432982  87.3330592  16.6438675  63.5046936  91.5040730  60.2793121
  63.6576129  90.5690073  60.4153156  63.8675714  91.9221758  61.0601711
  82.1802117   5.8179085  12.7314568  81.9116171   6.7344897  12.6684570
  83.0759026   5.8533328  13.0671883  95.1815129  86.7491053  16.8070126
  94.8963404  87.6412104  16.6093731  95.1523495  86.2961053  15.9642887
  28.2043362  30.5102372  52.6517725  29.0060139  30.5942488  52.1355486
  28.4429169  30.8364367  53.5194731   5.8819585  20.4765885   9.5570755
   6.6994195  20.3839581  10.0463772   5.6758933  21.4098733   9.6094799
  54.1297878  64.8169528   4.4047546  53.4399164  64.1534422   4.4126511
  54.2125715  65.0654565   3.4840870  72.3982335  97.8837179  15.8589458
  71.6051174  97.4729990  16.2032032  72.8026200  98.2993339  16.6205025
  40.1249027  24.8124242  58.2381868  39.2885542  24.3656826  58.1071377
  40.7022333  24.4403505  57.5714874  89.2457570   2.7428525  32.4830532
  89.8728313   3.4158795  32.7477169  88.4831060   2.8931372  33.0416298
  68.4009887 105.0450157  19.2045498  68.8680244 105.5675958  19.8564911
  68.9231826 104.2474769  19.1180897  92.9283286  70.2140258  15.9182549
  92.3194314  69.7943758  16.5260124  93.7927533  70.0553118  16.2974834
  43.0905485  73.1180000  85.2716255  44.0183401  73.3375168  85.3567410
  42.6793242  73.5136795  86.0401058  47.9211832 100.1836990  36.4984703
  48.6640657  99.7211336  36.1106682  47.9305876 101.0448001  36.0805511
  24.9350934   9.2817490  16.0354996  24.6866517  10.1928990  15.8795738
  25.2219634   8.9619677  15.1801205   1.4729218  29.5776169  43.7786198
   2.0265298  28.7990849  43.7182617   1.9528489  30.2507680  43.2961655
 111.2722518   0.9492772  49.5615959 111.9078137   0.9978287  48.8475037
 111.5452220   0.1881497  50.0738525  73.2022382  86.2887691  37.0406342
  72.5019289  86.8867968  36.7795563  73.5684562  85.9735345  36.2143517
  24.6373534  78.3554268  83.3462524  25.0359845  78.1779385  82.4942970
  24.6008825  79.3104553  83.3993244  26.7931008  31.4249730  74.5621061
  25.8654523  31.2268877  74.6904039  27.0941162  30.7668757  73.9355803
  71.4383531 104.5454477  52.8132534  72.1005512 103.8970398  52.5738907
  71.7959476 105.3780674  52.5048733  37.2447271  80.5529879  27.5836945
  37.8503189  80.9277700  26.9441414  37.6759137  80.6852745  28.4279728
  40.4106092  67.5028133  91.5206242  40.1425457  67.8518105  90.6705761
  41.3330889  67.2746468  91.4057446  30.7923818  29.4221711  83.1055450
  30.9579539  29.4958591  84.0454292  30.2899408  30.2074766  82.8885651
  74.0148283  83.1848239  21.8766689  74.0765453  82.8984331  22.7879334
  74.5551849  82.5606083  21.3923168  78.6659146  86.5024088  24.1514969
  77.8614045  86.2023638  23.7284470  78.4101630  86.6745566  25.0576878
  70.6772543  88.8701986  41.4470673  71.4865137  88.3709525  41.5569878
  70.1665736  88.3627246  40.8162689 103.7078907  30.5542176  40.1656818
 103.1844951  30.6584923  39.3710613 104.3510510  29.8814099  39.9422741
  74.7880746  78.8478206  39.9257851  74.0522481  79.3356656  39.5559216
  74.3842245  78.2333730  40.5386353  27.0363641  29.6912622  63.9035845
  27.8472257  29.9982882  64.3091345  26.6952324  30.4566312  63.4409046
  90.2237667  18.7586062  12.1525574  90.1823319  18.4577220  11.2448215
  90.7333960  19.5679228  12.1135998  93.3441926 103.4327816  40.9007454
  94.1705895 103.9141296  40.8607388  93.2680465 103.1632875  41.8160534
 108.7031509   5.9608357  17.2061443 108.5176326   6.2804406  18.0891323
 109.5739271   5.5687516  17.2713757 108.3038808   1.4387171   8.3411121
 108.1547524   0.5397408   8.0481339 107.4532916   1.7269127   8.6722851
  48.7905836  54.5486927  85.8450413  48.1634331  53.8971472  86.1587334
  49.6439457  54.1263056  85.9429836  14.8110871   4.3394272  28.0146790
  14.6593623   4.3362515  28.9597702  14.1376977   4.9235194  27.6659489
  85.0052930  54.2090205  38.2115841  85.6001282  53.7927801  38.8354015
  85.2239180  55.1398266  38.2566834  26.4531159  37.0587873  79.6496105
  25.8995724  37.6659822  79.1585541  26.8173265  36.4750624  78.9841413
  96.0637332  80.7855462   2.5687599  97.0188189  80.7852100   2.6323318
  95.7692052  80.3818797   3.3851814  78.7700177  99.3439125  34.5516300
  77.9735614  99.8486303  34.3868637  78.4935714  98.6481212  35.1480198
 100.3681565  94.2125724   2.6718044 101.0280085  93.9359211   2.0359707
  99.5415259  93.8857196   2.3167324  20.0596619  42.5802422  86.8682289
  20.1095128  42.4849415  85.9170914  20.9628463  42.7429056  87.1403027
  77.2752286  72.5668787   6.8787098  76.8037582  71.7809509   6.6025448
  77.0284177  73.2323240   6.2364483 111.2257768   0.2818339  44.4984245
 112.0137455  -0.2106531  44.2686558 111.3263775   0.4732697  45.4308701
 101.2578465  33.6847489   1.5726089 101.0361458  33.3311169   2.4340153
 102.0532872  33.2165806   1.3189888 103.7082006   5.5022328  22.9549122
 104.3806006   5.7928746  23.5710621 103.3799769   4.6837180  23.3271122
  80.4126073  85.5157684   4.0963364  80.7533122  85.2196859   3.2522392
  81.1699963  85.4941057   4.6812534  56.3680606   9.3265908   2.0131111
  56.2006716   8.3985846   1.8487263  56.6425852   9.6744197   1.1646557
  27.2446942  23.5401750  87.2102547  26.6467333  23.8150549  87.9053211
  27.0248437  22.6216745  87.0545197   1.1733176  56.7412806  58.1721878
   2.1234739  56.6653347  58.2597542   0.9377024  56.0717392  57.5299740
  13.8953452   6.9663899  21.7410183  13.1560712   6.6448491  21.2249565
  14.3388800   6.1739628  22.0436287  81.7681647  87.8971218   5.5895615
  82.3163844  88.6787079   5.6589413  82.1669818  87.2704695   6.1932850
  24.5788197  10.5601590  13.5897541  24.3552642  10.4553025  12.6649475
  23.9769177  11.2335246  13.9068031  83.2206668   1.4403193  13.0588627
  83.7199272   2.2569459  13.0685806  83.0244155   1.2685959  13.9798546
  46.8122387  14.8899269  83.2007504  46.8435097  15.7570910  83.6048222
  46.4384985  14.3241918  83.8763905  58.4262348  80.1478432  17.8228474
  58.9905906  80.7372664  17.3225307  57.6953913  79.9590324  17.2342491
  46.9558746  49.9961023   7.2675800  47.1157236  50.5145091   8.0562115
  47.7543844  50.0960829   6.7492962  68.5163022  94.3032907  54.9661064
  68.5478068  93.3497547  55.0436401  69.2879320  94.5269035  54.4457054
 102.0485283  18.4548037  64.4977665 101.7533399  19.3602460  64.5940399
 102.3615958  18.2110446  65.3688526   2.5283388  88.8383554  34.1483879
   1.8105415  88.2349657  34.3405342   2.6829056  88.7354182  33.2093811
   4.1407160   6.4062302  16.6670609   3.4651713   5.7515996  16.8440628
   3.9281850   7.1338122  17.2515965   8.6149888  17.0609181   7.8691101
   8.1317906  16.7889826   8.6493588   8.3098321  16.4702742   7.1804523
  12.3898558   3.9115470  21.8125153  12.0979647   4.5462792  21.1581802
  13.2077984   3.5620062  21.4589310  86.8541767   3.5755055  14.5738983
  87.2718014   4.3457501  14.9593163  87.5271143   3.1956523  14.0090084
  96.7342139  99.6171974  45.8151150  95.7934857  99.4841360  45.9315491
  97.0047332  98.9125322  45.2264786   4.9689107  17.9433625  18.6054802
   5.6386094  18.3784239  19.1331673   5.4501538  17.5731032  17.8655243
  60.1248837  85.9482597  15.5097580  59.3200875  86.4605163  15.5880451
  60.4545832  85.8817385  16.4059258   3.6623578   5.2027791   2.8065777
   2.9981331   4.8434727   3.3947372   4.3791966   5.4627888   3.3851719
  25.2412772  55.0813770  69.3403053  24.6541476  55.4834366  68.7001038
  25.9076476  55.7482338  69.5060873  56.2568188  34.1692996  78.9846373
  56.4104652  34.9256301  79.5508432  55.4428768  33.7864614  79.3119860
   9.2408566  10.8790963   8.6378574   9.8153882  10.7375949   7.8854465
   8.6323170  11.5595429   8.3499146 101.8894125  23.4643643   0.1624393
 102.4460365  24.2387145   0.0800896 101.0352422  23.7476056  -0.1637554
  66.6767193  61.3632421   8.0235291  66.1568928  61.6389744   8.7785053
  66.0286690  61.1107020   7.3658943 105.7176854   8.2338088  12.1837330
 105.7931258   7.2801011  12.1523285 104.7850896   8.3957379  12.3261261
  68.1533147  93.6401580  39.8583412  68.4574271  94.2408107  39.1779232
  67.2816420  93.9612983  40.0891781  87.0025517   4.5994990   2.6384926
  87.8887512   4.9375479   2.7673531  87.0937206   3.9470046   1.9441032
 107.0461179  73.4851550  29.1401196 106.9473887  72.7769111  28.5038185
 106.9399787  74.2855548  28.6259937   5.0181007  91.5107059  90.8147144
   5.7485563  91.9736385  91.2250328   5.4313362  90.8076572  90.3135204
  68.6623097  97.5447820   4.7428894  67.9909468  97.3150657   4.1004467
  68.7837029  98.4881662   4.6355629   2.3626547   4.4400351  18.5312271
   2.6954488   5.2704947  18.8715363   2.7020030   3.7801831  19.1359329
  57.4443269 102.6913856  37.6923943  58.2101656 102.1172117  37.6992893
  56.7095698 102.1131013  37.8972149   3.1724839   3.2609122  16.0636616
   2.6698427   3.3576958  16.8725014   2.8416066   3.9534752  15.4917336
   2.8002791  54.8478882  21.7645931   2.7610593  53.9171879  21.9847775
   2.3543005  54.9132340  20.9201622  46.0189199  43.7959051  69.6374893
  45.7610369  44.4056606  70.3288078  46.3105583  44.3575096  68.9193058
   6.8818325  49.5870399  85.8141327   6.7128271  49.9465561  86.6849995
   7.7843183  49.2708874  85.8565331  67.3757554  85.5280207  20.6206417
  67.7624584  86.3956498  20.7386017  66.7855716  85.4253291  21.3672161
  87.4356175  73.9310859   3.1441975  87.8167535  73.1759070   3.5921574
  87.3533631  73.6521886   2.2322273  66.8559409  92.1126364   3.8515568
  67.6412726  92.3212503   3.3456326  67.1607757  92.0634054   4.7575855
  97.6544953 103.3782791   5.7142067  97.2497512 104.2335485   5.8588791
  96.9418193 102.8278659   5.3895950  10.8435253  75.9034179  25.0467205
  10.9412960  76.5245722  25.7684040  10.2471641  75.2353786  25.3848171
  35.4968047  25.2104568  84.9630928  36.4319348  25.3629088  85.0991821
  35.3288484  25.5286789  84.0760994  38.9459944  75.6670618  87.6896381
  38.2654977  76.0765076  87.1553040  39.0521955  76.2572575  88.4357071
  37.8381515  32.1234703  89.2255116  38.4378338  31.9558907  88.4985065
  38.3755994  32.0124817  90.0097656  16.8529372   5.8697837  16.7219162
  15.9617810   6.1062710  16.4647198  17.3608927   6.6701596  16.5892315
   2.8744177  16.9857590  54.7427082   3.1234889  16.1601250  55.1580715
   2.5787644  16.7340844  53.8677883  26.0651565  80.5019569  86.6647720
  26.6313124  80.6261253  85.9030056  25.4061890  79.8718596  86.3732624
  56.5997887  91.2372589  84.1616154  57.4573803  91.0509396  83.7794495
  55.9819698  90.7599258  83.6078262  78.7242747  75.4014467  53.5177612
  78.0882979  75.4644774  52.8051567  79.2241574  74.6086644  53.3232307
  17.6972103  42.7323723  83.7832928  17.3070598  42.1084738  84.3954754
  17.3972631  42.4421692  82.9218769  78.8901330 105.3937315   7.3470688
  78.8371993 104.6374200   6.7627621  78.4755946 105.0993179   8.1580639
  57.8054596 101.1228059   2.8394222  58.1173063 100.2207969   2.7662182
  57.5728870 101.2216400   3.7626648  29.9447083  41.5159941  89.6063900
  30.7329583  40.9742785  89.5684814  29.5847869  41.4774895  88.7202740
  24.8439384  63.1801081  88.5058212  24.4047070  63.8003826  87.9239559
  25.6583023  63.6185312  88.7524509  61.2887526  70.1102018  88.8052845
  60.7956934  69.8724604  88.0200386  62.0368385  69.5130539  88.8083076
  81.0474540  77.7957152   5.2488899  81.7573977  78.1060265   4.6868229
  81.3669158  76.9652818   5.6018162 102.9873038 104.0511249  23.2596207
 102.5931407 104.0001987  22.3888302 103.3390141 103.1745409  23.4149647
   2.8062968  26.7819779  39.4736671   3.2732873  27.4641793  38.9912224
   2.2708945  27.2601788  40.1068306 105.4342343  33.0740636  37.8441620
 104.8605491  32.3268883  37.6743507 105.0648834  33.4870999  38.6246872
 106.5596104  98.4340356   1.5092182 105.7174111  98.8872360   1.4699364
 107.1173716  99.0099882   2.0321083 103.6766697  23.6465352   8.1719208
 104.1844775  22.8488486   8.0234146 102.7910973  23.3352988   8.3593369
  93.3040954   9.0845292  30.4070854  92.9917993   8.2209818  30.6772423
  92.5080456   9.5706170  30.1920128  29.7157145  73.5113811  82.2593307
  30.5267334  74.0152454  82.3271370  29.6902585  72.9894257  83.0612946
  68.2636715  99.5687078  10.1448345  67.6608611  99.8923610  10.8142376
  67.9796530  99.9991821   9.3384552  67.3863793 104.7402977  36.9379616
  66.5144969 104.7629522  36.5435791  67.9770566 104.5720552  36.2037849
  77.5945664  95.5246233  25.5934048  77.3866320  94.5957683  25.6945229
  77.4525071  95.7020210  24.6635723  35.6565595  35.2804017  87.1022034
  36.0260201  35.1923585  87.9808235  36.2578368  34.7924471  86.5395355
   2.0625381  22.3469918  28.5046005   2.1753745  21.5022462  28.9403820
   1.2881999  22.7283900  28.9183235 102.1639420   3.4475558   5.2511787
 102.7974512   4.0249245   4.8250961 101.5142132   3.2628815   4.5729637
   5.6650262  14.7164910  21.7631722   6.0854726  13.8592379  21.8307590
   4.8008589  14.5311158  21.3956261  50.4393709 100.2372669  44.6218681
  50.6708253  99.3123220  44.7063255  49.6284283 100.2357744  44.1133404
  25.4239087  20.7494204  15.4179955  24.8425488  21.2223523  14.8225212
  26.3036208  21.0335724  15.1698208  58.7393427  84.5274448  84.5336056
  59.2342901  85.2117348  84.0830326  59.3933773  84.0635586  85.0563622
  70.5203833   2.9989522  45.2242279  70.1579092   2.9799264  44.3385124
  71.0930158   3.7659352  45.2322483 109.8076917  37.3144906  15.5660820
 110.1980163  37.2291081  14.6962547 110.5359031  37.5728028  16.1310768
 103.1014443  85.6193732   8.4309864 103.1764603  85.0405549   7.6723194
 104.0064574  85.8198546   8.6697102  69.2961693  50.0226545  87.0011997
  68.4012842  50.3544378  86.9281769  69.4720840  49.6190453  86.1512661
  86.9146395  62.8803764  18.8509655  86.8334437  62.7900337  19.8004246
  86.2741757  63.5527526  18.6186981  23.4343295  14.9339573  52.1113586
  23.3756356  13.9901059  51.9632530  24.3740229  15.1138775  52.1403027
  83.6243058  89.8701714   6.0404205  83.7973357  90.8113717   6.0195446
  84.4860745  89.4659256   5.9395313  79.3894072  14.5404046  21.3594723
  78.9734052  14.1352408  20.5985451  78.6777656  14.9999659  21.8051147
 108.7031342  28.8400643  29.1457844 108.4999801  29.0379803  28.2315731
 108.3559896  29.5858758  29.6351624  48.8986684  79.6268557   4.0001011
  48.0643917  79.7295688   4.4579983  48.8912583  80.3124164   3.3321381
 109.9019314   9.2041867  24.0131664 110.0647069   8.4825795  23.4056950
 110.0098492   8.8154976  24.8812103 111.0193993   4.6189921  40.4544544
 111.2855984   5.1791089  41.1835957 111.7857124   4.5912783  39.8815441
  39.6552515  50.3535795  90.1353073  39.1052032  50.3062439  90.9172535
  40.5016708  50.6646156  90.4563427  72.0878745  86.7106389   1.3371563
  72.9571844  87.0534299   1.1297321  71.8846989  86.1187767   0.6128311
  94.6913554  43.4940713  18.5958481  93.9031841  43.6720936  19.1089916
  95.0562693  42.6994412  18.9852333  92.1358038  33.5454838  18.8497639
  92.3564996  33.0813782  18.0422211  92.1523441  34.4710438  18.6062527
 100.7878210  27.7483552  49.8980427 100.4251267  26.8627637  49.9183083
 100.0378729  28.3098881  49.7018528  78.2990695  89.9921559  28.6372185
  79.1394902  90.1499985  28.2070827  78.2846261  90.6095337  29.3685627
 107.3613787  96.0120224   0.6808758 107.6909924  96.1422418  -0.2083015
 107.0827533  96.8832277   0.9630108  85.8858933   6.0546296  11.6925240
  86.8139781   6.2452262  11.5562725  85.7473482   6.1958926  12.6290512
  43.1025076  33.8525581  85.2570438  43.8967466  33.6849332  85.7643032
  43.4210062  34.1316271  84.3986130  70.6118894  82.3643921   2.1583462
  70.7505728  81.5476178   1.6788864  71.4605499  82.8061699   2.1294022
  31.2698412  13.7079287  77.8436041  31.3454986  13.8570845  76.9011307
  31.7239428  12.8784776  77.9920435 104.7736813  16.5095322  57.2490883
 105.6485607  16.2209075  56.9892502 104.8701908  17.4473565  57.4146366
  94.1265584  88.9533709  23.7288094  94.7135735  88.9535545  22.9727364
  93.4996939  89.6531342  23.5455132  72.2599602  70.5798458  19.5043659
  73.1796885  70.8403073  19.4544411  72.2830940  69.6233390  19.5325089
  80.1836170  24.1591542   2.3997307  79.8264040  23.8329928   1.5737534
  80.6985088  24.9269240   2.1514416  58.6679149  93.2302450   9.4597626
  58.2508493  93.3994030  10.3045559  58.2580615  92.4235271   9.1475773
  72.4921633  95.7018255   6.2097454  72.2388602  95.8507703   5.2987671
  73.3512808  96.1161493   6.2902641  86.6687716  18.6969464  34.9269772
  87.3969366  18.9193337  35.5071068  85.9739925  19.3092101  35.1691532
 105.5006123  89.4082998  22.0776367 106.1503745  90.0439738  22.3775768
 105.3350211  88.8562940  22.8419018  42.1816635  51.2002516  88.1989384
  41.6254711  50.4281807  88.3028030  41.7161655  51.7474365  87.5663757
  23.6148381  80.9783077  82.9539967  23.3843732  80.3431416  82.2760010
  23.0722260  81.7427254  82.7604580  89.3062271   4.3137877  47.3431587
  89.7103418   4.0135234  46.5290546  88.3766688   4.1110032  47.2381401
  57.0660139  89.7494053  12.0607567  57.6359368  90.3397082  12.5536728
  57.5659657  88.9360832  11.9915962 110.8354117  36.4142316  42.9327869
 111.4442851  36.5159218  43.6643314 111.0728551  35.5749886  42.5384235
  66.0060240  75.9822081  31.6860962  65.9959198  75.7844900  32.6225948
  66.9347764  76.0586260  31.4674473  80.9540988  91.7712210   5.4060459
  81.1671401  92.0893262   6.2833405  80.0067855  91.6352056   5.4240799
  99.8730542   9.9597066  20.3176498  98.9529397   9.7010462  20.2655220
  99.8757841  10.8854144  20.0741577  89.6598864  93.6196064   4.9016285
  90.2752305  92.8864359   4.8946190  89.2389251  93.5872053   4.0425682
  23.5540032  59.5161343  83.6548805  23.2605648  59.4418621  82.7468014
  22.8135920  59.1997242  84.1724873 105.1445843  17.2806780  41.8238831
 105.6460263  17.0388262  41.0452366 104.6359231  16.4975112  42.0339966
  67.4733877  56.1050129  81.3262653  68.3823967  56.3956022  81.4004040
  67.3809719  55.4329014  82.0015144  24.7113375   2.8267949  19.7421646
  24.0329842   3.4949010  19.6436501  24.2481904   2.0646517  20.0898170
  95.2126551  68.8257586   8.8037014  94.4899131  68.7863194   9.4300556
  95.9031964  68.2952188   9.2010784  70.9520698  82.8926967  18.3026314
  71.4161516  83.3439635  19.0077591  71.0605908  83.4626602  17.5413132
 108.2464339  33.8652699  11.8994713 107.7318574  34.4177716  12.4878407
 107.9324867  34.0905278  11.0237217  73.0464268  96.6966795  38.5723972
  73.7223364  97.1656297  39.0617466  73.3547354  96.7089485  37.6662922
  62.9176426  39.9705768  89.8761082  62.6059532  40.8340502  90.1472092
  62.1456766  39.4077539  89.9355412  44.3971729  23.2163835  78.3538151
  44.7356081  23.3455682  77.4678087  44.9584246  23.7604475  78.9062834
  24.0676546  17.3809946  80.7519722  23.8191962  18.3034194  80.6917000
  24.8811030  17.3188448  80.2512932  58.8950587  89.9701999  27.5100899
  58.8049341  89.0662049  27.2085857  58.3844090  90.4835247  26.8840122
  92.9277373  97.9934810  11.3276768  93.8643265  98.1880640  11.2935734
  92.5353719  98.5925315  10.6925201  84.0887070  70.3669821  46.1732864
  84.4023944  70.2099835  47.0638943  83.3245660  69.7973763  46.0845947
  33.1845403  26.2246251  76.0047102  34.0511036  25.8635020  76.1915016
  32.5977325  25.4691768  76.0391521  67.2685958  92.4706553   9.9295139
  68.1656814  92.1390842   9.8903847  66.9501830  92.4068688   9.0290833
  28.9459968  22.2434258  82.4399948  28.4252286  21.8253136  83.1257153
  29.8162460  21.8550420  82.5297546  32.0067239   4.7910354  54.9712610
  32.8051424   5.0325799  55.4407454  31.3042688   4.9286333  55.6067610
  92.5904705  24.4125359  45.4001713  92.8727771  23.4979146  45.4024696
  91.7503728  24.4027417  44.9415112  42.4288160  61.4694677  23.5695457
  41.4751012  61.5472345  23.5447979  42.5905628  60.5290578  23.6450386
  30.4899549  51.6111851  51.8438482  30.0856304  50.9366798  52.3895550
  29.8244286  51.8195677  51.1881924  82.2965909 102.0095991   1.7790413
  82.7615453 102.8210329   1.5750122  82.9901982 101.3661216   1.9242191
  94.4337846  87.3547267  37.3646355  94.6599293  86.5427755  36.9109631
  94.0128423  87.0671700  38.1747913   9.8615508   3.4257882  22.8537464
  10.7525925   3.4561865  22.5053978   9.9036173   2.7849953  23.5635662
  79.1847654  12.6565449  16.2408161  78.4535049  12.3962109  15.6807137
  79.8860832  12.8821128  15.6296635  72.6796760  14.7702067   3.0743122
  73.5496417  14.5149224   3.3812714  72.5669922  14.2946522   2.2512817
  23.8607264  62.1690464  84.5014000  23.9152813  61.2403631  84.2759895
  24.7631693  62.4829054  84.4437981  81.5456773  66.3668905  46.6696548
  81.1786891  66.0564481  47.4974060  81.4962292  65.6093346  46.0866451
  78.2027007  91.9732855  23.9425278  77.6154996  92.2545241  24.6441841
  78.9012433  91.4969681  24.3912888  68.7686778  91.5248488  35.8198833
  68.8058615  90.6410979  35.4540443  67.9807568  91.5261196  36.3634014
 109.7670270  23.6224215  15.8534241 109.0981556  23.8932412  16.4823055
 109.6592452  22.6739400  15.7826805  99.2729856  35.2332966  41.2989426
  99.2586328  34.7927277  40.4492855  98.9290525  34.5832627  41.9116402
  86.1582757  94.2544435  23.9037037  86.9294596  94.8097728  24.0182400
  85.9814358  94.2811226  22.9633617  71.1500836  88.5835003  31.0947609
  70.8412743  89.4566153  30.8528137  72.0186020  88.7317632  31.4688206
   7.8560309  15.1048653   5.9705734   7.0530038  14.5923131   6.0636520
   7.8387980  15.4147141   5.0650692  73.7799454  87.5479220  11.2864971
  73.9600230  86.6498302  11.0085869  73.0376030  87.4689602  11.8856049
  65.8263016  80.9866999  35.7068634  66.3517857  81.2310384  34.9450302
  66.3894583  81.1767267  36.4571857  74.0069009  76.1894559  23.7545586
  73.1989718  76.1770128  24.2677116  73.7333036  75.9428953  22.8710461
  56.5815210  79.4348955  88.1618881  55.9469271  79.1664743  88.8263226
  57.1115923  80.1047897  88.5937309 101.0284378  18.3190625  48.1328201
 101.7725255  18.5161250  47.5638485 101.1683156  18.8638108  48.9073658
  97.9359771  89.0467380  17.9041767  98.5955525  88.4458183  17.5576401
  97.4056292  89.2846917  17.1436882  28.1145577   1.6385501   8.2740879
  29.0477566   1.8437045   8.2167721  28.0583243   0.7118027   8.0412674
  28.5811190  15.5540364  20.1405048  27.7815013  15.4668276  19.6216297
  28.8774495  14.6541398  20.2769375   6.0141520   9.8756259  14.4893646
   6.5492825   9.1342299  14.2061615   6.6267018  10.4528372  14.9452591
   2.1497683  21.1661236  52.1843910   1.4621095  20.5085700  52.0796013
   2.0463423  21.7434876  51.4279556  36.4650297  38.4398270  89.9544525
  36.1470318  37.6311541  89.5530128  36.1852169  39.1311932  89.3544960
  30.4639487  21.4095109  14.9610806  30.7085232  20.7474797  15.6077099
  31.1909060  21.4161770  14.3384075  27.0813564  94.3865226   1.4855289
  26.5457252  93.9581512   2.1532440  27.3472885  95.2140497   1.8864059
  42.2590160  84.9944878  81.1491489  42.9445171  84.4878864  81.5846539
  41.5036631  84.9270439  81.7332077 104.7963192   8.6071723  39.7072220
 103.9136793   8.9507859  39.5689964 105.3698160   9.2380755  39.2721462
  99.8722507  24.2539733  11.6201687 100.0643088  25.0465815  11.1190510
 100.2888776  23.5497420  11.1234665  28.9436936  45.7633972  90.2961540
  29.4108367  45.0329781  89.8905754  29.5044971  46.5230703  90.1392365
   9.9008565   9.0407269  10.4495430   9.6826367   9.6098273   9.7114754
  10.6774144   8.5612815  10.1608753  12.9693703  13.7367098   7.9834652
  12.0681481  13.7500947   7.6611996  13.4384637  13.1822102   7.3599911
  43.6423163  28.4780877  69.7664070  42.7257208  28.7491315  69.8176765
  44.0587382  28.8981526  70.5189896  23.1096320  20.4519789  22.3810768
  24.0233855  20.7286255  22.4500084  22.9174904  20.4913371  21.4441776
  16.3081031  21.6032736   8.1649971  17.0106272  21.5286820   7.5191402
  16.5366416  20.9664624   8.8421059  24.4235901  48.8533394  14.3877029
  24.6470790  47.9446881  14.5892715  25.2494483  49.2460339  14.1049004
  64.1875602  68.4701942   2.8694534  63.9574838  69.0575169   3.5894203
  65.1267935  68.3186351   2.9748058  59.3359046   6.4568799  57.3681259
  58.7519984   6.4767211  56.6099167  59.6261744   7.3632233  57.4706745
  20.1009326  28.6231606  11.6332531  19.8845582  27.7348988  11.3496876
  21.0493712  28.6092274  11.7616940  46.9212393  20.1836770   0.0149345
  46.7427210  20.0701802   0.9484577  47.5939612  19.5316212  -0.1812840
  14.0446477  15.0053399   4.1602993  13.3481412  15.0042765   3.5037136
  14.6404223  15.6986325   3.8763523  16.5619950   7.3402827   2.9483509
  16.9286637   6.7379181   3.5956001  15.6279330   7.3741286   3.1547928
  92.0605637  30.1274102  14.2219162  91.7583515  30.8246224  14.8039722
  92.6230778  29.5827477  14.7725201  38.8254838  13.4321778  21.3104534
  38.2781415  13.8735430  20.6609535  39.3094639  12.7756779  20.8094502
  57.4032645   6.4777224  11.5939236  58.3410029   6.3767474  11.4305687
  57.2289233   7.4035018  11.4243031  55.3535843  22.4778867  72.3550415
  55.1976538  23.3496118  71.9917059  54.4914532  22.0620060  72.3582268
 108.4847189   4.8929637  22.9082012 108.3709361   4.4145291  22.0869923
 107.9731108   4.3968957  23.5472679  12.4324088   7.9086678  37.7365589
  12.4248271   6.9766276  37.9544449  13.3591323   8.1212561  37.6259708
  20.6791548  17.3347561  52.0688438  20.2835850  17.1708958  52.9249477
  21.1663394  16.5344327  51.8729782  26.9662575  28.4106057  13.2713890
  27.6407056  29.0490048  13.0394554  27.0939068  28.2567113  14.2074776
   9.6039109  54.0163224  26.7908764   8.7848668  54.0245907  27.2861767
  10.0495057  53.2193654  27.0781612  29.3192343  26.8076556  44.9419689
  28.5894494  26.2045186  44.8009872  30.0946002  26.3104718  44.6814919
  17.2887187  29.4098179   2.1270752  17.1373992  29.0072148   1.2719440
  16.4782099  29.2541115   2.6119041  31.5174346   2.4625485  27.5637913
  31.3558297   1.8823998  28.3078003  31.4326863   1.8969720  26.7962170
  94.1305447  96.4311193  21.6489887  94.6655894  96.3346265  22.4368000
  94.4633103  97.2243570  21.2291336   9.2611699  33.2523434  27.4118805
   9.0645461  32.4099057  27.0021629   9.4980387  33.8242715  26.6817951
  25.6672816   0.9092753  23.4635830  24.8876242   1.2101739  23.9302921
  26.2116246   0.5075209  24.1407204  31.6060881  13.9005129  23.7339973
  32.4750762  13.6049359  23.4624767  31.4823107  13.5153430  24.6014977
  29.7511248  51.4108079  32.5052452  30.5965571  51.0351651  32.2595310
  29.9512725  51.9912427  33.2395840 111.6427065  43.2860844  24.9080276
 110.8278538  42.7987759  24.7864723 112.1787788  42.7212994  25.4646969
  65.8911229  98.6642145   6.1072445  65.9816027  98.1382440   5.3126335
  64.9500228  98.6745523   6.2817574  89.6897078  97.2786068  12.7062798
  88.8442183  96.8852304  12.9222107  89.9665547  97.7100967  13.5146141
  51.1446190  25.0711560  90.5354309  52.0561647  24.7933483  90.4452038
  50.8480930  25.2152896  89.6368027  21.3460736  35.0389569  23.3816910
  21.8946700  34.2611020  23.2806492  20.9050183  35.1323216  22.5373077
  28.7707429   3.8756697  17.3598289  28.9154296   4.2148869  16.4765263
  28.2638173   4.5587962  17.7986813  79.0677787  99.9561046   6.7093277
  79.0532971  99.1717886   7.2578430  79.9323512  99.9452566   6.2986851
  86.8560124  76.2596367  24.5292187  87.6618815  76.2884353  25.0449562
  86.2333728  76.7885040  25.0280666  90.5592537  67.8213930  59.5448112
  89.6136761  67.9684544  59.5670176  90.8927059  68.4958506  58.9530754
  23.1358628  14.7451680   6.2227058  22.9241709  15.2637999   5.4465389
  23.4545569  13.9123719   5.8746910  99.5968105  64.9439995  24.6731853
  99.3586089  65.8431904  24.8988819  98.9902522  64.4017785  25.1774788
 109.7620202 103.9516567  14.1454983 109.0001965 103.4403537  14.4183159
 110.4953910 103.5607742  14.6204853  55.3088665  10.8045626  80.5501270
  55.4467535   9.9388516  80.1657295  54.4827461  10.7259786  81.0271835
  38.5986666  39.8586648  29.4791889  37.9472165  39.9796765  28.7883854
  38.0974345  39.5325749  30.2266216  31.7540050  78.2146263  90.7592583
  32.6987123  78.1994724  90.9126472  31.3688278  78.0581045  91.6214466
   0.0282101  20.0951998  10.3713989   0.6292777  20.6088965  10.9109020
   0.0440554  20.5272620   9.5174026 103.3977295  15.0475161   2.0850182
 103.7499358  14.2127888   1.7761326 102.5352599  15.1101344   1.6745853
  92.1174526  48.1156206  83.5240459  92.8915977  48.3607912  83.0172634
  92.4267483  48.0744219  84.4289684  30.9866767   6.3329499  21.1064816
  30.7316022   7.2136490  20.8316422  31.2807851   5.9066146  20.3015137
  20.3724436   9.9874776   6.2874699  20.9710602   9.2790310   6.0508442
  20.6002192  10.7021563   5.6928444  57.6706362  85.3770542  88.1782246
  58.1953382  85.7208729  87.4552345  56.7981291  85.7444286  88.0368137
 101.9553663  13.7195199  26.6456127 102.4644591  13.5673945  25.8494282
 101.9382073  14.6718400  26.7406273  31.5684371  16.0776799  14.6139526
  31.1163430  16.7232268  14.0707111  31.1457972  15.2460568  14.3994522
  63.1619215  57.5398016  90.9636879  62.9195499  56.9551849  91.6818142
  64.0711451  57.7778101  91.1450577  29.2212205  30.7181256   3.4060669
  29.7198920  30.2637761   4.0851212  29.8347239  30.8057873   2.6765728
  77.6193057  20.8801453  24.0389919  77.7114318  21.8304675  23.9709377
  77.2748758  20.7354014  24.9202633  48.1788973   5.5976575   8.0919170
  47.4650530   5.2708905   7.5442982  48.7633853   4.8469012   8.1966496
  20.3642659  27.5925534  29.4344234  19.6091609  27.1246998  29.7910309
  20.1187567  27.7898495  28.5305309  22.4668173  18.9427559  26.5785503
  22.2107653  19.0318673  27.4965572  21.8680339  18.2845919  26.2256908
   9.6468644  20.7131522  20.0229359  10.5831294  20.9086411  19.9852085
   9.4005875  20.8949463  20.9298706 104.2429377  22.5970643  39.9130344
 103.5668541  23.2140153  40.1932430 103.7733795  21.7749636  39.7719765
   2.7987771   4.0824883   6.9255257   2.3197727   4.3900340   6.1559868
   2.1928386   3.4829753   7.3610210  41.0708952  93.0066013  84.5188332
  41.7837524  93.0831623  85.1530266  40.2927113  92.8433228  85.0517464
  59.0707874  75.9866953  90.3438759  59.6550274  75.3860617  90.8066273
  58.2705784  75.9946585  90.8690834  33.5704426   8.2143109   3.3550549
  33.1287484   8.4177725   4.1795158  34.1132359   8.9826338   3.1781673
  44.6455240  52.6686239  85.4751205  44.4235659  52.4880838  84.5616817
  44.2898941  53.5418940  85.6399155  14.6625952  29.9190514  37.6750946
  15.5800490  30.1916688  37.6611996  14.4353060  29.7959988  36.7534542
  51.4045048  95.9861755  88.9144039  51.0525417  95.1063728  88.7791348
  50.8609915  96.3573265  89.6094322  30.3469376  13.3902543  26.6042709
  30.3115515  14.3418448  26.7014790  29.5644097  13.0740969  27.0558548
   6.1502175  31.1681645   5.4661369   6.2509589  31.9676678   5.9827423
   5.8882432  31.4752381   4.5982075  24.6909003   1.0917227  28.0632496
  24.0223508   0.5401366  28.4694767  24.7188191   0.8019583  27.1513844
  67.8003454  86.9298172  80.2784348  68.1663036  86.9183350  81.1628437
  67.0574045  86.3276196  80.3188229  65.2867437  83.3001660   8.9977074
  65.0954533  83.8670109   9.7449207  66.0732723  83.6788200   8.6049938
  43.7969069   0.1889746  15.2801514  42.8931765   0.1321833  14.9698448
  43.8916354   1.0938733  15.5774879  95.5628301  37.5880139  31.3274574
  95.5977060  36.7674821  30.8357811  96.1211826  37.4344437  32.0896244
  55.5346012  49.2839098  91.1333561  56.2053537  49.0077639  91.7579079
  56.0279226  49.6176147  90.3840065  61.4937592  76.6967392  83.0407810
  61.2563086  77.5771093  83.3319855  61.7609882  76.8101025  82.1286583
  89.2952824 101.8224071  15.1702499  89.6137381 102.6329969  15.5674458
  89.7054482 101.8021129  14.3056202   2.6120858  20.4511302  41.5723896
   3.4258752  20.0687401  41.9006538   2.1511869  19.7186749  41.1633587
 103.6367919  61.0094636  17.8016281 103.0316211  61.0338967  17.0604134
 104.2070462  60.2622597  17.6207066  42.9101229  83.5970974  88.8497353
  42.0282125  83.2851887  89.0526485  43.0267620  84.3656635  89.4082451
  41.3167975  85.3168224  41.1316681  41.4535648  85.7471560  41.9756699
  40.8818466  84.4927572  41.3506794  62.8352594  62.7740288  76.0451126
  62.5390816  63.6371374  75.7560587  63.5302973  62.5407982  75.4296827
  80.6595476  26.1357205   7.7216816  80.1690669  25.4067509   7.3418617
  81.5678199  25.9710829   7.4683666  15.3946499  17.3268502  17.9810333
  15.7847552  17.3416703  17.1070576  16.1007552  17.0268624  18.5534477
  82.2665103  21.8670123  49.1655827  81.9099767  21.6985886  50.0377846
  82.6749875  22.7297871  49.2363071  37.4660973  41.3128178  13.2769871
  36.7063813  40.8558457  13.6378765  38.0425648  40.6132882  12.9694748
  39.4742207  34.1984265  26.7445660  38.6369900  33.7953560  26.5147495
  39.4244961  34.3307202  27.6912689  90.7679404  29.8247330  47.3953629
  90.0777520  29.9742406  46.7492008  91.5679432  30.1273911  46.9656754
  26.8898253  35.1674168  17.7862358  27.2460942  35.4489892  16.9436073
  26.1140351  35.7136243  17.9128265  73.4205440  24.4582026   1.4175415
  72.7316375  23.8890450   1.0744762  74.2335704  23.9874785   1.2341404
  41.6417027  32.8475857  87.8570652  42.0423365  33.0532980  87.0124245
  42.1438169  32.1015263  88.1849575  90.3777028  87.5145577  28.7542248
  91.0039712  87.6115631  28.0368614  90.0867558  86.6044615  28.6967468
  76.0317851  85.9744953  19.0718460  76.2929559  86.2075113  18.1809330
  75.2054430  86.4379715  19.2081547  83.1570108  10.6793158  11.8953323
  83.5204072  10.6016247  11.0132122  83.3403380  11.5832989  12.1511364
  10.6344084   4.1502612  16.0798168  11.0647826   4.1061347  16.9336605
   9.9942975   3.4387915  16.0971832  16.0340314  37.7430813  35.2158070
  15.4771380  38.4760659  34.9534321  15.5433087  36.9639104  34.9544430
  13.4460501  62.7249425  23.6252117  12.5691180  62.8637116  23.9829350
  14.0101056  63.2976525  24.1449165  97.0654084  44.5855897  11.6493988
  96.3461424  43.9774983  11.8200397  97.2863699  44.4429867  10.7290363
  28.6086182  17.8025239   3.1575203  28.7364964  17.1447318   3.8410378
  27.6582245  17.8744309   3.0691147  26.5676884  25.1977580  13.2179356
  27.0094208  26.0442488  13.1504345  26.8756632  24.8323529  14.0473175
  42.6642422  34.2900460  13.1815338  42.9609351  35.1998036  13.2050991
  43.2078890  33.8439362  13.8308907  25.0272755  32.9742520  30.4445839
  24.0734725  32.8941434  30.4528236  25.3259520  32.3478692  31.1038685
 104.6337701  99.0171455  52.5188923 104.4650412  99.9223875  52.7802277
 105.2724314  99.0877508  51.8094063  16.3480668   3.8495486   1.5061188
  16.0623793   3.6493867   2.3974895  16.9443946   3.1358283   1.2797737
 108.7111855 100.1397680   6.9318581 108.2248069  99.7977947   7.6819992
 108.9039756 101.0478471   7.1652031  97.4877049  54.3074315  46.2888622
  98.1850101  53.8489335  46.7576694  97.6163651  55.2297013  46.5104580
  38.8174014  39.8430531  11.4099312  38.5845856  40.5149167  10.7691288
  38.5830598  39.0170472  10.9868050   7.7404217  28.6740487  15.8201790
   7.9233985  27.8861516  15.3083515   6.9404702  29.0303223  15.4336739
  16.5028338  26.5568106  36.7355537  16.9693427  27.3108761  36.3750267
  16.4150052  25.9540694  35.9971619  89.8097945  82.3116587   9.6377277
  89.9916554  81.3832210   9.4922638  88.8830901  82.4112247   9.4196892
   1.5805225   9.8893254  10.1400852   1.2495713   9.0161841   9.9295521
   2.4428658   9.7322981  10.5247021  31.3047795  51.7523282  22.0433044
  30.5841212  52.2989266  21.7300892  31.1479191  50.8969300  21.6433907
  21.4460616  38.0036824  26.9347191  21.2129550  38.9227097  27.0661259
  22.1902423  37.8594105  27.5191975  12.9033665  12.0050614  11.9815350
  12.9226975  11.0809748  12.2303867  13.5663943  12.4163478  12.5360298
  89.3419708  43.0920594  41.7713547  88.9922394  43.9756959  41.6569233
  90.0203074  43.0142110  41.1005116  85.7205881  30.7178681  14.4187450
  86.1637522  29.9344533  14.0930080  85.0753368  30.9263985  13.7431717
 100.2176930  35.7336896  12.5186157  99.5511152  36.3260071  12.8665543
  99.8164011  34.8660653  12.5679302  97.8837515  16.0570042  15.3655815
  98.2183625  16.3467448  14.5168686  97.9546334  16.8289034  15.9271717
  29.6206765  28.3642094   0.4654503  28.6925654  28.5839360   0.3844357
  29.6523480  27.7129357   1.1662102  18.2987790  18.0050748  37.9623699
  18.8966279  18.5540240  38.4697819  18.8713317  17.4854939  37.3980618
  11.0066228   2.1200554  13.4395981  11.5200429   1.4663546  13.9142609
  10.3527121   2.4167626  14.0725231  37.7494073  59.3081141  89.4400883
  38.3941984  59.4706059  88.7515640  38.1583738  59.6475887  90.2361679
  62.5415182  52.5507641  88.9477634  62.8788090  53.0738497  89.6749783
  61.5962982  52.7009869  88.9628506  12.8071599  16.6631501  28.5693359
  13.4524779  16.8437235  29.2528534  12.6335292  17.5166695  28.1723595
  30.5630827  84.9549961  58.4428453  29.7758746  84.6305752  58.8802052
  31.2750316  84.7522068  59.0496683  27.4451165  20.5012601  30.0906944
  27.4786906  20.9745162  30.9220409  28.0627494  20.9655182  29.5256901
  16.5643172  12.6735156  21.4190578  16.5903144  12.9055493  20.4907703
  17.2106557  11.9732516  21.5090942  29.0254550  16.0887330   5.1920700
  29.0152173  15.6815951   6.0583115  29.8907427  15.8804696   4.8397446
  69.9084831  74.2070435   4.0339851  69.2140055  74.0323447   4.6691322
  70.7192469  74.0281795   4.5103264  60.4079748 101.2704681  27.5343704
  60.8521224 100.6545471  28.1171322  59.5104886 101.3083290  27.8649998
  25.8072381  50.3143494  17.9359341  26.3703589  50.3560822  17.1630287
  24.9488692  50.5993645  17.6225567 107.9665138  86.9961732  36.7189121
 108.5033418  86.2046902  36.7590237 108.0402471  87.2898190  35.8108521
 104.3284942  77.7839368  31.9377995 104.3942763  78.7271111  32.0872307
 104.7864057  77.3911755  32.6809597  98.3544636  81.5961933  63.2650805
  98.8063145  82.0066071  62.5277710  98.9334774  81.7435932  64.0129089
 107.5066616  58.9201729   1.5586185 108.0164672  59.0623753   2.3561859
 107.5730731  59.7471898   1.0812664  99.5331837  28.2103341  39.2554188
  99.2894675  27.8343098  40.1012611  99.0059020  29.0062134  39.1862679
  37.3720507  49.3135636  42.4243546  37.4762540  48.4243767  42.0856571
  38.2671981  49.6325963  42.5390816   9.3475299  21.7578786  17.3737144
   8.8868098  22.5963585  17.3434067   9.5116810  21.6083043  18.3047962
  77.3650265  61.9664240  90.9395027  76.6536093  62.5657272  90.7137680
  77.0896006  61.1222792  90.5820274  68.2780504  60.2476549  75.7252932
  69.0161228  59.7026634  75.9981680  68.4353876  60.4162598  74.7962856
  17.0959382  41.6816895  44.7476769  16.5465789  42.4333089  44.5251751
  17.7957253  41.6948407  44.0947151  12.6679997  25.9696763  20.8092690
  13.0330472  26.8536894  20.7706070  11.7983966  26.0523169  20.4178810
 110.4307963  34.3688958  14.8499775 110.1227952  35.1274865  14.3540859
 111.3677742  34.3227666  14.6597672  29.7318082  46.3691800  11.9354725
  29.8896126  47.1903699  11.4696598  29.0763907  45.9153931  11.4056301
   8.8774352  28.9564698  31.3545227   8.2887272  28.9215367  32.1084690
   8.2967000  29.0710633  30.6022930   6.4160876   9.4803469  33.0213928
   6.3417725  10.4232733  32.8744316   7.1088986   9.3938677  33.6761856
  97.4624778  97.1084951  10.8327866  97.5246192  96.1813234  10.6031704
  98.2700969  97.2909425  11.3130951  12.9266410  19.5123570  27.6749802
  13.2311349  19.6341508  28.5742474  13.1185250  20.3443854  27.2423840
  56.5288734  96.9387054  79.2579079  56.1891365  97.6911640  79.7422695
  57.3966312  97.2153473  78.9634752  69.5055628  82.2670841  91.0150146
  68.5712767  82.2111988  91.2155724  69.6600103  83.1973267  90.8505917
  38.6098246  52.5664704  20.6097221  39.1376023  52.6204484  21.4064503
  39.2487960  52.4501031  19.9065781  17.4103026  50.6011765   9.3771458
  17.8806214  50.6869214  10.2064133  16.4987282  50.4592698   9.6323490
  32.9811196  31.0163872   2.8385925  32.8844361  30.0659268   2.7793884
  32.5021462  31.3534825   2.0815086  39.7763924  25.1296609  29.1148758
  39.6049599  25.3290742  30.0352478  38.9256196  24.8657458  28.7644959
  26.2877946  17.8465788  12.0209408  26.8818049  18.1495087  11.3341904
  26.7913727  17.9364483  12.8299904  10.0037865  27.4087803  20.2310562
  10.5375485  28.0835335  20.6506252   9.2011313  27.3801510  20.7517815
  49.7492886  46.5990257  90.4350281  50.2142620  46.7598009  91.2561131
  50.4380608  46.5732050  89.7708321  26.0920815  11.9668620  45.0256348
  25.2789120  12.0742076  44.5322037  26.7674832  11.8650572  44.3550396
  78.1903983  83.7309955  12.7394867  78.5101033  84.6317552  12.6880074
  78.4917832  83.4182619  13.5924816  73.8133907  58.9777899  74.9975967
  74.1034508  59.5642471  75.6962824  73.2592058  59.5245123  74.4406319
   4.4996600   5.1410525  42.8890038   5.1569848   5.7356351  43.2504272
   3.7588792   5.7067864  42.6712513  24.9010758  24.9426787  21.7625809
  24.1070799  24.4624512  21.5276718  24.5822482  25.7456343  22.1747017
  12.1489577  17.0503991   6.7427158  11.5411143  17.7306550   6.4528847
  12.8996091  17.5321334   7.0901203 104.6801711 103.6975835  15.9397507
 104.4160271 104.4681762  16.4423847 103.8572360 103.3225416  15.6261444
  72.4411638   8.2594769  54.8705101  71.6432954   7.7333157  54.9233818
  72.9193632   7.8952019  54.1256142  17.5478797  32.7428239  12.2103596
  18.2045226  32.2093480  11.7626381  17.2714858  32.2078889  12.9544544
  16.6213898  29.4171612  33.4346104  16.3413243  29.6270840  32.5436974
  16.4855055  28.4728329  33.5121441  37.6954846  46.4074700   7.5667095
  36.8960433  46.6528027   7.1009445  38.1254916  45.7770817   6.9888401
 107.7385546  41.5130608   8.4413624 107.2924186  42.3574345   8.3764458
 108.1389095  41.3869374   7.5811100  96.4699985  22.6716082  10.6154442
  95.5640222  22.9511731  10.7469177  96.4987136  21.7806332  10.9641075
  90.1079322  94.0564989  18.2441807  90.5325604  94.6454881  18.8678932
  90.7699633  93.3920072  18.0533886   4.6342091  26.1648886  87.5958252
   3.6948065  26.1872046  87.7781868   4.8059230  26.9795554  87.1235275
  48.0365133  34.8260784  73.9166927  48.9320135  34.5379066  74.0935326
  48.1205750  35.7573962  73.7122154  64.6188307  73.8268375  86.8119907
  64.6530437  74.5491505  86.1848354  65.0928783  74.1516495  87.5775051
  22.2309546  30.7543080   8.1404209  22.9327302  30.7591050   8.7913609
  21.8209271  31.6151993   8.2239342  40.2778482  66.9096279  65.7718945
  40.7096338  67.5637484  65.2224255  39.5633316  66.5753555  65.2297115
  44.2019992  24.5899670  17.5136852  43.9932398  23.7510817  17.1026707
  43.3581595  24.9243348  17.8176117 107.2469403  54.4536870  17.6677418
 106.6038372  54.9961083  18.1242847 106.9204475  54.3999188  16.7695522
  70.2880502  87.0721053  23.4636307  70.9565640  86.6436123  22.9291058
  69.8537780  86.3544415  23.9247131  82.5897789  66.6620779  89.2515373
  81.9745541  67.0066690  89.8988342  82.3460197  65.7413960  89.1558170
   7.7972750  55.1514142  29.1368008   7.9420237  55.5801003  29.9803066
   7.2606187  54.3868153  29.3456745 106.2565089   0.9886188  68.1155634
 106.2342501   1.8016452  68.6202621 105.5619384   1.0914630  67.4650097
  87.3013783  36.1236525  87.0744038  87.9356098  35.6965804  86.4985657
  87.3127270  37.0418167  86.8040752  35.3395801  96.8395017  27.2101021
  35.2634440  96.1757492  27.8955650  35.5762679  97.6405405  27.6775932
  12.1164707 100.9623741  12.6310825  12.3397163 101.6565202  13.2512188
  11.6892628 100.2925323  13.1649685  19.8144583  24.2604201  28.8928890
  20.1505952  24.5860570  28.0578995  18.9300828  23.9542096  28.6920166
  27.6217370  18.1790154  14.6380997  27.3407511  17.8284400  15.4833126
  27.1505694  19.0079730  14.5540524  38.3143620   7.1226351  23.6059570
  38.4118609   7.0068734  22.6607990  37.9260735   6.3018792  23.9089870
  40.9299950  18.2778638  44.2936230  40.2847914  18.5938542  43.6610985
  40.9969954  18.9814036  44.9392033  47.9376845  21.9851010  17.0890713
  47.4521022  21.1646693  17.1747017  47.9304461  22.3607152  17.9694653
 110.2953339  38.7269610  62.1989298 110.5307341  38.0131454  62.7916288
 111.0300303  38.7831134  61.5879488   1.2332563  35.1715462  36.5967655
   0.3622727  35.2613156  36.9834995   1.2371568  34.2930596  36.2166595
  19.6768050  34.2996304   6.6067886  19.7709040  33.8311284   5.7773972
  20.5433421  34.2488282   7.0102215  24.6065144  50.5731480  11.5836811
  24.8112635  50.1916020  12.4373341  25.2427153  51.2805836  11.4787292
  28.0190043  65.9854596  24.4628143  28.0828242  66.9008153  24.7353458
  28.9199643  65.7318680  24.2623234  10.8883719  43.6057751  20.1526070
  10.6640820  42.9170029  19.5268917  11.7197709  43.3223622  20.5329704
  38.6656098   4.0914338   6.2887859  39.4347243   3.7696402   5.8185291
  38.5437016   4.9842684   5.9659767  93.5753822  80.2513027  76.3253689
  92.8017139  80.2428627  75.7618141  93.8845730  81.1566544  76.2941599
  86.3473988  86.6521263  80.9634972  85.9491730  87.2004414  80.2874756
  86.0762405  87.0544052  81.7886448  93.2932664 100.3099607  28.0298138
  92.3791695 100.4895519  27.8097916  93.6897183 100.0374578  27.2022820
   5.2051119   2.0778220  10.6380081   4.8580699   1.1866038  10.5989456
   5.4673152   2.2723954   9.7382164  36.8620209  16.2302773  21.5943241
  36.9708733  17.1782582  21.5187073  37.4664597  15.9746163  22.2911167
   2.4141769  58.6688893   4.0403461   2.4528913  59.3125718   4.7477436
   2.0428972  57.8866475   4.4483662  38.1077437  21.0569279   3.4041500
  38.8959508  20.5155366   3.3611393  38.0334906  21.4416688   2.5308323
  84.1366100  73.2149887  63.3341026  83.3510876  73.7531137  63.4321022
  84.5866585  73.5842848  62.5743008   5.2898507  56.9165318  20.0636101
   6.2021022  56.7035096  19.8670006   5.3135638  57.8293603  20.3506851
  -0.2938433  13.0322163  29.1266537   0.1144819  13.5922949  29.7868156
   0.4419784  12.6207202  28.6733627  28.9159588  45.9808915  18.7683392
  29.2040305  46.3151066  19.6177864  28.1734662  46.5366738  18.5315800
  39.1047387  28.9023106   7.2224522  39.2069153  27.9700368   7.0309830
  38.2401185  29.1244118   6.8770027  56.1673641  78.7018156  77.9355145
  56.5074396  78.5539675  78.8179636  55.4080629  79.2704010  78.0635929
  10.1217178  97.4598192   8.6456585  11.0124782  97.1199058   8.7307167
   9.5609383  96.7316459   8.9130974  27.3431019  23.5333579   6.7016411
  26.8193059  22.9419415   7.2420979  28.1824116  23.0845635   6.5997696
  22.0170836  19.9924748   4.0431595  21.3140635  20.6347983   4.1401482
  21.7349343  19.2467635   4.5728207   1.2251285 104.3107151   9.8416710
   0.7929329 104.7007345   9.0818501   0.6155876 104.4567989  10.5650997
  11.5999941  30.6400864  37.7541351  12.3982291  30.3431313  37.3172474
  11.0999732  29.8388665  37.9098988   9.7178368  67.6537697  33.8211250
   9.2318778  66.8354218  33.7192535  10.4196362  67.5979130  33.1725979
  52.1212153  39.2527955   0.4754734  52.6135974  39.3909638   1.2846088
  52.5491576  38.5044091   0.0595188  96.8837072  29.5981305  15.7829857
  96.9577123  29.5018094  16.7324448  97.7831246  29.5241635  15.4639053
  34.5101027  47.5041192  36.0130692  35.4361157  47.4766152  36.2538338
  34.1284089  48.1540291  36.6031075  81.6814698  15.6768696  10.3431702
  82.5512607  15.7515471   9.9505901  81.1898877  16.4125292   9.9779606
  40.1500563  33.7034600  11.3488197  40.9094720  33.6113446  11.9241714
  39.3990950  33.7084477  11.9423389  26.2901263  43.1815522   9.1243839
  25.4577927  43.6527722   9.0868950  26.5395503  43.0626958   8.2079315
  22.9203510  63.6901999  78.6692476  22.0722008  63.6510897  78.2272720
  22.7326131  64.1042519  79.5115948  49.5069365  32.3750584  14.1880989
  49.9977927  31.5662663  14.0426540  49.6251921  32.5628464  15.1192188
  22.8372864  64.9498932  21.7730427  22.8488450  65.3747265  22.6307201
  22.1678738  64.2702096  21.8514252  33.4657006   9.2616885  18.0231571
  33.0143027   9.3573039  18.8618088  34.2274718   8.7172167  18.2218838
  27.9459815  12.8063433  27.9337120  27.5965647  11.9336312  27.7533913
  28.0128340  12.8451388  28.8877869  99.2606617  47.2383587   9.6791935
  98.9693166  46.4743893  10.1768970  99.2521836  46.9475930   8.7672710
   3.9160398   4.7268123  87.8888321   3.7926725   4.4748420  86.9736671
   3.2324795   4.2524642  88.3620930  41.7752509  14.5142214  30.7869244
  42.3147778  14.9457400  30.1244068  40.8768134  14.7476475  30.5533695
  71.6662264  94.0931225  78.5976982  71.9066381  94.7125340  77.9086685
  72.4617815  93.9964676  79.1211319  98.5301208  73.8127661  68.5371256
  99.2146683  73.1494045  68.4500790  98.7729836  74.3061876  69.3205690
 102.3540093  20.5754035  32.8174400 103.1631686  20.0686352  32.7490520
 101.6573073  19.9198668  32.7842140  14.7949509  23.2584422  24.5004845
  14.3634419  23.6278670  25.2709198  15.5630402  23.8137858  24.3668175
  89.6058846  72.3746872  88.3241844  89.6650410  72.3417616  89.2789841
  90.4090595  71.9522667  88.0197334  29.6689944  27.0357411   8.7344456
  29.7971968  27.7140706   8.0713749  30.1762299  26.2895339   8.4148979
  20.2582316  23.7384551   8.2641125  20.2698712  24.3039076   7.4918747
  20.9628014  23.1089585   8.1106758  33.8686089  45.1757329  20.5668259
  33.3617310  44.8549836  19.8208904  34.7717480  45.1988499  20.2505302
  34.6689276  37.4962132   1.4456177  34.1982655  36.7794125   1.0202885
  35.3748088  37.7138035   0.8368301  88.4289646  70.0255775  86.3374805
  87.9420471  69.3683481  85.8402920  88.8024616  70.6020212  85.6708050
   1.2032084  60.2816193  15.4833984   0.9675316  59.5888322  16.1004257
   0.9657411  59.9293702  14.6256351  51.2016349  29.2171662  10.0871658
  50.8332209  28.9687245  10.9349728  50.4742198  29.6299069   9.6216011
  31.1487059  52.9062836   5.6379700  32.0020728  53.3395856   5.6534767
  31.2386613  52.1780198   6.2526035 108.8129188   6.3687556  34.8838043
 107.9979183   6.8672269  34.9432755 109.2255665   6.4813416  35.7401180
  13.5953860  45.4507439  17.6407242  12.9575305  44.7772496  17.4045753
  13.3482556  46.2102025  17.1131039  22.3545985   6.9536250  14.7841549
  23.1507353   6.4630358  14.5798969  22.4442677   7.1811574  15.7095814
  17.6372056  38.3613675  12.8822517  18.1712918  38.1222909  12.1247387
  17.8225760  37.6815693  13.5301399 101.6424132  88.8061689  22.4125671
 101.9199229  89.3340610  23.1612587 101.5155268  89.4399284  21.7065334
  22.9397730  49.6689980  22.1610451  23.1467394  49.2297261  21.3361549
  22.0067267  49.8726647  22.0964050  66.5898132  82.3605061  56.4872837
  65.6370735  82.3433781  56.5779734  66.9024086  81.7152023  57.1214008
  46.9755606  29.1935723  13.8373184  46.8948035  30.1469987  13.8635445
  46.0731845  28.8780301  13.7885094  51.9511938 101.6287422  80.1394272
  52.8564548 101.9359303  80.1880836  51.6722918 101.8452549  79.2497301
  27.0634560   9.8224585  17.9665089  26.7551713   9.0619605  17.4737263
  27.7470641  10.2037804  17.4155998  24.9069743  30.5063336  21.7248535
  24.1959386  30.8458703  22.2683430  25.1109032  29.6513836  22.1039391
  53.6369853  22.2564881  60.9753704  54.4906573  22.6057189  61.2313271
  53.7587504  21.9644683  60.0719738  41.8977928   6.5171045  87.9740715
  42.5955009   7.1705025  88.0241489  41.3434267   6.7000455  88.7326527
  19.6485758  33.3070111  78.0209017  18.7192321  33.5358000  78.0065155
  20.0074625  33.7131524  77.2319269  42.2819376  26.0042524  71.7432356
  41.3700247  26.2934160  71.7753410  42.3547506  25.5331874  70.9131622
 109.1243549  99.6592432  89.4490528 109.2363974  99.3388313  90.3440475
 108.8377305  98.8917690  88.9540195  65.6613446  94.7202371   6.3512325
  66.2863494  94.0018533   6.4488316  65.7066417  95.1917814   7.1829891
  59.9277401  24.1236639  90.2227116  60.3889847  24.7289419  90.8033371
  60.2419949  23.2573056  90.4813576  34.4094777   3.3296177  64.1858387
  35.3298473   3.1607008  63.9843035  34.3548989   4.2809188  64.2768288
   6.5795760  14.2127173  28.6747170   6.7012839  14.6845238  27.8508091
   5.9871058  14.7668641  29.1827869  57.3771787  83.0179165   1.8191719
  56.6707993  82.3732208   1.7788315  57.4710227  83.3270954   0.9181595
  97.9759932  93.3932422   1.8059921  97.6670218  93.1704115   0.9278584
  97.1761609  93.5240816   2.3152924  57.7267170  40.7362986  84.4989014
  57.4477100  40.9676695  85.3848171  57.7583885  41.5713120  84.0320110
  64.7462869  84.1999863  28.9326954  64.8619867  84.7333597  28.1463337
  64.4257975  84.8138903  29.5934772 103.6632678  10.7757676  78.5758686
 104.5012185  10.3221321  78.4848452 103.8874653  11.6143346  78.9793205
  82.6793290  65.6893347   7.2316074  82.4504901  66.5057098   6.7873096
  82.6839543  65.9159266   8.1615925  10.5005801  14.8881137  86.7341614
  10.5563641  15.8265769  86.9141865   9.5695299  14.6828401  86.8192577
 110.5873299  71.3032864  17.0535946 111.0656501  71.4927565  16.2464142
 110.0670911  70.5267988  16.8470669  68.7092233  70.1866566  37.1377563
  67.8537274  70.5963634  37.2661972  69.1476823  70.7441352  36.4949512
  39.5056462  16.6253090  59.0228653  38.6282277  16.6530192  58.6412907
  39.7044516  15.6920648  59.0987730  26.3868499  64.3347073  54.0297222
  25.9812784  63.5531807  53.6542797  25.7771635  64.6169090  54.7115421
  48.4190845  31.7773533  75.2928877  49.0892839  31.6192913  74.6279955
  47.5937080  31.5687537  74.8553181  67.2930337  90.9304904   1.0231018
  66.3714720  91.1833953   1.0778332  67.5903607  90.9105800   1.9327354
  43.2979107  39.3050909  78.4356260  43.0822897  39.7579002  79.2509174
  42.6094532  38.6473179  78.3376741  18.8364160  42.5118065  91.5197086
  18.0440927  42.6761341  91.0083866  19.5516729  42.6094961  90.8911419
 103.4555245  38.2356094   4.5211124 102.9759694  37.4904870   4.1590977
 103.5504533  38.8398908   3.7848568  95.6557418  55.4217844  10.7185936
  96.5549660  55.6880211  10.5269146  95.4230738  55.9135454  11.5061665
  44.1319240  99.9181388  21.1751747  44.7376312  99.7934078  21.9057941
  44.1812748 100.8539795  20.9802437  73.0874420  69.2090629  30.3230953
  73.5548449  69.9706493  29.9799442  73.1133819  69.3203198  31.2734509
  97.7706385  92.9703306   6.3017845  97.0002366  93.4013723   5.9317589
  98.4169007  93.6706852   6.3916683  69.8776484  36.9801712  89.7896004
  69.1045952  36.7530394  90.3063583  70.0769424  37.8821397  90.0405312
  16.7986346  84.6532940   4.8020554  17.1646882  85.1911830   4.0999794
  17.2425676  84.9579500   5.5934715  25.7219887  63.0761719  76.2347698
  25.6134772  62.1298695  76.3294649  26.5705514  63.1780052  75.8037186
  14.8300016  26.3929224  65.7863283  15.6143713  26.1968708  65.2739239
  15.1215959  26.3488650  66.6969681  45.7244904  73.1621312  26.4606571
  46.5055842  73.2453941  27.0076466  45.7507885  73.9282011  25.8873558
  83.5263396  80.7716869  37.0446110  83.3667470  80.9902476  37.9627609
  82.6659346  80.8358215  36.6300869  97.3644496  97.1584247   1.2439156
  97.9864503  96.8093799   1.8822861  97.5551463  96.6797422   0.4372406
  33.5688472   4.7835913  76.3500023  33.9998746   4.2362204  77.0063829
  33.6874533   4.3091318  75.5271721  53.3539153  56.6699286  17.4117661
  53.4254349  57.6192118  17.5116539  53.6912895  56.3163956  18.2348251
  44.2386264 103.9287208  -0.3156281  43.8961769 104.4384788   0.4186153
  44.4111133 103.0627035   0.0538254  25.9509349  29.1115117  52.3987389
  25.2909231  29.8045135  52.4178028  26.7767859  29.5623851  52.5745630
  29.7837973  54.7925642  15.2754307  30.1268632  55.6700115  15.1062393
  29.9311400  54.6540718  16.2110233  95.1229001  87.6400732  25.6890774
  94.9388600  86.7811154  25.3088856  94.7214604  88.2617282  25.0819397
  50.8372725  61.5210007  33.5989761  50.9919620  62.4501811  33.7690544
  50.0034261  61.3341402  34.0302753  30.7181382  13.2339525  48.9630699
  31.3625836  13.9015949  49.1979647  29.8741126  13.6272478  49.1848183
  44.9144602  22.6108074  51.1538935  45.2317572  23.4962869  51.3313246
  43.9775658  22.7202249  50.9911394  90.3897334  26.5317439  13.6942291
  90.0516845  26.9287466  14.4969368  91.1558772  27.0599412  13.4700394
  48.9361978  57.2994812  19.4900608  48.4402502  56.6160597  19.0392876
  49.4409025  57.7256225  18.7973118 101.1210748 101.3938644  64.9951887
 100.4068371 101.0977691  65.5594826 100.7455989 101.3958722  64.1147089
  66.9335891  74.4458841  20.1620007  66.0357977  74.5925497  19.8641872
  66.8592406  74.3570088  21.1121655  99.2155561  53.0111408  84.8268032
 100.0562462  53.4057331  84.5949268  99.3519363  52.0709324  84.7099876
   1.7591643 100.6242609  89.0674114   2.6279616 100.6985438  88.6725712
   1.6209792 101.4656982  89.5022964  46.9794607  45.8004570  67.8985167
  46.1995077  46.2058067  68.2774544  46.6877651  45.4667091  67.0501328
  33.3742332   8.7940174  88.6055565  33.5466242   9.7355419  88.6123276
  33.1733632   8.5807425  89.5168209  83.1774188  60.9500443   2.5991917
  83.4141017  60.0347822   2.4491692  83.9428378  61.3274025   3.0327320
  30.5563927  54.2759323  84.2371845  31.3919568  54.5887184  83.8904381
  30.7549691  53.4114933  84.5970917   8.4271157   9.0636551  89.4464397
   8.8912696   8.9948022  88.6121368   7.6368332   8.5374063  89.3249989
 105.4890928  54.4535732  75.2679682 104.6081921  54.1026115  75.3986216
 106.0465321  53.9177036  75.8321810  11.6925132  33.2617855  60.4169703
  11.1498904  33.7851310  61.0067987  11.0743845  32.8958106  59.7843456
  73.2535458 101.1770938  30.9952545  72.9319764 100.3045200  30.7684612
  73.5829879 101.0860323  31.8893528 111.5131541  99.6475363  87.5279427
 112.3763081  99.7383612  87.9316139 110.9066149 100.0048125  88.1765556
  29.5374560  35.7348943  78.3934641  29.9929643  34.9562263  78.7134981
  30.2054071  36.4205146  78.3945704  58.4612346  94.8630689  61.1767006
  57.7633334  94.5631574  61.7591190  58.7298609  94.0774416  60.7003975
  32.0089650   4.3238372  72.5148821  31.4016628   4.0559188  71.8252182
  31.7879391   5.2392542  72.6863194  15.8710408  43.5823011  60.2096272
  16.0390055  42.9104233  59.5488739  16.0856879  43.1594658  61.0411119
  22.0123982  14.8654473  73.2374716  22.5694180  14.3817115  73.8473558
  22.2783065  15.7788730  73.3431959  75.2279115  53.4232744  15.9740257
  74.3466306  53.2082213  16.2795258  75.1644278  53.3934095  15.0194073
  40.9719706  20.3691769  54.8930693  40.3303957  21.0291553  55.1558161
  41.7141008  20.8750296  54.5620298  76.6123296  89.8832320   0.4856586
  77.2049905  89.9286555   1.2359333  76.9827128  90.4960321  -0.1495838
   3.2313913  83.5871506  90.9443188   4.1322434  83.2659626  90.9051514
   3.2117695  84.1516685  91.7170811  91.9237376  95.3446888   0.5712414
  91.5073825  94.5044063   0.7630825  92.8381825  95.2226947   0.8264732
  74.9369717  65.1992808  18.9517021  74.6398307  65.5813371  18.1258774
  75.7920886  64.8211561  18.7466908  30.8165526  28.0440140  65.4729128
  30.4084706  27.1802974  65.5336714  31.0285354  28.2729483  66.3778353
   4.9238591  28.4631531  21.1080360   5.2441649  29.1826718  20.5640507
   4.1596274  28.8243191  21.5571976   3.2970910   1.8539660   3.2142544
   3.6733298   1.3571875   2.4876976   4.0264706   1.9803040   3.8211155
  47.9305304  79.4362973   9.0256786  48.1800092  78.5121821   9.0269184
  48.2787550  79.7794984   9.8485947  44.3148088  24.1978407  75.8841324
  43.4738445  24.2327094  76.3399839  44.1504478  24.6281791  75.0450706
  69.1737509  71.1259531  29.2390728  68.4602524  71.3229023  28.6321449
  69.2080117  71.8840026  29.8225212  90.0239135  63.3941077   2.4019146
  89.8973418  64.2899536   2.0893860  89.3271447  62.8922127   1.9790077
  63.3050346   8.4391552  69.5610237  62.8562927   9.2845744  69.5725298
  62.7938366   7.8885692  70.1541233  83.7321139  97.4803709   2.5186729
  82.9191828  97.3057483   2.0444584  83.8913394  96.6825174   3.0229664
  68.4471203 100.3291343   4.4822788  67.8647209 100.3067993   3.7229729
  68.4288383 101.2414430   4.7714043  26.9650006  21.8472624  77.5119495
  26.3598490  21.2017536  77.1467876  27.7719784  21.7293835  77.0108318
  44.1319942  42.6890612  83.2489300  44.5852423  42.4557257  84.0590858
  44.8335934  42.9181290  82.6394081  25.3945875  80.9434986  69.7844124
  25.6381536  80.7937813  68.8709068  26.2005401  80.7857227  70.2761269
  20.9577084  32.1609139  75.5359936  21.5801883  32.3273182  74.8281384
  21.5054560  32.0159841  76.3074827   4.0540127   6.0565512  21.1284351
   4.6503834   6.7680829  21.3614559   4.6130662   5.4037898  20.7070160
  12.7349675  34.1818833  89.7530270  13.2420790  34.8486781  90.2161217
  12.5820804  33.5000205  90.4071808  69.6254302  86.5198015   4.9847412
  70.2700258  85.8184599   5.0787926  68.7869120  86.1024903   5.1821613
  27.7524757  39.0777802  75.4852581  28.6739421  38.8188410  75.4942656
  27.2710705  38.2513976  75.5248928   4.1753773  79.5967172  29.5237446
   3.2273201  79.4647192  29.5234108   4.3644432  79.9777483  28.6662483
  63.3003187  59.3304682  85.9128571  62.7450228  58.8688421  86.5411663
  62.8127241  60.1267481  85.7020855 107.0869971 102.0481943  12.7150154
 107.4664212 102.6025509  12.0331383 106.1644889 101.9678663  12.4726105
  36.8698601  33.8546174  25.4150391  36.2351708  34.5683758  25.4778767
  37.2333769  33.9343159  24.5331383  19.2122054  40.0116587  87.9628944
  19.6003699  40.8406115  87.6829052  19.5614624  39.8686624  88.8425541
  77.5573922  63.0662058  21.8157959  77.3334838  62.6848363  20.9668827
  78.3541728  63.5698854  21.6494274 100.5654145  93.8544344   5.4908371
 100.0456000  94.6162819   5.7469940 100.5450822  93.8613962   4.5338821
  37.7833557   5.4528719  65.5369473  37.7078819   4.9246275  64.7422838
  37.0504284   6.0665238  65.4871368  71.5640832  84.7047542  34.7143650
  72.4734379  84.4059681  34.7087193  71.3997627  84.9889349  33.8152123
  30.3777862  58.8503504  58.7360716  31.1278820  58.8713789  58.1418085
  30.7241607  59.1671515  59.5702744  36.0451722  22.4574256  79.9385834
  35.4258585  21.7341161  79.8410892  36.8080854  22.0640659  80.3622150
  10.4945091 102.4733614  25.2375126   9.8216633 101.7926429  25.2495003
  10.7523445 102.5714420  26.1540985  26.8732762  35.6619501  68.1409264
  26.8160367  36.3983870  68.7497091  26.0046697  35.2606797  68.1680822
  49.0737868  80.4414104  15.5635929  48.8023437  81.0276865  16.2698746
  49.5833433  80.9969329  14.9736977  71.7527246  14.0458381  76.3315439
  72.0486021  13.9964736  77.2405243  72.5593138  14.1115069  75.8203411
  42.9591131  10.7837784  89.4834328  43.0210686  11.5904415  89.9949837
  43.5889196  10.1910639  89.8936367  43.9609289  30.6067491  81.8071747
  44.4503307  31.4008999  81.5925980  43.5876083  30.7815528  82.6710701
  68.2870413  77.2366451  17.5316525  67.3716069  77.4126028  17.3142910
  68.3588196  77.4550103  18.4608459  78.1225873  94.2203783  11.7750740
  79.0276099  94.5252536  11.7101479  77.9500533  94.1809009  12.7157688
  53.4977234  70.5567585  10.0977898  53.4364260  70.1142930  10.9443665
  53.8082660  69.8803269   9.4959259  24.9120593  33.9480829  69.0273619
  25.3600597  33.7751389  69.8553801  24.2039132  34.5489550  69.2591238
 111.0968162   4.3620150  11.2731361 110.3303505   4.5241301  11.8231201
 111.6996242   3.8792794  11.8386650  74.5933152  92.7148222  30.6663513
  73.6502314  92.8784011  30.6581974  74.6841169  91.8575214  31.0823154
  32.9799438  65.5245972  77.3277426  33.2873559  66.2696981  76.8114519
  33.7469006  64.9579096  77.4106216  70.0318599  81.6172312  40.8231545
  69.6689773  82.0393561  41.6018486  69.3085910  81.6088580  40.1962185
  29.5354561  14.2631858   1.6868687  30.1331763  13.5437052   1.4836121
  29.0100960  13.9387505   2.4182796  93.6435986  64.5606232  88.3464336
  94.3953323  65.0294495  88.7088203  92.9491806  64.6849966  88.9933872
  88.9009238  72.0495807   7.6324272  89.5879842  72.0654069   8.2987118
  89.0001870  71.1982845   7.2062016  28.5596466  28.5106301  70.1179981
  27.7379584  28.1858850  69.7497559  29.0886354  27.7244735  70.2534962
  47.0557356  14.0194881  90.5356121  46.6657829  13.5229766  89.8161316
  47.1835232  13.3738029  91.2305832  76.4060283  94.1215871   3.7336731
  75.5221034  94.0062164   3.3849621  76.2926460  94.1050647   4.6839905
  53.8255453  31.3105178  84.7549248  54.1592598  30.5426168  84.2910290
  54.6044731  31.8342853  84.9424648  90.8384276  84.9366258   4.4536018
  90.4543257  84.5143603   3.6852360  91.0575677  85.8199333   4.1569996
   2.4415592 102.0800565  18.1573772   3.2819275 102.3374675  18.5365295
   2.1264748 102.8686451  17.7156925  33.6748600  10.1545763  80.1677608
  33.4990764   9.2718327  80.4934883  34.4376874  10.4465401  80.6668377
  28.2865572  11.9274569  79.1366148  27.4785542  12.3119926  78.7967634
  28.0249763  11.5043926  79.9544287  93.0710889  65.4124938  11.4847469
  92.3866797  64.9028658  11.9184399  93.0813504  66.2471913  11.9531536
  39.7694731  37.7239704  56.6357279  40.0340462  36.8057632  56.5797710
  40.3112984  38.0870795  57.3363066  33.6958480  16.9203496  78.8737535
  34.2466426  16.3336301  78.3554697  34.0239501  16.8289065  79.7683048
  42.5434662  95.1329683  27.8919792  42.7362115  95.7346748  28.6110306
  43.3399124  94.6106313  27.7967453  71.3166404  69.3354820   0.2744198
  72.2026277  69.6628402   0.1191998  71.2526227  68.5504840  -0.2695656
  91.7623199  10.9861081   7.3608303  92.1471788  11.7137234   6.8722725
  90.9413208  10.7995074   6.9054413  68.6254359  95.2232145  29.2268372
  69.2375422  95.2397703  28.4911156  67.9103685  94.6599220  28.9308453
  24.7807527  36.1523414  83.2922840  25.6509209  35.8589578  83.0221653
  24.7186160  37.0500183  82.9658699 109.6646224  32.5807142  39.8799181
 110.3701913  33.0024195  40.3703976 108.8865286  33.0984592  40.0866604
 107.8991128  90.9473132  33.1561470 107.6672221  90.0452660  32.9353046
 108.7059117  90.8694099  33.6652946  66.8051172  76.4631079  22.5064564
  67.0273853  75.6573628  22.9729366  66.6197992  77.0974253  23.1989384
  92.9797316  81.9057368  29.8967457  92.1596194  82.2147368  30.2816772
  92.7652503  81.7376088  28.9791584  99.0273095  60.2118497   0.9795570
  99.1837359  59.7602467   0.1502132  98.7771989  61.1000805   0.7251549
  21.2501431  34.1110110  85.9835911  20.7205939  34.6980429  86.5232277
  20.8243918  34.1243935  85.1263905 101.2496997  91.5418528  13.1696606
 101.0676099  91.0327791  12.3797703 100.9415198  90.9886716  13.8874626
   7.0740014  23.3907247  89.4356728   8.0074084  23.2092738  89.3258572
   6.8033618  23.7684751  88.5988331   6.4160830  46.3017797  89.4756508
   6.0797668  45.9692287  90.3078365   5.9070045  47.0956135  89.3116474
  71.5172840  88.4197091  25.3096771  71.0748578  87.8723453  24.6609211
  71.8963505  89.1359614  24.8002434  33.4213305   8.6836737  72.9973745
  33.2305169   9.5533538  73.3487701  34.0619040   8.3148700  73.6055565
  34.3352199  25.7706857  64.2369890  33.9021564  26.5635157  63.9205837
  33.6171842  25.1877356  64.4836187  65.5790615  20.4661822  74.1041756
  64.8711777  20.6468344  74.7226429  66.1202145  21.2555218  74.1223097
 101.0331441  87.3861264   8.5440826 100.3520776  86.7480348   8.7567520
 101.8226052  86.8601702   8.4162140  38.6302781  44.8041534  87.0934391
  38.0289817  44.2240524  87.5605106  38.7859392  45.5272245  87.7010250
 110.9336640  10.6969636  11.5037346 111.1603786  11.5992587  11.7288876
 111.4096166  10.5260842  10.6910229  56.4010907  96.9192098   3.3841991
  56.7593492  96.2764667   3.9963818  57.1705223  97.3484300   3.0100632
  55.8409071  12.1505082  74.5225859  55.2114916  12.8496718  74.6993303
  56.3796329  12.1078610  75.3126431  38.3311725  49.5109129  72.4532890
  38.8341999  49.1983652  71.7012835  37.5122929  49.8329782  72.0765352
  13.2579426 104.3537830  10.7553673  14.2059044 104.4601081  10.8347225
  12.9288677 104.4658111  11.6472149  52.0083284  23.0965638  70.4451370
  51.6175556  23.5426211  69.6937656  51.4041948  22.3798490  70.6389713
  79.4038200  39.3474984  79.2584085  78.6986160  38.7038660  79.1901445
  80.0902748  38.8991833  79.7524023  68.3727480  99.3472360  43.4895229
  68.4827853  99.1322158  42.5632954  69.2639900  99.4819711  43.8116455
  86.3924552   7.4399130  23.6679459  85.9171773   7.7640526  24.4329834
  85.7936515   7.5840085  22.9352093  58.2586575  40.1968098  90.9885788
  58.5365725  39.2809296  91.0013008  57.3380852  40.1641750  90.7283592
   0.2349543  23.1578326  86.6795635   0.2598656  22.5248528  85.9619617
   1.1116929  23.1210446  87.0619297  75.1507807  23.9315343  83.0733109
  75.3862858  23.0320859  82.8458023  74.2638683  23.8647199  83.4270859
   2.8622393   9.1618340  35.2074814   2.6035146   9.8409693  35.8304310
   2.2382288   8.4511559  35.3550625  60.0024605  34.1115284  87.5360107
  59.8354101  33.3615279  88.1068230  60.8264065  33.8997650  87.0972633
  25.7421398  53.3368587  73.3534765  26.1057734  52.7677917  72.6751232
  24.9205470  53.6578465  72.9817533  23.6061954  27.5532770  80.6176186
  23.4369278  28.4828281  80.4642677  23.5744286  27.4579000  81.5695286
 112.0931081   5.4275709  78.0163860 111.8415981   4.9768251  78.8224888
 111.2628074   5.6217515  77.5814962  86.5722562  27.4016117  22.6074696
  86.3939667  28.2682608  22.2422791  86.2748957  26.7914890  21.9325256
  35.4200768  45.4566813  88.0604172  34.7759318  45.9041834  88.6090946
  36.2665558  45.7210350  88.4207249  61.5393592  82.5587724  30.6136513
  60.7352877  82.6427315  30.1011562  61.8563271  81.6767572  30.4191971
  75.9108592 102.5229286   7.9825211  75.6636024 103.0734848   8.7254810
  76.4776040 103.0804514   7.4494171  69.5352173   6.1263019  78.8594198
  69.2712593   6.4901733  78.0143404  70.4130745   6.4778155  79.0078640
  59.6799803  25.7783294  78.3828306  59.3209171  24.8999143  78.5081100
  59.7060490  26.1541629  79.2627764 104.2338277   4.0975659   9.7848034
 103.6208750   4.4284861   9.1282845 103.7862755   4.2328303  10.6200504
  58.5632015  84.0099953  34.3455029  59.1302372  83.2882165  34.0739536
  57.6755954  83.6935638  34.1773891  86.7302228  73.7600421   7.2602177
  87.1015740  74.4611667   6.7247200  87.4887563  73.3445953   7.6704216
  61.6139317  23.2151580  69.1857004  61.8134403  24.0762639  69.5530224
  62.1561527  23.1589198  68.3988953  20.0722313  39.6401787  90.5520725
  20.0592828  39.8506403  91.4857578  20.9875154  39.4302702  90.3665352
  84.5664740  96.5999149   9.3871212  84.3655778  97.4760793   9.0581608
  85.5228329  96.5607141   9.3955803  41.9305277  50.0271130  83.9057255
  41.0946941  50.3513956  84.2410755  42.2113037  49.3774080  84.5501423
  46.6241867  76.4633320  29.0489388  45.7717586  76.0486005  28.9162922
  47.1827770  75.7612871  29.3826199 110.1690770 104.0738700   9.6897411
 110.3042365 104.2960380  10.6109333 110.3412486 104.8893093   9.2189407
  61.8986321  85.1940774  13.6598301  61.4321590  85.1796054  12.8241158
  61.2318540  85.4371713  14.3021297  72.7972794 104.7566341   6.1493397
  72.1327806 105.3084396   5.7367992  72.3001695 104.0479921   6.5579224
  14.0965104  58.3773184  67.6309776  14.0358329  57.8326464  68.4157610
  14.2829096  57.7592182  66.9242668  69.0333701  69.3560480  31.3676548
  68.3370519  68.9741789  30.8332825  69.3088294  70.1336001  30.8820915
  29.6867108  55.0839806  68.2286978  30.2604032  54.3815660  68.5348463
  29.6056461  55.6715918  68.9799404  78.0016518  75.8708833  26.3992786
  78.9015103  75.9311484  26.0785770  77.5463534  75.3489731  25.7385635
  87.4963972   2.6139754  81.4221859  88.3600780   2.7823687  81.7989254
  87.5706574   1.7426974  81.0328388  36.6982102  12.6991820  78.8906097
  36.0544872  13.3918035  79.0393686  36.6072416  12.1209669  79.6479893
  61.3013888  74.6100448   7.9010105  60.5795408  75.0455211   8.3543682
  61.4598227  75.1513384   7.1276283  90.7689572  86.2071274  12.4117184
  90.0578643  85.8923911  12.9698658  90.9524203  85.4756473  11.8222237
  49.1761398  36.3522410  81.1889362  48.3147860  36.7576098  81.0890293
  49.2275286  35.7193375  80.4726791  60.0253010  40.8510876  89.0835667
  59.6897268  41.1012316  88.2227230  59.2656374  40.4912472  89.5414543
  56.6655601  79.9760841  15.6749630  57.2726560  79.8020171  14.9556828
  56.2815452  80.8270310  15.4636574  24.3859005  37.9046679  66.7816019
  23.5592031  38.0577874  66.3240480  25.0441313  37.8853226  66.0869169
  83.3633900  97.9165672  18.5579681  82.8052045  97.2217487  18.2088470
  83.5023595  98.5069584  17.8174496 111.1022712  79.5453166  15.5791473
 110.1653672  79.7399114  15.5552197 111.5253068  80.4039620  15.5794907
   1.7750935  37.9669905  82.4412346   2.3375422  37.4736762  83.0383301
   1.0085426  38.1945872  82.9673767  24.5851946  44.3534088  67.6979256
  24.3945646  45.2190971  67.3367119  25.2680755  44.0008593  67.1273041
  59.1682863  17.3015225  84.5679665  59.7681618  16.8307114  85.1465225
  58.3236742  16.8697083  84.6960449  52.4853230  57.7196591  23.6711502
  51.8363548  57.2641696  23.1348705  52.2645725  58.6464487  23.5786247
  48.5581589  43.0225086  87.3798656  49.3413353  43.1423044  87.9169941
  47.9033947  42.6747036  87.9852962  78.0828048 104.6538423   9.8099232
  77.2339202 104.5750831  10.2451420  78.5621310 103.8692115  10.0760651
  27.3270345  25.0127673  84.7936630  27.2295237  24.7752905  85.7157898
  27.5878906  25.9335971  84.8097706  78.1290627  67.3356997  34.4756699
  77.5345469  67.8344976  35.0360203  77.7755166  66.4462160  34.4832134
  88.1549884  88.4288405  34.9374008  88.3786059  89.3495010  34.8009872
  88.9966346  87.9971169  35.0839710  44.6691347  77.5389169  10.8007431
  45.2455933  78.2261633  11.1348438  45.1642627  76.7292999  10.9256363
  81.1156750  51.6569785   4.5121670  81.8163872  51.0127537   4.6132374
  81.3070250  52.3243493   5.1711369  77.8280211  83.3392023  15.6301689
  77.2438479  83.9164208  16.1219025  77.2445632  82.7002834  15.2207947
  32.8388214  41.4019060  69.2557287  33.2017374  42.2813177  69.1500998
  32.8428459  41.2531233  70.2012873  47.4125267  92.5290679  37.3503208
  48.3548785  92.5468920  37.5173092  47.3233772  92.0392607  36.5327740
  61.2587261  63.6564970  87.3007202  60.4843950  64.1143513  86.9736004
  61.4320040  64.0573788  88.1524849  59.8166538  60.7808720  10.0580788
  60.1727391  60.6935685   9.1738796  60.5082322  60.4460912  10.6289291
  49.4806147  52.4455404  79.1708899  50.0266123  52.9775620  79.7497463
  49.1149712  51.7693281  79.7412205  66.2061357  39.0337348  84.7804260
  66.7912149  38.2787251  84.7181797  65.3292799  38.6673164  84.6660042
  69.2646742  23.8651586  86.6415787  68.8288975  23.4690833  85.8869553
  69.2927647  24.8001313  86.4384365  49.0326881  44.2762327  65.7540369
  48.1230211  44.5500708  65.6367779  48.9794683  43.3363056  65.9270382
  21.8734813  35.9559131  83.1796455  21.2480164  35.2372599  83.2721806
  22.5444674  35.7757306  83.8380814  78.7222195  77.5452899  17.6699638
  78.7128211  76.6060637  17.4855804  79.5773078  77.7021931  18.0705166
  61.6564894  50.8243370  80.8715153  61.7301798  50.2206278  81.6106606
  60.7185268  51.0010576  80.7991982  51.7142213  75.1505374  11.1718941
  51.3843418  75.2259325  12.0672798  52.6590455  75.2807807  11.2529755
  19.6023846  15.1849139  91.4433289  20.2733803  14.9271572  90.8112240
  18.7758100  15.0756550  90.9731483  56.4042521  28.8712406  79.1805220
  55.7287264  29.5156002  78.9691019  57.2140217  29.2533517  78.8421392
  80.1354457  61.5379982  10.9107590  80.8061457  60.9061419  11.1698914
  79.4810534  61.4920865  11.6078186  52.6611925  88.7102698   5.1527882
  53.1331647  88.1744813   4.5152855  53.3274294  89.2946695   5.5144978
  83.0284501  58.2412975  16.1939144  83.7408591  58.5381054  15.6276894
  82.2321320  58.4424071  15.7023239  25.9158587   3.9174205  56.9946527
  26.2233424   3.2404038  56.3918829  26.2383866   3.6393070  57.8518963
  67.4058033 103.5857509  26.0212231  68.2464648 103.3876060  25.6086063
  67.1905733 102.7960800  26.5175438  17.0910430   5.3144342  64.7166204
  16.1634088   5.2558011  64.4879580  17.3518240   6.1917436  64.4363451
  37.4574399  36.0682774  77.3300982  37.7700543  35.3970075  76.7235470
  36.5128517  35.9225440  77.3825121   9.8687518  41.6676331  81.6192436
   9.9214113  42.0102882  82.5114632  10.0808120  40.7383204  81.7066765
  75.3244115  78.6957477  23.1161118  75.1691151  77.8532194  23.5430336
  75.9308148  78.4948729  22.4032593   9.3087720  93.6662239  89.6364689
   9.6723937  93.3462089  90.4620647   9.9564790  93.4174257  88.9770699
  66.9254827  50.6966972  87.5887775  66.8017673  51.2966156  86.8532372
  67.1018887  51.2676859  88.3365059  98.3172656  66.2458192   5.8680344
  98.6973382  65.7584869   6.5989876  98.9127827  66.9835971   5.7366180
  52.5655937  34.6621680  82.3539639  53.4454012  35.0387287  82.3347473
  52.0000219  35.3881931  82.6171207 110.3737593  72.5504027   5.0952148
 110.7532311  71.7269431   4.7883797 109.9279214  72.9092525   4.3279552
  96.0793735   4.6875613   8.8210487  95.3681017   5.1495688   9.2647552
  95.9188224   4.8387187   7.8895950  94.6107531  96.3087581   1.6249657
  94.1821385  96.8182443   2.3126698  95.4646588  96.7268203   1.5140724
  53.2796335   8.8029945  72.0660162  53.5486698   9.6524519  72.4156952
  53.8745928   8.1756175  72.4766970  54.2430210  30.1537228  74.9286985
  54.1840172  30.8292580  74.2531204  53.4486818  29.6317601  74.8155022
  58.0220747  41.8606758  86.9989014  57.5210285  42.4917459  87.5155640
  58.7149906  42.3807383  86.5919209  25.8492041  28.2036734  56.7144251
  26.0791159  29.0109849  56.2544060  25.4214358  27.6631021  56.0503244
  61.9327522  76.2397812  10.4984760  62.1061946  75.2989887  10.5310726
  62.3793674  76.5924762  11.2681389  44.7309638  97.7890085  32.4454784
  45.4629648  97.8089498  31.8290329  44.5508433  98.7101530  32.6333046
  27.4427748  10.6303895  67.8169394  27.5955296   9.7489846  67.4763155
  28.3051848  11.0454571  67.8027105  93.4272195  91.9761966  10.5346584
  92.9609919  91.5596627   9.8098373  92.7485085  92.1525382  11.1861897
 103.1920744  17.1034091  22.2733116 102.3650576  17.1088736  22.7552223
 103.7645031  16.5330594  22.7863979  41.2148476  34.0890718  69.0761614
  41.5962219  34.9668598  69.0927553  41.4684772  33.7337995  68.2242870
  32.3053217  23.7478685  78.3216429  32.9981923  23.9191103  77.6838064
  32.1786022  24.5850015  78.7681723  14.2548084  40.0321388  62.1771812
  13.6089826  40.6990194  62.4104452  13.7598431  39.3845725  61.6752815
  67.1289182  63.7129294  26.0963535  66.5999008  64.4885610  25.9098911
  67.8886271  64.0497063  26.5713882  43.0396986  41.5275049  87.2831821
  43.1755400  41.3521385  88.2143211  42.1013117  41.7000198  87.2063541
   3.0744557  16.0569470   7.0801258   2.3468690  15.4412072   6.9923210
   3.0284505  16.3540547   7.9888821   8.0859941  38.7458658  81.4657402
   7.2709709  38.2543063  81.5674210   8.6035216  38.5136676  82.2367668
  30.0315428  13.2842779  69.9149704  30.8212852  13.8008738  69.7547531
  29.5150471  13.8174820  70.5192518  80.2496482  88.2833122   3.4187603
  79.9440671  87.4340962   3.7376404  81.0759784  88.4289073   3.8794327
 106.4254905  97.3495744  25.8679676 106.5324069  96.3999580  25.8129883
 107.2669459  97.6667474  26.1959744  95.0100686   5.8317082   2.6979256
  94.3851115   6.5560620   2.6667118  95.7737638   6.1534636   2.2188854
  54.9952007  68.7153243  12.1972656  54.7484124  68.0960630  12.8841782
  55.2280164  68.1640624  11.4501762  45.2923632  27.5496244  76.5635633
  44.8294878  28.2902479  76.1718273  44.9586678  26.7840886  76.0957670
  56.4219595  60.1244997  17.4589634  57.0196617  60.8721368  17.4637413
  56.8204523  59.5031659  16.8495560  49.9646711  11.9740736  60.1761436
  50.0032902  12.9209077  60.0410604  49.8954010  11.8701565  61.1251593
  85.6315900  69.5258795  18.3428478  86.2002373  70.1558255  17.9000759
  84.9798823  69.2869698  17.6837349  49.9140716  98.4817480  10.2965450
  50.2828527  97.7817749   9.7577763  50.0303090  99.2740892   9.7722244
   7.6038741 104.1258259  57.2117472   7.8806876 104.7245389  56.5181017
   8.4124946 103.9038627  57.6733732   6.0499386  91.3036488  41.7081642
   6.4487938  91.2155365  42.5738335   5.1118473  91.1951684  41.8645096
  70.6318045  55.6709646   6.2500477  70.2188135  56.0668002   5.4825974
  69.9202181  55.5772306   6.8833637  29.6891785  43.2693243  78.7050247
  30.5464244  43.6869287  78.6215591  29.5495343  42.8384447  77.8617716
  96.3506629   9.3673794   2.0791626  96.9213463  10.1141589   2.2604752
  95.4763819   9.7483723   1.9972897  67.2044373  79.2523527  75.7581425
  67.4745512  79.7053719  74.9593639  67.3478889  79.8914576  76.4561319
  20.5619626  15.5265563   9.1908646  20.4402213  16.3375991   8.6972809
  19.7442107  15.4163830   9.6760178  15.6551790  28.2716990  85.2830791
  15.1008236  27.6811266  85.7931232  16.1275983  28.7835073  85.9396648
   9.9995279  87.3327750  90.2487087   9.1529273  87.1780401  89.8297119
  10.1014709  88.2844764  90.2384377  89.9366666  93.3363842  15.0456905
  90.1487590  92.4530791  15.3473949  89.5848370  93.7758707  15.8198357
  88.8692237  96.6321872   6.5932751  88.9062405  95.7081388   6.8402576
  88.1596328  96.6806387   5.9526730  26.9334531  62.2563982  80.6190300
  27.2519112  61.4464760  80.2204800  26.4760303  62.7084780  79.9100685
  15.8379130   5.4948657  13.5326576  15.4049592   6.0978453  12.9283333
  15.3739504   4.6656458  13.4170532 102.7985478  51.8651662  16.2029457
 102.8054095  52.7045052  16.6630459 103.5926104  51.4218460  16.5015411
  92.6811000  99.9317872  70.4868078  92.3409423 100.8149719  70.3435993
  92.6706918  99.8223793  71.4376783  76.2133289  83.3902978  18.5792351
  76.3150359  84.3319892  18.7174511  76.9504095  82.9984807  19.0476608
  98.6608029  98.1692957  18.6434460  97.9614068  98.7339328  18.3144093
  98.5285092  98.1517576  19.5913029  92.4982453  86.7995356   1.1392689
  92.2861434  87.3001646   1.9270611  92.9306842  86.0105847   1.4660549
  30.0307393  26.1363411  83.7897968  30.3903365  25.7582712  82.9873085
  29.2075419  26.5408540  83.5160351  33.2026815  60.5122471  72.3214245
  33.4515452  60.1954556  71.4531231  33.9624739  60.3233814  72.8721285
  91.5200234 103.4022926  29.3564701  91.6329337 104.1876339  28.8210011
  90.6009198 103.1622432  29.2387581  61.7791773 100.9247993  13.9388180
  62.0468140 101.6746496  14.4701672  61.7357469 100.1959537  14.5577908
  48.2176065  44.8355865  83.3395958  48.8357973  44.3579721  83.8927364
  48.2960892  45.7462597  83.6237431  23.0541758  23.0343907  11.0364532
  22.8353743  22.3109715  11.6238308  22.8103451  23.8210814  11.5242004
  57.2209121  70.9971772  21.3414097  57.0160092  70.6411110  22.2059727
  56.5249110  71.6323207  21.1728668  82.0777893   7.4555641  75.4958916
  81.9643402   6.9627404  76.3085938  81.9852829   8.3719283  75.7565641
  94.3510533  85.2737926  10.0979805  93.9731599  84.4471859   9.7977257
  95.1273108  85.3948902   9.5511818  71.0946203  74.3275665  18.6522293
  70.2237011  73.9437626  18.5501099  71.1775804  74.9327491  17.9152775
  12.7589373   4.4538825  30.4319096  13.1430249   5.1186650  31.0035515
  11.9855885   4.8767846  30.0586605  69.8850346  29.3297076  85.8561420
  70.5443907  29.9729466  85.5959034  70.3916979  28.5849071  86.1798668
  34.8878531  13.5687726  12.8210068  35.3696303  13.9332383  13.5634899
  34.6030240  14.3339722  12.3214340  62.5259877 102.2792410   5.5304337
  63.1457806 102.7711366   6.0690689  61.6669966 102.6150774   5.7865238
  17.8367651  62.4313402  85.7328129  18.7836981  62.4560022  85.5951881
  17.7088201  62.8358984  86.5908337  52.8455019  25.9793878  78.9788198
  53.1277084  26.2895966  79.8392630  51.9522285  25.6651545  79.1186380
  78.0309630  95.0819849  20.1416016  78.9154816  95.2483343  20.4674721
  78.1513882  94.8818706  19.2133331  65.2834606  64.4834614  60.2885151
  66.1807013  64.7667027  60.4644775  64.7805166  64.8014450  61.0382938
  97.6052047  84.4575070   5.2475166  97.0955182  84.0758418   4.5328331
  97.4520303  83.8728355   5.9897709  43.5230303  55.1443243  85.6934738
  42.9505587  55.2033758  86.4583302  44.0365076  55.9518385  85.7157040
  57.9249025  80.0088857  13.1535912  58.7609649  80.3623890  12.8498364
  57.6809884  79.3654679  12.4881935  48.9711237  28.8540411  68.1049395
  48.5455322  29.4245338  67.4649048  48.4726858  28.0377388  68.0669641
  23.6114411  17.0868628   4.5256233  22.8297763  17.0900529   3.9731503
  24.3292241  17.2911589   3.9262199  42.5377941  52.9213190  76.1749315
  42.7920246  52.4701548  76.9799471  43.1208134  52.5634193  75.5054379
  78.8241530 100.8218931  17.4850559  78.8261319 100.0921987  18.1045532
  79.3683244 101.4906047  17.9009056  23.9543843  35.9092331  88.6234570
  23.7440705  35.1240659  88.1179714  24.2411733  36.5458989  87.9687595
  23.5781959  53.5228955  16.7401028  22.7213959  53.9458069  16.6829109
  23.9059929  53.7621275  17.6070213 100.4683711  21.5592377  21.6460514
 100.3624727  21.3743489  20.7128716  99.7782113  21.0499518  22.0709515
 109.2561556   3.4423440  35.2663326 108.8144638   4.2543213  35.5150032
 108.5607149   2.7846949  35.2565289  34.9741483  46.0269260  83.3392525
  34.1785550  45.9391499  82.8143120  34.6579456  46.1682606  84.2315960
  78.2367229  30.6799412  90.2697849  79.0274763  30.6152606  89.7342873
  77.7926779  29.8414278  90.1434803 110.5110113  57.1467495  83.6396694
 110.2138883  57.9784870  84.0086746 111.0484423  56.7571354  84.3293095
  12.5113110  10.3888838  17.5820446  12.0563035  11.1805384  17.2948456
  13.3226399  10.3813546  17.0741844  87.3928642  68.0164862  91.0206318
  86.5075111  67.6837349  90.8734322  87.4160099  68.2313776  91.9531155
 109.0293242  40.8972733   1.8648624 109.4332029  41.6878026   2.2228813
 108.2553579  41.2137025   1.3989353 103.8060332  97.2588609   2.2268677
 104.1182185  96.3725542   2.0445538 102.9407597  97.2965883   1.8193054
  11.2185863   8.8047809  77.8213120  11.1397556   9.4951552  77.1629763
  10.5801681   9.0413875  78.4941244  76.8541122  84.0210913  30.3815079
  77.6513386  83.9677976  29.8544216  76.1493016  84.1160081  29.7408390
  87.9129267 102.8903364   3.2732582  87.3221684 102.7399276   4.0112400
  88.0807734 103.8325761   3.2890034  94.3478680  94.0748428  16.8968487
  93.4396506  93.7867378  16.8053627  94.5941258  93.8126300  17.7838802
  75.9926081  81.3928722   8.4965324  75.3909255  81.5385984   9.2265797
  76.4931799  82.2062515   8.4326935  29.9165344   9.7942102  78.5147476
  29.1906309   9.2632318  78.1870937  29.5345855  10.6602752  78.6571503
  41.5930748  30.7951593  61.7621422  41.3586521  31.6865754  62.0203209
  41.0055876  30.2361822  62.2707033  56.1233997  50.0181627  86.5225792
  56.1943483  50.0116730  87.4771214  56.6518927  49.2725325  86.2380505
  29.0577745  33.3636856  88.4749794  28.4337020  32.6382470  88.4525585
  28.5118723  34.1473651  88.5387802  18.8361983   2.1228211  32.5895214
  19.2489772   1.7609542  33.3736801  18.0839972   1.5527432  32.4300385
  36.8394474  98.3928321  31.2579632  36.3762287  98.7245678  30.4888058
  36.3728050  98.7742923  32.0015812  56.2434018  87.5294422  27.3225212
  55.3762580  87.1362518  27.4209881  56.1241973  88.4416364  27.5869465
  93.3643436  42.3083448  71.0076380  92.4246883  42.4506712  71.1217833
  93.7237740  43.1841135  70.8659792  34.6683359  40.4264164  60.3463173
  34.6692014  41.2930536  60.7527351  34.4102311  39.8318291  61.0506439
  26.3410449  64.3556499  86.1845016  25.4294729  64.6476221  86.1802673
  26.8436623  65.1427078  86.3946056  62.5193310  77.9435301  52.1211433
  62.4724960  78.5285091  52.8773403  63.0659437  77.2149467  52.4154329
 110.5230332  81.1721133   5.8733082 110.6861449  81.3890408   4.9553871
 110.7526017  81.9685458   6.3520813  47.4154711  44.8868847  79.2515802
  48.2130146  45.1973820  79.6802425  46.8596792  44.5845127  79.9698400
  35.3994012   4.1469261  67.4545670  36.0592484   3.8168859  66.8447256
  35.7375026   4.9969548  67.7362967  94.6748278  28.4560251  79.2583942
  94.7382566  27.5101662  79.1258907  95.5606017  28.7805390  79.0961313
  31.1475921  24.2111778  75.0770569  30.4079294  24.5536590  75.5788898
  31.0205221  24.5600748  74.1948128 104.9007655  97.8603290  13.6846447
 104.4736338  97.0718645  14.0194798 104.6031714  98.5595058  14.2667294
  52.9481268  21.1421108  88.3468056  52.6668167  21.1965656  87.4335003
  53.5988617  20.4401875  88.3555508  59.6476078  49.0078449  88.6173439
  60.1785135  48.3198738  88.2160187  58.9415646  49.1623354  87.9897499
  29.1729169  12.7782052  19.6746159  28.6535077  11.9954913  19.4907761
  29.5314316  12.6277583  20.5492973  75.1980592  98.5109304   9.2814636
  74.9239636  99.4268154   9.3289661  75.7174588  98.3749555  10.0739098
  58.3377890  23.1189101  18.0429077  58.4980921  22.4405186  18.6989021
  59.2072825  23.4603779  17.8340817  22.2034793   6.0422604   0.6524658
  21.3143782   6.2468283   0.3628254  22.1319441   5.9566491   1.6031361
  38.6187987   8.5689824  28.3502007  37.9458623   8.7911170  27.7067375
  39.3280129   8.1872170  27.8329945  21.4561462  33.2579255  63.8579798
  20.8167744  32.8264284  64.4247627  22.2936535  33.1353951  64.3049669
 109.3529464  96.6555046   2.6287842 109.7704697  95.8090948   2.7884674
 108.8357211  96.5213989   1.8346024  20.8359575  23.7373638  83.1903362
  19.9553502  24.0781522  83.0334091  21.4168835  24.4677401  82.9774761
  76.0682679  83.9711856   4.6219254  76.3816334  84.4124983   3.8324451
  76.8057061  84.0167235   5.2304840  27.4247146  60.9443855  86.2334919
  27.1199322  61.8479538  86.1503696  27.1184611  60.6667805  87.0968437
  28.2379937  78.2757187  69.8874092  28.7768674  77.8857946  70.5757475
  28.0683088  79.1671085  70.1921320  39.7400570  44.7572803  73.8900137
  39.8631597  44.2609358  73.0808687  39.9067855  44.1233635  74.5875692
  80.2658511  80.6364869  25.9102345  80.2026702  80.1051186  25.1165771
  79.9617530  80.0586818  26.6101551  77.0605946  75.5154155  13.1422615
  77.7178002  75.8394359  13.7581444  77.2523404  74.5815252  13.0567265
 109.8913527  99.9071859  16.3809490 110.5490638  99.3591808  16.8091297
 109.7597981  99.4990085  15.5251980  59.8464919  97.7994226   7.5123024
  60.3857589  98.0881141   6.7760468  59.4263650  98.5988830   7.8294468
  20.8718686   8.0082934  23.1630898  20.8877711   7.4531310  22.3834896
  21.3049512   7.4857609  23.8380909 104.2123414  95.8140682   8.6452866
 104.8183108  95.2343773   9.1067982 103.7967110  96.3269256   9.3384457
  92.4374057 103.9870332  15.4369736  92.4658633 103.1937622  14.9020481
  91.5570880 103.9910196  15.8128166   8.7984614   5.7791178   8.9521885
   8.6586957   6.5106671   8.3509159   8.5051016   5.0092070   8.4649467
   5.0323395   1.1015837  16.2562656   4.5786767   1.9394057  16.1641598
   5.9428839   1.3401024  16.4301872  86.3317157  93.8522647   0.3523064
  85.6143809  93.5452818  -0.2021599  86.1818267  94.7937225   0.4384613
  71.5007520  84.2996286  15.8652973  71.6650296  85.1174306  15.3957844
  72.3192216  83.8096069  15.7864475  81.4176215  28.2718938  23.7794971
  81.0317309  27.8802102  22.9959774  82.3456235  28.0426304  23.7296581
  27.6690722  46.6154337  71.3973284  28.6138320  46.5989161  71.2443972
  27.4559784  45.7248974  71.6761923  87.9162025  13.9902449  57.5729847
  88.0149937  13.4085679  58.3267260  88.8004112  14.0712082  57.2154188
 110.3177573  12.7245324   6.3238430 109.5924593  12.1872800   6.0051918
 110.2721740  13.5239070   5.7992840   9.0800464  82.2806549  73.1058311
   9.3562788  81.4278221  72.7702713   8.3281922  82.0858288  73.6652851
 103.3423759   6.4268344  15.1474762 102.6515676   6.8153279  14.6107388
 103.9854146   7.1277707  15.2543354  39.6173100  17.0980208   1.6730690
  38.8875918  17.0570176   2.2911739  39.3246131  16.5813391   0.9223366
  50.8124118  15.4034560  19.3058109  50.4384188  14.8304169  18.6364841
  50.2255873  15.3100245  20.0562286  65.3453302  55.2883863  76.8891525
  66.2217331  55.0647116  76.5759087  64.9334955  55.7353401  76.1496544
  62.2040749  31.7714548  90.1778316  62.4701548  31.7499352  89.2586136
  62.2147703  30.8543634  90.4518032  93.4683800  87.3991560   7.4301052
  93.7247229  88.1748627   6.9313049  94.1182709  87.3390816   8.1302929
  86.7295933  64.6881819  72.8182459  87.2618389  65.4834461  72.8405046
  86.0634899  64.8643017  72.1537685 100.2400114  39.5491879  10.5757046
  99.5785381  39.7741215  11.2299919 101.0405971  39.9690716  10.8903408
  72.8373504  88.7578176   8.7103558  73.1175018  88.1836222   9.4231319
  72.3409129  88.1869362   8.1239510  41.7243338  24.4397020  76.6392756
  40.9972668  24.1877532  76.0699558  41.3304138  24.5244193  77.5075436
 108.7740660  93.5024379  32.3441601 108.1962014  92.8589653  32.7543354
 108.3366252  94.3419479  32.4859524  15.7374577   3.3110659  35.3986835
  14.8994641   3.3391564  35.8604336  16.3942103   3.4090941  36.0881042
  31.2193255  24.5436185   0.9085751  31.5144496  23.7023251   1.2569427
  31.5523057  24.5614045   0.0113392  55.2189184 100.9997867  11.9795990
  55.3811801 101.8869041  11.6587734  56.0206486 100.7634042  12.4460602
  96.6060401  84.7381257  27.7518082  97.5072861  84.6651362  27.4377060
  96.4197398  83.8856433  28.1452465  82.5225735  68.1964694   5.9443474
  82.9858447  68.1618618   5.1074409  81.8970872  68.9138268   5.8423901
  94.8151303  74.6011923  25.1780987  94.5643235  73.9847492  24.4901180
  95.5939008  74.2121171  25.5760479 100.8273365  28.7356274  21.6852951
 101.2882067  27.8980916  21.6367054 100.4236676  28.8372319  20.8233356
  32.7825503  26.8265813  34.3532848  33.4755091  26.2141841  34.1062737
  33.2207160  27.6760571  34.4045925   5.9637932   8.1169312  19.7721863
   6.3637452   8.8687222  19.3350601   5.0346951   8.1770270  19.5499325
 103.3788158  15.6224959   6.8872643 102.7634431  16.1094945   7.4353313
 103.3000280  16.0253470   6.0225391  19.7172503  14.7655718  19.4884205
  19.5819764  13.8347333  19.3110180  19.2246394  14.9302285  20.2924442
  74.8130489  52.8839712  30.9057903  74.4090772  53.0487400  30.0537968
  74.6267200  53.6723352  31.4156914  31.0169797  31.9310944   1.2388611
  30.5630831  32.5460236   1.8151283  31.6679959  32.4652569   0.7838058
  98.3000041  71.6912030  30.1140118  98.6842585  72.3214398  30.7234192
  99.0494061  71.2107800  29.7621250  62.2234846  66.6262876   4.0033436
  61.7802692  66.5338384   3.1599903  62.9682351  67.1992813   3.8209820
 102.1787120  38.4572308  23.1956863 102.0646478  38.7177746  22.2817230
 103.1270076  38.4483140  23.3256435  71.3453532  99.6244405   1.2445831
  71.8052269  99.6062063   2.0838737  70.4230762  99.7277807   1.4790154
 110.9927893 103.9627670   2.5851154 111.6856719 104.3437074   2.0456505
 110.2559758 104.5663236   2.4899387  50.8607197  50.8037090  75.8734226
  51.0057545  49.9961042  75.3805017  51.7398834  51.1430168  76.0412836
  27.1318965  12.9487221  41.1909866  27.7191739  12.3640292  41.6700172
  27.2045283  13.7872594  41.6468525  66.7126919  86.8528865  24.3980503
  66.7720986  85.9324430  24.6539593  65.7971240  87.0857214  24.5521736
  54.0087986  11.1755168  73.0110121  54.7346401  11.6260898  73.4427214
  53.3017492  11.8205547  72.9955053  13.5600996  50.0977182  63.9123344
  13.3546484  49.8588133  64.8161840  14.4653285  49.8121119  63.7889528
  31.4622903  33.0086756  89.6691799  32.0254660  33.7138605  89.3501472
  30.6564116  33.0969238  89.1602516   7.0029788   3.6210244  37.6136398
   6.2885480   3.6380189  36.9768238   7.4456792   2.7873557  37.4547482
  74.9115086  71.9371079  39.8710537  74.8769069  72.8860901  39.9913406
  74.1866256  71.6021846  40.3988838  60.0998735  26.3784885  81.1234093
  59.7764063  26.4676237  82.0198727  60.7090807  25.6411266  81.1607933
  40.8845186  42.6156092  75.3270197  40.3926086  41.9262075  74.8809433
  41.5104771  42.1452475  75.8776283  74.3019963  94.8973678   0.8626270
  74.1255928  94.5918201   1.7524338  74.1250635  95.8375906   0.8927536
  68.8550640  88.8401793  35.0537300  68.0037118  88.7276243  35.4765320
  68.7635065  88.3984040  34.2095184  61.3605452  12.6532805  91.1083603
  61.7328978  13.1542039  90.3826427  60.6964111  13.2319415  91.4829350
  44.9250559  10.5671923  28.1023216  45.0008540  11.1122458  27.3191261
  45.8294062  10.4144709  28.3762932  23.9345030  17.4917596   0.9037304
  23.3940987  18.2677310   1.0522652  23.3376364  16.8562739   0.5085945
  89.9446345 104.3073534  16.8336582  89.4426680 104.4461082  17.6367855
  89.8382331 105.1211666  16.3410950  58.2019615  53.5042620  78.5556316
  58.3147144  52.5677061  78.3932018  58.9687872  53.9112902  78.1524706
  27.3367934   1.5930550  16.4369106  26.5775399   2.0175355  16.0374260
  27.7901797   2.2984069  16.8985939 105.2707888   8.3875697   0.1044083
 105.6587507   8.6399739   0.9422684 104.3460394   8.2407658   0.3031921
 109.1558339  41.5347283  13.1316757 108.7456275  40.7186024  13.4178543
 109.5140840  41.3325017  12.2673893   7.5472836   9.0371411   5.4918861
   7.7464394   8.4897606   6.2514591   7.4460606   9.9183648   5.8516502
  10.5067305  15.2594893  14.7179508  10.8739905  14.7720950  15.4553795
  11.2623267  15.6832116  14.3108082  75.9765769  81.8387817  26.5961456
  76.6013051  82.5591420  26.5123367  76.3052989  81.1660551  25.9998131
  57.7410484  99.5375656  48.7166882  57.4096919 100.3796791  48.4047985
  58.3075858  99.2267107  48.0105495  81.5392781  97.6739381  29.7425079
  81.8044854  97.9854320  30.6078815  81.7105580  98.4131454  29.1590118
  43.0045033  60.9812069  85.5639076  42.5424862  61.4827251  84.8921585
  43.9053440  60.9266996  85.2449322  13.7312035  82.1213816  16.7971420
  13.2923702  82.7521752  16.2263870  13.1483463  82.0350050  17.5514984
  68.1046152  68.4762049  88.8235855  67.5615072  68.2798576  89.5869446
  68.0226183  69.4229078  88.7084198  11.6613869  31.6404526  15.9492970
  11.5472512  30.8464806  15.4269886  11.5818410  32.3557751  15.3182411
  79.4560480  50.0151205  85.0027943  79.5383883  49.0904331  85.2360344
  80.2248383  50.1950121  84.4616413  88.6137725 104.8744558   0.3265190
  88.1310797 105.3603147  -0.3421974  88.3517552 103.9630674   0.1963043
  80.3709794  83.4229849  26.1262798  80.6668616  83.8519858  25.3233814
  80.3605319  82.4906419  25.9098053  78.3429814  96.2169527   9.4557858
  77.6077557  95.8032297   9.0035629  78.9719392  95.5077957   9.5889759
 105.0988938  26.6043608  26.1096478 105.1236488  26.8794816  27.0261192
 105.9476091  26.8711608  25.7564735 108.8861943  91.8589114  26.0100651
 108.4642888  91.2905143  26.6543865 109.7935105  91.5553616  25.9805870
  48.2060146  40.4652786  80.6139088  48.9381266  40.4841089  79.9975586
  47.4437952  40.7072592  80.0878906  17.5168948   6.4523451  29.2136860
  16.6883664   5.9893458  29.3377876  17.3988204   7.2825329  29.6752930
   6.6001229  13.5189097  15.3514099   5.9484915  13.2722895  14.6950626
   6.0973553  13.9673798  16.0313511  30.9696297   4.4272320  14.9233627
  30.8088259   3.5133975  15.1584911  31.8487839   4.6088688  15.2555180
  52.7137427  13.8021844  16.9614887  51.9559245  13.8826220  17.5406933
  52.5949530  12.9572957  16.5275764  45.0602245  23.9638853  67.0584631
  45.8613586  24.2589140  66.6255999  44.8281765  24.6815753  67.6477909
  62.5351334  35.8365917  89.3742847  61.6458416  36.1540008  89.2173004
  62.9588938  36.5428019  89.8620605  78.8819123  71.7572425  14.9054718
  79.3977595  71.8547605  15.7058620  77.9797698  71.6646849  15.2117348
  62.5195051 100.6036876  35.6528187  61.7697883 101.1864494  35.5322075
  62.4269892 100.2764391  36.5475750  20.8215622  93.7515806  31.9973373
  21.4133743  94.3068813  32.5049114  20.1804069  93.4387134  32.6355171
 102.0805741  91.3834618   2.9738140 102.6943875  91.6145943   3.6709785
 101.3621712  90.9397005   3.4246063  16.3459592  27.2821992  14.6411324
  16.1834340  27.3232262  13.6987209  16.1439948  26.3775151  14.8798466
  63.5276747  62.1700191  90.4877949  63.6543655  62.9916525  90.0133514
  62.6338148  61.9041872  90.2719688  83.2526637  73.2011341  25.2475262
  83.9173079  73.3475827  24.5744514  82.4819804  72.9056071  24.7628212
  16.8507247  23.8372653  28.1185341  16.3697486  23.5292094  28.8866425
  16.2047248  24.3312638  27.6136684  59.5034838  34.8301625  84.3562222
  58.9571142  35.2281475  85.0339603  59.7005129  33.9551783  84.6906090
 101.3546706  95.5792688  19.6996403 100.9271098  95.2538131  20.4917908
 102.2368909  95.8177017  19.9843597  12.1980576   7.9948084   3.2295513
  12.4760680   8.7805455   2.7588367  11.2439398   8.0624049   3.2659054
   7.3290066  -0.3433902   2.3837852   7.4554925  -0.0040204   1.4977551
   6.9469361   0.3883975   2.8682804  61.7871428  75.5375433  78.6855936
  62.0778275  74.7600937  78.2088232  60.8324003  75.5152035  78.6207867
  87.4467945  24.9553299  71.4157009  88.0927372  24.5041370  71.9592190
  87.9533100  25.6107640  70.9360266  24.1599755   4.3350213   3.8853836
  24.5827870   5.1932566   3.9152813  24.4240384   3.9093869   4.7010612
  21.6061644  28.0829613  15.6101799  20.8630232  28.1901066  15.0164700
  21.7173485  27.1352809  15.6861401  69.5888758  69.6049452  79.0978718
  70.0625896  69.1204405  79.7739506  69.1925859  68.9269686  78.5505772
  22.4366856  54.8115206  74.5614672  21.5312433  54.9540520  74.2856216
  22.8236794  54.2943382  73.8550758  49.2956781  56.0589981  89.0716934
  49.9880552  56.0207367  88.4118557  49.7562265  56.2346601  89.8922253
  19.9438147   2.2379916  22.8037453  19.6314435   1.9809001  21.9362450
  19.4300418   3.0153935  23.0226326  63.6273480  98.2037805   9.2856026
  63.9771748  97.4128269   8.8754272  62.9349256  97.8866886   9.8654556
  64.6155214  42.7320576  81.3458920  65.4537153  42.2830677  81.2360477
  64.8532677  43.6294460  81.5791321  96.3356925  66.2752019  24.1644001
  96.1854649  65.9188806  23.2887840  96.5459777  67.1969937  24.0150356
  50.7762241  52.5156307  86.7289352  51.5195274  52.1065426  86.2857914
  50.0071526  52.0941830  86.3453484 107.4636985   6.3502972   3.1818199
 108.3985020   6.1445706   3.1745720 107.0912005   5.7493632   3.8270760
  28.9206743  36.0698700  71.4392567  29.4467759  35.9253240  70.6527758
  29.0984392  36.9783664  71.6827011  45.8480501  40.1104116  82.1939087
  46.6833067  39.9399400  81.7585659  45.8468485  41.0550785  82.3483086
  68.5769367  89.7861481  90.5379009  67.9482794  90.3671074  90.9662724
  68.2378197  88.9056778  90.6991482 106.0156680  75.0528263   5.9287739
 106.0639525  74.8971175   4.9855614 106.5150643  74.3339180   6.3160896
  61.0975910  61.0633318  26.1703205  62.0013715  60.8159767  26.3658333
  60.5661965  60.4325681  26.6561127  20.4113965  10.9768622  53.1633854
  19.8129563  11.0941832  52.4255943  19.8502926  11.0271924  53.9372540
   1.0626606  53.9689075  49.1796780   1.6156200  54.1558524  48.4210491
   1.5383486  53.2926229  49.6619606  30.8251786  60.4842854  88.6110878
  30.8001971  60.8275557  89.5042610  29.9157667  60.5213451  88.3147240
  33.7225175  49.7851706  85.3427219  33.2538939  50.0104284  86.1463928
  33.6078334  48.8388443  85.2558327  88.5712100  73.4868024  17.0467091
  89.4332457  73.2026623  16.7427540  88.7578107  74.0919589  17.7644730
 108.0783081  36.4284921  54.0598631 108.0190754  35.6009507  54.5372486
 107.9079628  36.1917925  53.1481695  81.5655041  83.6659527  82.4958897
  81.3100529  84.3393517  83.1263733  81.4307499  82.8397655  82.9601002
  32.2833447  14.6089404  11.0233688  32.9374127  15.2892106  11.1835384
  32.7224831  13.9860575  10.4442215 101.9820548  71.6653775   7.9653358
 102.0982123  71.6652583   8.9154625 101.0525037  71.8547736   7.8376961
  47.0778448  76.1498808  52.2449017  46.3421119  76.2617658  52.8469086
  46.7472077  75.5568360  51.5702152  12.6429705  41.6902344   5.7434464
  12.6506571  41.7414658   6.6992378  13.1447844  40.9004300   5.5418777
  34.1177420  11.1293833  15.9331322  34.5381598  11.9016879  16.3113213
  34.4469933  10.3976958  16.4551067  68.7914801  69.8002815  67.1578264
  69.6596241  69.8830366  66.7632198  68.3540297  69.1280031  66.6354227
 104.3308450 101.0417007  32.8794575 103.7720299 100.9897064  33.6548615
 104.9098111 101.7844366  33.0508423  48.9950609  45.9706116  81.0593891
  49.9503613  45.9471655  81.1149788  48.7029648  46.0071135  81.9702053
  63.3521461  64.8695612  71.7284870  63.1946993  65.8075571  71.6207504
  64.2939949  64.7675180  71.5915871  48.8443136  34.2386460  83.1210327
  48.6977243  35.0157928  82.5817871  49.3887377  34.5485282  83.8447762
  21.5885882  25.9049695   9.7412682  21.2394194  25.2535670   9.1330051
  21.0683922  25.7927983  10.5369091  37.9036288   2.9136365  17.5925732
  37.2482114   3.3913272  18.1009769  38.6104827   3.5451977  17.4594784
  51.0406399  46.6260767  77.2157478  50.8660889  47.3805571  77.7783537
  51.5951872  46.9719791  76.5164232  56.1812878  92.6898003  70.6306076
  55.6817150  92.9584312  71.4016438  56.4509344  91.7913151  70.8210135
  99.7380019  99.4714998   2.0892906  99.7221375  98.5717462   2.4155140
 100.3606606  99.9221586   2.6597691  82.1073104 102.3284362   5.6455803
  82.0424367 101.3740848   5.6806469  81.5575982 102.5787519   4.9030209
  21.3912491  33.8499348   0.2614117  22.1545939  34.2580311  -0.1472282
  21.4855628  34.0452855   1.1937046  69.9571133  29.0497828  75.6628656
  69.6637774  29.7803092  76.2073994  70.7259560  29.3872547  75.2032709
  75.2539087  89.4383691  15.6649876  75.5777360  90.1528858  16.2134647
  75.5455304  88.6431144  16.1108112  99.2582083  87.7449154  12.9727554
  98.4211493  87.8420447  12.5187397  99.2338563  88.4064458  13.6641407
  75.5913544  54.7577953  83.7858868  75.6781578  54.1084290  84.4837475
  75.5067205  54.2394972  82.9856110  41.1636262  35.6560128  25.5165958
  40.6895165  34.8517411  25.7277775  42.0759682  35.3801339  25.4285431
  30.9825854  39.7168534  12.5694275  31.3776021  38.9028351  12.2570515
  31.6775469  40.3692525  12.4820900  60.7376934 101.3410257  19.2353344
  61.2591291 101.8342088  18.6019993  60.4595853 100.5586551  18.7591171
  16.4572911  12.6733821  11.2837315  16.2940507  11.7462437  11.1105156
  16.0126691  13.1321137  10.5709076  22.1021895  19.6299212   1.2591362
  22.3134141  19.5232432   2.1866226  21.1487345  19.7119324   1.2385273
  39.8449616  16.0904687  33.6624241  39.1923766  16.4645665  34.2543888
  39.3488125  15.4865782  33.1098080  28.9263344  62.5651503  82.4828243
  29.0393686  61.7013311  82.8794003  28.2738853  62.4297047  81.7956638
   6.8360332  90.7018612  10.0023556   5.9313492  90.7910131   9.7026348
   7.2792820  91.4782404   9.6603012 103.6321545  91.6690063  68.7749338
 102.9832554  91.5492153  68.0815268 103.6289501  90.8391285  69.2519283
  88.5469962 104.8868106  34.5055580  89.2925025 104.3350147  34.7421551
  88.2241488 104.5142959  33.6850548  31.9749455  26.9490998  26.0470200
  31.1346965  26.5787070  26.3172436  32.5221829  26.1873238  25.8560753
  96.3465119  84.7830747   8.3403873  97.0963097  84.4049047   8.7997627
  95.8248235  84.0272401   8.0705929  42.0957470  74.5657969  74.5541573
  42.4014330  75.3654480  74.9823427  42.7105522  74.4301462  73.8331556
  31.3970093  20.3655665   9.1084862  32.1567540  19.7967761   9.2329979
  31.5626816  21.1150973   9.6803188  80.7347012  98.6049461  79.1572666
  80.8779335  99.4484425  78.7280560  81.5955353  98.1863689  79.1560793
  82.3251534  64.6314144  86.2284374  83.2376003  64.7477293  86.4932823
  81.9985676  63.9324045  86.7949772  51.4920855 102.9051899   4.7761917
  52.3107970 102.4683927   5.0110340  51.4711905 102.8766082   3.8196468
  89.4630432  74.2219973  70.3762817  90.0965595  73.5047436  70.3552914
  89.3821049  74.4429922  71.3040972  76.9577218  75.5825852  28.6724949
  77.1689511  75.9209345  27.8023529  76.8920065  76.3626383  29.2233372
 110.4635836  17.2252123  15.7060623 109.6860219  16.8493884  16.1188412
 111.1293675  17.2129862  16.3936710  81.5657711  60.9697390  80.6626987
  80.6740570  61.3175535  80.6723595  81.6920185  60.6098700  81.5406418
  32.8779940  14.0604060  27.9657459  33.1717162  14.5892518  28.7075520
  31.9224791  14.0879719  28.0153847 110.0441933  77.2133875  58.9626551
 110.3689289  76.9099045  58.1149054 109.4094563  76.5479279  59.2281723
  37.0347838  13.2534545  10.0691509  37.8689675  13.6256688  10.3551960
  36.7882352  12.6508515  10.7707977  68.5104036  48.3435774  89.9565220
  68.8579750  48.8546991  89.2256546  69.0815830  47.5770473  90.0057793
  35.8980803  19.7166484   9.2575550  36.0911421  18.9556544   8.7099743
  36.7276101  20.1915019   9.3087864  68.1404091  88.8218330   3.5781288
  68.6908866  88.1843136   4.0328598  68.3184434  88.6728142   2.6495171
  43.9523558   8.1967681  27.0417309  44.7839789   7.9227250  27.4284077
  43.9110236   9.1389554  27.2054482  35.7152085  46.6701310  15.2999020
  35.4624276  46.8486588  16.2057018  35.6998257  45.7155602  15.2306461
  68.2879829  91.7291927  82.4212456  67.7338743  91.0927773  81.9693851
  67.7728844  91.9977665  83.1820107  42.6696400   5.5176919  12.5049019
  43.5522990   5.6721537  12.8414822  42.7217488   5.7538169  11.5787506
  40.0487232  78.3675909  68.0425787  40.3016901  77.6604748  68.6360645
  40.8339214  78.9098978  67.9677391  97.8835679  98.5350441  21.1725235
  96.9972754  98.7981819  20.9245873  97.8981591  98.6118435  22.1265316
  93.0937351   2.3582261  45.5880356  93.4315552   3.2530778  45.5512714
  93.8560821   1.8069737  45.4114532  52.2191000  54.1741133  88.8641262
  52.9237223  54.3010664  88.2288170  51.5344858  53.7181711  88.3745861
  57.1598291  75.1528215  49.1439342  57.8158045  75.0141287  48.4607840
  56.3233232  74.9829102  48.7107849  12.9674915  94.0746139   1.2732792
  13.9007095  93.8638614   1.2430382  12.5288490  93.2243608   1.2434864
  50.8115720 105.4224585  81.1976242  51.7454862 105.6207342  81.2663460
  50.6985425 105.1096364  80.3000736  88.1970978  67.5593662  82.1401691
  88.8967609  67.4900341  81.4906216  88.6375618  67.4349451  82.9808521
  49.9133110  32.1157885  87.2782326  48.9749718  32.1263456  87.4670219
  49.9703360  31.8428373  86.3625431  96.2485695  64.7913074  73.7785816
  96.8551826  65.0216103  73.0748653  95.3941727  65.0875950  73.4648323
  74.5326805  47.8629780  77.9882812  74.7114372  47.1600914  78.6129713
  74.8270178  47.5156689  77.1462727  33.6392355  32.1220279  86.9653034
  33.7572622  32.7453589  86.2485409  33.2091737  32.6282167  87.6545429
  61.9109392 104.0218830  79.4307613  62.5346804 104.7437954  79.5084429
  61.1394024 104.3190289  79.9131250  86.1953259  39.4550657  73.6140442
  86.0111904  40.3786278  73.7854004  85.5010223  39.1794491  73.0155420
  18.1612639  20.7736008   3.8332081  18.9651208  20.9354870   3.3394051
  17.6797299  21.5994160   3.7843323  86.8252754  41.2526417  71.3821125
  86.8676376  41.2799215  72.3379850  87.7366543  41.1601400  71.1045218
  17.9372172  51.6441147   6.9213581  18.5593371  52.3323529   7.1570206
  17.6288037  51.3024132   7.7606201  33.7284903   3.9897673  27.5390625
  33.5946612   4.3892806  28.3985424  33.0220418   3.3487074  27.4602985
  17.0475868  80.4911922   0.0022793  17.0991901  79.8356269   0.6978416
  17.1680931  81.3275384   0.4519939  72.0559788  56.1318970  84.9636936
  71.9262934  55.9901571  85.9014130  71.4840174  56.8695354  84.7515965
  35.8606391  46.1005871   2.4484634  36.5202288  45.6223958   1.9459534
  35.4193358  45.4272263   2.9662132  17.2844176   6.2119811   0.2471828
  16.9605307   6.6793864   1.0171509  16.8485407   5.3605311   0.2829456
  64.5973492  88.8643265  86.2361526  64.0569258  89.6303272  86.0427284
  65.2152634  89.1687965  86.9007683  30.2935223  34.3961423  41.8197536
  29.6431355  34.8887818  42.3202896  29.7829156  33.9273541  41.1596394
  64.4946527  64.2083311  67.0853519  64.5246887  63.8846111  66.1850548
  65.3595972  64.5915699  67.2310591  79.3732929  33.0989742  86.6698265
  80.3138733  32.9444790  86.5822887  79.2995596  34.0382385  86.8388844
  72.0263481  80.2879906  85.5547237  72.9013968  80.0737095  85.2313042
  72.0510149  81.2331295  85.7041264  97.3040868 100.7016491   2.6449203
  97.7412701 100.9690403   3.4533691  97.8906585 100.0508617   2.2593784
  71.7451572  68.3681297  72.8501129  71.5908432  68.2157230  71.9178104
  70.8727980  68.5119867  73.2168961  59.4763808  29.0151303  25.0389862
  59.7970252  29.2145436  25.9185600  59.9150614  29.6513550  24.4741726
  84.0104008  76.6110754  70.4849434  84.7721863  76.1050081  70.7674694
  84.3244934  77.5143766  70.4446030  68.0774975  79.9198580  89.3743801
  67.9151821  80.2722168  90.2494431  69.0030479  80.1012421  89.2110348
  60.3713942  79.3317699  86.4241695  60.2640820  79.9806786  87.1196079
  60.5275631  78.5084820  86.8868065  85.2774239  86.4838219  89.0298367
  85.7827377  85.7413292  89.3608665  84.8013496  86.8092060  89.7938538
  20.1548009   7.7473157  18.7532806  20.6605963   6.9395011  18.6647606
  20.8036952   8.4463017  18.6721420  19.4291596  31.4670746   7.5200176
  19.1715293  32.3162549   7.1611881  19.2727046  30.8482354   6.8067265
  63.1759024  75.6551027  74.8344564  63.1715155  74.7597075  74.4961071
  63.5997915  75.5858278  75.6898785  63.2340908  82.6244164  66.0333872
  62.2890472  82.4768162  66.0698795  63.3271408  83.5768700  66.0130930
 105.9185076   0.4518622  87.2069359 105.1901770   0.8227653  87.7051353
 106.5767003   0.2380008  87.8682041  37.5187831   7.8171723   9.0091515
  37.3887925   8.4503358   8.3031559  37.2292905   6.9831650   8.6392212
  30.4159979   3.6943619  34.5404148  31.3305907   3.7226718  34.8213863
  29.9755292   3.1721156  35.2108479  34.7740769  90.6965256  81.8146038
  33.8191199  90.6589794  81.7609215  35.0547218  90.9298420  80.9297085
  40.5159855  47.5592279  81.6390038  40.1249218  47.3867607  82.4954796
  41.4337969  47.3067522  81.7395496  86.8239784  86.6917324  68.3201742
  86.0150623  86.8137932  68.8171482  87.2658634  85.9635925  68.7569618
  23.0690864  89.9293445  22.2460175  22.1780876  90.2545856  22.3747635
  23.5424141  90.6706475  21.8683147  82.6947498  77.5348520  56.8994093
  82.1924305  78.2356215  57.3151350  83.4489727  77.9785061  56.5114117
  55.5883265  56.9888735  80.0284004  56.3550186  57.4615574  80.3524017
  55.7853937  56.0677242  80.1983261 106.1243106   6.3732951   6.6612530
 106.6542341   6.1939566   7.4379444 105.7912494   7.2601884   6.7981052
 104.3943501 101.5438579   1.2247753 103.6626387 101.9604753   0.7695198
 104.9309779 101.1714576   0.5250740  31.0774712  98.9147447   1.5854073
  31.9324020  99.2135357   1.8953133  30.9008316  98.1240820   2.0951939
  13.4883313  47.7968304   9.8024178  13.1866603  47.4906342   8.9471531
  12.8914885  47.3861783  10.4280090 103.4311439   5.9811633  11.7782211
 102.6561190   6.4593403  12.0730305 103.7981345   5.6036704  12.5776196
  33.5150675  49.7940915  -0.0559044  32.6127772  49.9334328   0.2316380
  33.6265759  48.8434975  -0.0426674  44.3936682  54.9126291  89.0767097
  43.7158394  54.5164824  88.5291195  44.9856758  55.3369093  88.4556198
  87.8009415  83.0178261  75.4901934  86.9839001  83.2384109  75.0429630
  87.9463673  83.7447834  76.0956860 107.8678085  53.5451787   4.4816494
 107.8154875  54.0635674   5.2846146 108.7719370  53.6520283   4.1860676
  57.1713400  97.1576118  72.6768970  57.6146698  97.9764557  72.4551582
  56.9372654  96.7753315  71.8311357 106.7334319  96.0511945  23.0473709
 106.1619426  96.7968534  23.2307339 106.4372540  95.7257722  22.1973038
 104.3802834  64.0183173  40.4445648 104.1692496  63.1766807  40.0404072
 104.6008158  64.5889448  39.7083759  41.6544867  88.5171890  78.8932562
  41.5079165  87.7654743  78.3190823  41.8188763  89.2466068  78.2956314
  12.6364379  18.3556645  34.1261005  13.2317357  18.9264052  34.6120071
  11.9033341  18.9225857  33.8865280   4.7262864  12.6073210  13.2372856
   3.8178639  12.3109334  13.1811237   5.2230124  11.9509452  12.7487469
  72.1737051  96.7709446  80.7538700  72.1401501  96.8293762  81.7086983
  72.7080488  95.9960461  80.5799675  46.4170980  94.8161316  73.6300611
  46.0583735  95.6875610  73.7978792  45.8380127  94.4426060  72.9657030
  46.3503794   9.3729966   4.7116470  47.2693400   9.6401303   4.7314930
  46.0720877   9.5390170   3.8109684  66.8773794  65.2288008  83.0723858
  66.0954237  65.2407026  82.5204468  67.5110102  65.7703114  82.6017380
  26.4089017  32.4888795  38.2084179  26.1859088  33.0267422  38.9681530
  25.7002549  32.6491158  37.5852108  24.2611842  35.9219067   9.4494247
  23.9594607  36.0745709  10.3449059  25.2104287  35.8280938   9.5292377
  74.1292429  42.4251223  83.6355305  74.8939610  42.7997494  84.0726662
  73.5939312  43.1824207  83.3985233  64.0663528  67.1960878  84.1995430
  64.4991779  67.9490995  84.6018696  64.2435884  66.4701509  84.7977352
  26.7997317  34.4949048  28.1482410  26.4820342  33.7143605  28.6021709
  27.5716214  34.7640507  28.6462116  28.8945155  15.3012793  10.1651478
  28.1017403  14.7648661  10.1637554  29.2182593  15.2478736  11.0643482
  90.9621061  12.9168074  10.4111290  90.6346501  13.6513655   9.8920536
  90.8258571  12.1503680   9.8541451  53.5833979 103.5693741  70.5310345
  53.0504560 103.7546539  71.3042593  52.9571342 103.2581139  69.8774672
  48.1470442  26.8937683  87.8643894  48.3526945  27.7662611  88.2000923
  47.9713154  27.0306087  86.9334602  64.2186213  52.2713232  86.8278694
  63.5146379  52.4545479  87.4500179  64.1267967  51.3393211  86.6299438
  84.5286655  75.5552959  90.1789856  84.4838810  74.6836424  90.5719757
  84.6413231  75.3904533  89.2428398   5.0659852  36.1929696  17.3718834
   4.7789483  35.4888814  16.7904186   4.5751910  36.0502999  18.1812000
  86.6663886  99.8128008   8.1083012  85.8871461  99.9762844   7.5769997
  87.3857404  99.7885107   7.4773026   1.9951372   6.3055031   0.7191658
   1.4005570   5.5582659   0.7850647   2.6321106   6.1672919   1.4201641
  27.1414380  13.3481305  10.5508709  26.3963751  13.3382886  11.1517239
  27.6806502  12.6065772  10.8258057  84.4447994  52.4406052  88.9775372
  85.1351833  53.0189276  89.3017960  83.9750290  52.1638536  89.7642708
  11.5042596  26.5907376  23.9066887  11.5203528  27.4754040  23.5415268
  12.4241309  26.3820832  24.0695572  73.4138393  99.4862843  83.9097023
  73.9309740  99.3787384  83.1114292  72.8454208  98.7164593  83.9323711
  72.8951693  82.4487114  89.7773170  72.0846653  82.0780468  89.4281387
  73.5137892  82.4011707  89.0484238  33.2473950  16.4557259  16.6340065
  32.7836327  16.4707749  15.7967854  32.6709132  15.9633105  17.2183228
  56.3678980  58.7216616  77.7535486  55.6127167  58.1785917  77.9793978
  56.9304276  58.6832523  78.5270596  48.2802439  37.7422094  85.8038616
  49.0930414  37.2366500  85.8040142  48.5653925  38.6541486  85.8611679
  57.5164104  68.7981628  16.3286495  57.2397006  68.9530884  17.2317886
  58.4080482  68.4587537  16.4062119  67.6537848  62.5238991  82.7407455
  67.3760176  63.4380484  82.7991772  66.9419384  62.0866823  82.2734642
  93.7117100  82.5330137  10.8176899  93.8643218  81.6115736  10.6081963
  94.0508700  82.6358341  11.7068672  20.0217509  75.0994396  67.5569487
  20.1732326  74.7523642  68.4360552  20.5850601  75.8715153  67.5039101
  67.1490669  18.0877447  82.0991039  66.4395857  17.4458051  82.0711803
  67.0257664  18.6154842  81.3101101  56.8000555  44.5870686  90.2482796
  57.3465109  45.3537416  90.4210091  56.6208553  44.2206669  91.1142349
   7.0418934  10.3607886  18.2025051   6.1214356  10.4716532  17.9643917
   7.5262074  10.6677048  17.4360371  66.1392546  65.6009637  40.5472374
  65.5545617  65.4339181  41.2864685  65.7224561  65.1589464  39.8075485
  97.2938156  36.3516998  78.6052132  96.5325737  35.8058381  78.8021135
  96.9299126  37.1213937  78.1677485  17.8966002   8.0040782  21.0840034
  17.7278046   7.4214308  21.8244553  18.4690766   7.4984925  20.5070400
  95.8077621  91.5553856  79.3838310  95.5542946  91.7820835  78.4890699
  95.1771450  92.0178032  79.9358511 101.0081197  95.1262115  15.7047081
 100.9264470  95.7500242  16.4261150 100.1197291  94.7952961  15.5724812
  52.4126963   2.4882500  31.4530373  52.6950411   1.7216628  31.9518948
  51.5274195   2.6674645  31.7699146  36.0009742  51.1723042  76.8557215
  36.6377020  51.1155272  76.1432695  36.4717293  50.8492088  77.6239824
  51.3129711  56.9623423  87.1499634  52.1399212  56.6265917  86.8040466
  50.7810307  57.1352768  86.3731956  39.2204194  36.7171471   1.7524719
  38.3537440  36.3210957   1.6616631  39.3735509  36.7443745   2.6969433
   1.9577841  30.7215016  30.9987736   1.3455920  30.1511853  30.5338001
   2.8230385  30.4235928  30.7180119  76.9164896  58.8446093  86.7515087
  77.1183109  58.1130791  87.3349190  76.0750198  59.1759729  87.0651436
  22.4287610  46.3011544  11.7393398  21.9012456  46.0142987  10.9939003
  22.7632765  47.1596329  11.4798069  48.6918502   8.0865090   9.5978737
  48.4714560   7.2997229   9.0992546  48.2522349   8.7970297   9.1308308
  48.5907797  11.6449874  84.0087891  49.3733554  11.5426676  83.4671783
  48.0469947  10.8884471  83.7892914  81.4306164  93.1145763  85.1890278
  82.1073055  92.8783512  84.5545864  80.9205818  92.3129082  85.3048801
  38.6143136  52.4929190  89.1382122  37.7371740  52.2157669  88.8735580
  38.9461088  51.7663574  89.6657085  73.1772590  89.7570728  29.2557526
  72.2201324  89.7602962  29.2672062  73.4279609  89.7971009  30.1786709
  84.0990257  43.6553669  83.9769650  84.5293236  43.5378695  83.1300449
  84.5057774  44.4395494  84.3455315  57.8877401  48.9855433  75.9650469
  58.2207727  48.0917406  75.8847713  58.6732435  49.5308590  76.0080671
  58.6601882  36.7174046   1.5955353  59.4862990  36.3089078   1.8541813
  58.8881640  37.6311104   1.4240646 100.3451633  68.8004303  67.7980661
  99.7951698  68.6383867  67.0315981 101.2412453  68.7388420  67.4671888
 104.4362164  94.7069191  29.9086857 103.5872508  95.0945734  30.1213264
 105.0344992  95.0664972  30.5636597  86.1134529  69.7388935  67.7116442
  85.8148384  68.9327240  67.2907495  86.9565010  69.9264669  67.2989511
  91.5137100  62.4609327  85.7535076  92.4061966  62.1472549  85.8994770
  91.1736774  61.8999672  85.0564289  96.2386227  78.2526541  66.8205452
  97.1712112  78.2356262  66.6055202  96.0394478  77.3571682  67.0937824
  34.2727046   1.0230153  23.4672260  34.1686730   0.3026240  22.8455830
  34.0826611   1.8097298  22.9561520  54.4515662  17.4521344   1.1810303
  54.7989421  16.7271989   0.6613827  53.5407309  17.5344651   0.8984661
   0.5593924  22.3966496  12.4905682  -0.0559755  23.1057780  12.3043251
   0.1386337  21.8908160  13.1857872  18.7288003   6.7312520  10.9256744
  17.9647259   6.3561385  10.4878140  19.2724995   7.0668881  10.2129459
  58.0859427  26.4698165   6.2655830  57.2272162  26.5158932   5.8452129
  57.9670672  25.8508055   6.9859409  57.9464293  65.0957680  73.3449602
  57.9435539  65.2774811  74.2847490  57.1439505  65.5037498  73.0196667
  89.9579144  43.2304668  82.4452686  90.2164936  42.3553848  82.7344131
  90.4222965  43.8245058  83.0349255  54.5241642  31.2899518  77.5037384
  54.7067404  30.7388759  76.7426777  55.3731537  31.3937664  77.9334784
  97.0562363  77.6572441  31.7029953  96.9464637  78.1108402  32.5387192
  97.5987721  76.8970011  31.9125652  29.7802834   6.3174908   4.9276829
  29.4309954   7.1539919   4.6202946  29.1270880   5.9997456   5.5510712
  87.3920918 100.1923298  31.9302654  87.0947648 101.0925697  31.7983723
  87.0174790  99.9374698  32.7734375  99.9047566 102.8857492   7.0048523
  99.5121527 103.2485794   7.7988625  99.2562295 103.0501960   6.3203049
   6.7586426  22.4353688  12.3766518   7.1615319  21.6587107  11.9884300
   7.1325688  22.4847834  13.2564068   1.1770682  11.1883633   7.8469849
   1.3074259  10.5975478   7.1052456   1.2786107  10.6305735   8.6182117
  11.1896423 101.4017843   4.2711067  10.8033947 102.0683073   4.8392582
  11.8292812 101.8790172   3.7425804  56.4781475  54.5153666  80.3149605
  56.8681335  54.2343855  79.4871998  56.6577721  53.7962627  80.9206486
  39.9488358  13.8868086  10.4210377  40.3255610  14.7035020  10.0934410
  40.4801755  13.6680739  11.1865902  60.4924154  53.7587404  82.9812908
  60.2230692  54.6278524  82.6840878  60.0131083  53.1530714  82.4158955
  43.5324626   1.9716160   5.0717354  44.0281253   1.6284173   5.8152103
  44.1977744   2.3364394   4.4882202  46.3896942  53.7114573  76.6521788
  47.2336960  53.3613920  76.3669586  45.7704973  53.4180927  75.9837723
  52.8003840   3.6837857  16.8350506  52.5863700   3.3793204  17.7169418
  51.9551329   3.9144604  16.4496040  85.0406837  44.0469837  72.3135996
  85.5050945  44.7469759  72.7724886  84.5211601  43.6182880  72.9937077
  77.8328566   6.9842761  24.9384975  77.6396899   6.9996207  25.8758736
  77.8560786   7.9066174  24.6835995  10.5143551  23.9785950  14.8797989
  10.2719597  24.6839087  15.4798126  10.2492671  23.1777041  15.3320599
  79.3057872  90.1828431  13.4603596  79.6667147  91.0055159  13.7907791
  79.1733742  90.3378843  12.5251198  52.9097271   3.6319453  82.7074051
  51.9534731   3.5956693  82.7296162  53.1640816   3.8024533  83.6143017
  52.2623877  27.0418923   8.7863350  52.2162776  27.7969067   9.3729019
  53.1854872  26.7887919   8.7938213  10.2331881   3.6977332   4.2940140
  10.6081490   2.8525822   4.0463257   9.8879437   4.0555422   3.4760857
  32.9731087  -0.0552137   7.6097775  33.5655074   0.6857817   7.7371407
  33.3341508  -0.5239208   6.8573189   2.2864561  27.4007886  28.5954285
   1.5675835  26.7842333  28.4564304   2.6810364  27.1259730  29.4230843
  70.4475117  62.1287489  75.7632208  69.6165323  62.3876858  76.1615372
  71.0811710  62.7639914  76.0966492   2.1664385  92.5280880  16.8693352
   2.2019867  92.8430055  17.7725506   2.8978590  91.9144581  16.8006706
  96.1422634  66.8037891  70.7892799  96.3513279  67.2120285  69.9491215
  95.8084679  65.9370232  70.5579233  96.1775828  83.2625102  40.6428909
  95.2213002  83.2233094  40.6576920  96.4480878  82.3966430  40.3373814
  63.2922935  72.4384212  84.2933083  62.8103733  73.0926800  84.7992039
  63.3890629  72.8303719  83.4254169  51.9790363  58.5009527  83.6816883
  52.4321175  57.9293871  84.3015766  52.6301432  58.6834335  83.0041981
  64.3843321   4.8260396  21.2752342  64.2731909   5.6421607  20.7875633
  64.0946154   4.1437714  20.6695843  47.0995764  20.5928748  23.6646843
  47.2012000  19.6435588  23.5960579  46.3245730  20.7894509  23.1384182
  22.7672105   6.1356919  17.6363373  23.3921866   5.8533948  16.9685459
  23.3106713   6.5072482  18.3311939  42.7725463  50.4476731  25.7990170
  42.1778731  50.5809872  25.0608921  43.6378626  50.3668301  25.3978539
  98.3340216 102.1627020  31.2203312  98.6817790 101.2895988  31.4019489
  97.4432088 102.0053695  30.9073734  67.7391672  54.3069124  78.8207102
  67.8652906  53.4398699  79.2061472  67.5159931  54.8687696  79.5628309
 108.0588294  93.1609653   2.3436546 107.3914147  93.3565925   3.0013180
 108.8656855  93.5282873   2.7046108  83.5838843  92.6984070   6.3403416
  83.3863545  92.8278087   5.4127312  84.0122891  93.5109304   6.6096210
  91.6529751  98.6276436  79.6913290  92.5621223  98.3582401  79.5605755
  91.1430168  97.8323078  79.5376778  13.9961247  35.6198304  25.6408596
  14.0564923  34.7381871  26.0086727  13.9381699  35.4814999  24.6954823
  56.2489033  81.0415745  85.9307957  56.6973162  81.4762211  86.6562176
  55.7239056  80.3587723  86.3483906  43.6516623  15.3649562   0.0385189
  42.8978305  15.4519932   0.6219578  43.5108809  16.0298531  -0.6355190
  28.9660554   1.1426156  41.6047382  28.4184699   1.6940491  41.0458946
  28.8727336   1.5204423  42.4792480  68.3908796 102.4503994  75.8082914
  68.7095594 102.1998978  76.6754246  69.1051531 102.9627419  75.4294109
  93.3668613  67.8351021  91.0153961  92.9029083  67.4276161  90.2840042
  94.2727661  67.9062748  90.7145500 101.4573435   7.8340476  13.7027168
 101.0550837   7.2743409  13.0385208 100.7652049   8.4470742  13.9504719
  88.2262039  71.9601440  42.0250034  87.4934196  72.5503349  42.2008801
  88.8649654  72.1609402  42.7090311  58.9787631  33.2548325  23.6012459
  58.9535098  32.8593056  22.7299595  59.7657065  33.7997334  23.5941982
  53.9315180  11.0344355   1.0988998  53.9924960  10.5588048   1.9273186
  53.6949496  10.3660576   0.4558277  85.6938934  80.3646469  34.9971914
  85.4672623  81.2209225  35.3600502  85.2894592  80.3574944  34.1296577
  74.1777134  66.4198256  74.2102957  74.7114277  67.1186256  73.8320589
  73.2767010  66.7289066  74.1160727  11.7285256  41.4610665  25.1179314
  11.8462329  42.2746079  24.6274948  10.7936291  41.4375394  25.3219986
  66.3389449  13.7271683  21.9596481  65.8377413  14.4166367  22.3951435
  66.8632941  14.1890328  21.3054466   1.4849857  92.6336168  19.9178696
   1.0757641  93.2566999  20.5183220   1.0897402  91.7909096  20.1411533
  42.7425627  53.1872933  26.2671185  43.5354476  53.5236352  25.8494473
  42.8946643  52.2455971  26.3464355   2.5078157  66.4883709  88.7229824
   1.6124681  66.5453053  88.3892918   2.8043798  67.3972845  88.7693691
  77.7493954  71.9236565  86.3270283  78.5737085  71.5931797  85.9699154
  77.0804882  71.6021585  85.7225227  70.7982302  82.5076294  55.7314014
  69.8972702  82.5565243  55.4118586  71.1108398  81.6522980  55.4365778
  31.3735490   8.8725608  19.9301720  30.4181342   8.8145535  19.9370289
  31.5730624   9.6073620  20.5102539  74.0699153  78.6320298   3.3638382
  74.6313910  79.2599576   2.9092121  73.6070494  79.1548245   4.0185738
   9.8276667   9.5849412  26.0863876   9.9921946  10.5087321  26.2755203
   8.9827685   9.4030087  26.4978123  57.3575072   8.8878434  54.0091038
  57.4342875   9.2827504  53.1405449  57.8674082   9.4629471  54.5796204
  92.7150822  61.7360497  89.9549484  92.7266121  61.1214828  90.6887150
  93.2168388  62.4896193  90.2657795 105.4777147  42.0321267  14.6521568
 105.5590488  42.6446526  13.9211082 105.7126547  42.5475400  15.4237652
   7.1781353   9.6363658  83.2913971   7.1016315  10.5325622  83.6188316
   8.0982784   9.5501632  83.0421543  46.4746146  15.1620047  36.4271545
  47.2211413  14.5635073  36.4543247  45.8193068  14.7533505  36.9926643
  56.1803774  21.1164801  49.4196510  56.2314372  20.3325741  49.9665642
  55.6885485  21.7453377  49.9477386  51.1886458  29.9927895  69.5091820
  50.8439784  29.2277520  69.9697685  50.4862837  30.2490323  68.9114571
  91.9348621  87.4538708  83.7225628  91.0828209  87.0249653  83.6431885
  91.7870903  88.3420658  83.3977413  89.0632586  21.0485690  44.1115189
  89.6631674  21.4753382  44.7232533  88.2103877  21.0902207  44.5440769
 100.6570435  94.4999886  55.2597237 101.5360260  94.5432377  55.6362391
 100.4775906  93.5633755  55.1773357  84.0506268  70.6883669  85.9415722
  83.2049942  71.1365938  85.9262276  84.6679592  71.3295174  85.5893517
  42.8906970  43.4992974   4.4279861  42.4795060  43.0489342   3.6902046
  43.5432295  44.0722458   4.0253067  71.5893793  84.4152451  79.2480087
  70.7945967  84.0974140  79.6764231  72.2054005  84.5632935  79.9655247
  40.2656274  23.4942191   5.2010918  40.1523356  23.4127848   6.1480713
  39.6778922  24.2067759   4.9499607  89.4313335  66.7567492  89.8468304
  88.6588669  66.6693687  89.2883492  89.0846634  67.0421076  90.6921864
  18.5963540  10.9110539  21.7162418  18.4366707  10.0870412  21.2560940
  19.5192628  11.1031525  21.5501976  47.8222275  76.9130373  63.4616375
  47.5265932  77.1992588  62.5973940  47.6772833  75.9668779  63.4631395
  46.4247894  79.5921612  87.1397686  46.8613672  80.4439163  87.1277046
  45.5569267  79.7626448  86.7737293  44.5594406  50.4611015  87.0340252
  43.8736343  50.6120539  87.6844978  44.5382786  51.2402725  86.4784431
 102.9398632  47.5673246  82.5576305 103.1363773  48.4636641  82.8300095
 103.4814930  47.0200109  83.1262398  25.2405791  62.4387162   3.1374550
  25.0546364  62.9059689   3.9519024  26.0756640  61.9995110   3.2985973
  78.1333017  67.9799032  88.6712360  79.0499210  68.2333851  88.7797928
  77.6606417  68.8101339  88.6117268  23.8761191  45.0332921   2.4707699
  24.1679530  44.2528241   2.9418659  23.0765061  45.3013413   2.9235458
  40.9129243  52.8344529   3.0156136  41.0859637  52.2184651   3.7275410
  41.6476063  52.7170079   2.4133873  36.8659024  30.0279420   6.4766788
  36.8373208  30.9773343   6.5952778  36.4216809  29.8773186   5.6422901
  32.1959357  47.9304974  17.7890396  31.7387919  48.7681191  17.8640842
  32.1715169  47.7272313  16.8539906  26.8863110  24.9727576   9.6952343
  26.8497471  25.8610623  10.0499249  27.2035889  25.0855010   8.7992096
  61.3856749  33.2139866   4.2524147  61.3062720  33.0459206   5.1913929
  62.3210101  33.1221955   4.0709114  67.3089600  70.3402519  76.7289114
  67.6536036  69.6534538  77.2996616  66.3645983  70.3297234  76.8848038
  83.5324530   9.7489064   1.6280079  82.8996997   9.0319245   1.5856552
  83.7881045   9.8968308   0.7175159  64.9487686  72.9429770  55.0257063
  63.9946079  73.0016851  55.0742865  65.2214670  72.7311611  55.9184551
  27.6602654   3.9807599  22.1580315  26.8358712   3.7759297  22.5992298
  28.1128268   3.1397717  22.0935822  22.5475888  43.7203591  29.5682049
  21.8017630  43.8175099  28.9761448  23.3000426  44.0168278  29.0562058
  41.6662888  13.9255993  20.8307552  40.7650189  14.0769761  21.1154175
  41.5804724  13.5382121  19.9596691  22.1753124 100.1949428  21.6735077
  21.2800411 100.4667591  21.4713955  22.5544361  99.9687122  20.8242035
  60.9861374  64.3871450  55.8980608  61.7275620  63.8620234  56.1993313
  61.3848305  65.1765728  55.5318880  74.9027252 101.9153023  84.2678070
  74.1449738 102.4991131  84.2330837  74.5269346 101.0409641  84.3704700
  57.1015787  50.5624819  89.2802238  57.8857660  50.0474024  89.4698906
  57.4245834  51.3192129  88.7910748  16.1041312  33.3722394   9.7424889
  16.4836602  33.2462304  10.6121540  16.5736537  34.1249459   9.3830299
  60.4357052  56.7191219  79.2212868  60.2860260  56.2459135  78.4028149
  61.3170815  57.0813656  79.1307783  86.3024807  47.8545332  87.1387386
  86.2330055  48.8083601  87.1789742  86.9795895  47.6911879  86.4821815
  96.9215107  73.9770079  79.7581816  96.5869045  74.7325420  79.2750263
  97.8723335  74.0865993  79.7455645  50.0615072  74.7711468  53.4655714
  50.3373909  73.8954067  53.1950092  49.5611334  75.1053047  52.7211285
 107.4643803  82.5248432  91.2547684 108.2729530  82.0345592  91.4033222
 107.3667431  82.5429535  90.3027344 107.1497726  90.4926300  76.2582445
 107.2802258  90.5039883  77.2064447 107.9498768  90.0982094  75.9111071
   5.8784393   0.4673404  66.7267895   5.3277353   0.9848613  66.1393118
   5.3104833   0.2634162  67.4698019  68.0292034  96.3803482  87.8373814
  67.2586536  96.6194344  87.3222828  67.7257061  95.6752586  88.4091949
  36.7965941  22.1613162   0.7903099  37.0892100  22.6678507   1.5479565
  36.6572241  22.8146355   0.1047516  40.1645665  49.6883671  18.8826275
  39.4174199  49.3504613  19.3764114  40.8041243  48.9763634  18.8988209
  59.0058184  56.2316084  87.1616268  59.8065138  55.7077265  87.1358776
  58.4209108  55.8060884  86.5346909   7.8038983  30.2016156  29.0666389
   7.1557002  29.5000832  29.0040493   7.2971348  31.0063450  28.9578438
   5.0205521 102.4635385  34.4999313   4.2629198 102.9290889  34.1456795
   5.4903416 102.1481489  33.7278748  71.1170292  91.4542294  38.6627698
  71.2165451  92.3435593  39.0024924  70.2075720  91.2250996  38.8541484
  91.6995621  84.0492249  56.3230991  91.5719700  84.0467262  57.2717524
  92.6496124  84.0752220  56.2092781  81.6951180  65.7834673  75.8254147
  81.5613937  65.5076170  74.9186277  82.5113678  65.3576565  76.0874033
  33.1654839   9.4657796  10.7106781  34.0781073   9.7528451  10.7414246
  33.2164769   8.5193389  10.5769825  32.9432492  42.6377957  19.0337372
  33.8695674  42.8056138  18.8604927  32.9271083  41.7641347  19.4244862
  45.2845149  19.6682351  17.2803020  45.9671931  19.3573229  16.6857433
  44.5969920  19.0046685  17.2234726  57.5692515  37.9734604  29.1526127
  57.8160243  37.5584118  29.9790955  57.0307212  37.3192017  28.7074566
 110.6624603  96.9349575  79.1033030 110.0558472  96.8971539  78.3638287
 111.4610958  96.5183449  78.7794876 106.4869691  14.1428870  90.7492542
 106.4760829  15.0963992  90.8324623 107.1849633  13.9654464  90.1187325
  28.6495165  11.6310303   8.1214619  29.0274291  11.5041440   8.9916897
  28.9626174  12.4931662   7.8477478  37.2777323  20.6952946  13.3521557
  38.1775527  20.4379599  13.5529804  37.3560338  21.5784114  12.9913235
  26.0900454  18.3312218  30.2431297  26.8756394  18.8539498  30.0824261
  26.1816029  18.0332654  31.1481571  87.1365166  83.0216217  72.2684383
  86.2753868  82.8788853  71.8756199  87.0056343  83.7514305  72.8738165
  40.0234275  22.4664061  44.8851967  40.0545649  23.1581299  45.5460835
  39.2670493  22.6879780  44.3420219  54.0132193  19.0799706  32.2334766
  54.6716456  19.7291701  31.9859886  53.7297873  19.3475764  33.1077099
  76.1578989  98.4510136  82.2593880  75.8964682  99.2927551  81.8861008
  77.0137978  98.2718277  81.8700790  65.4209852  96.6876984  44.5547771
  65.7908964  95.8492088  44.8310518  65.7676983  97.3211098  45.1831245
  57.0900778  32.7846234  11.4370632  56.7135672  33.6381238  11.6515827
  56.8852667  32.2354596  12.1938324  73.9625025  76.8724537  89.9090576
  73.1612158  76.8622589  89.3855381  74.3153191  77.7542257  89.7897911
 111.4592934  90.8582401  64.8425245 111.7626286  91.6013908  65.3640175
 110.5047321  90.8981037  64.9013424  21.3466601  45.8654969  14.2861176
  21.0060315  44.9909394  14.0980816  21.6219573  46.2036221  13.4339905
  37.3666625  34.5542519   4.4805145  37.1814589  35.3990166   4.0702724
  36.9216828  33.9150612   3.9240360  22.1182346  76.6743612  88.5718918
  21.7870116  75.9216976  89.0618134  22.0384121  76.4163494  87.6535892
  42.2023539  29.9977677   2.9933167  42.1697812  29.1589158   3.4532070
  43.0016474  29.9523728   2.4686241  38.4643817  84.5464611  63.1194878
  37.5632668  84.8422623  63.2487965  38.5803103  84.5399189  62.1693563
  49.9707179  14.1597073  13.3250809  49.7134738  14.5604603  12.4947453
  50.7271533  13.6162083  13.1045246  44.8256926  40.1679890  14.3149948
  44.9138980  39.3140786  14.7384262  44.3791060  40.7120221  14.9636936
  41.9226699  31.5261738   0.3948402  41.2091021  32.1442883   0.5529308
  42.6878218  31.9351666   0.7991982  26.4256720  26.1480849   5.9308529
  27.2880892  26.3306563   5.5578518  26.4554076  25.2190726   6.1595154
  55.2194457  32.4447053  15.6004238  55.1303534  32.9824917  14.8136139
  55.3067736  31.5503590  15.2706337  78.0696774  88.3274364  90.0811195
  78.8246584  88.1052780  89.5362473  78.1960058  87.8209209  90.8834362
  48.6042833  46.1870813  70.7862043  47.8055906  46.3987446  71.2694407
  48.4687948  46.5707493  69.9197912  14.8947482  37.9219239  27.1397400
  14.6866469  37.1348374  26.6363335  15.7662062  38.1766789  26.8366051
  57.9015784  41.9836609  22.6138878  57.0330863  41.6439717  22.3980999
  58.4476618  41.7364590  21.8676281  77.5289822  99.1576004  70.9916353
  77.0071650  98.5437965  70.4747391  77.8297138  98.6440849  71.7413664
  85.7148647  52.0551109  80.5859756  86.2131691  52.7311945  81.0451317
  85.6008911  52.4011660  79.7008228  16.8884568  10.0117962   2.9193687
  16.8066363   9.0609877   2.8451824  17.4632268  10.1446431   3.6731720
  65.3950930  91.8905544  87.7714729  65.0290155  92.1209908  86.9175911
  64.8408413  92.3507118  88.4017754  36.8376732  91.1316586  63.5668612
  36.4648247  90.4270077  63.0370760  36.3141561  91.1315346  64.3682098
  57.7696471  32.8403466  26.0323334  57.1304183  33.5434239  25.9170437
  58.1303363  32.6986783  25.1570892  55.5364184  36.8076508  11.0198498
  55.3761916  37.0076935  10.0975990  54.6630339  36.7435925  11.4062786
  24.8389487  14.1842930  40.3828812  24.2690901  13.7129109  40.9905720
  25.7215886  13.8851302  40.6012440  75.7655001  53.3697176  77.3481989
  75.8567095  53.5560656  78.2826424  76.3942766  52.6675177  77.1815157
 108.5207463  11.5675849  90.7565212 108.4796429  12.3104590  91.3587570
 108.1388236  11.8972796  89.9430943  57.5335026  80.9890175  73.1977606
  58.0115557  81.3525772  73.9430952  58.2051420  80.8393383  72.5323868
 110.1550080  30.7673447   1.7201042 110.8906271  31.3772194   1.6639900
 109.4653346  31.1751073   1.1963654  69.8017216  85.9538555  66.0721588
  69.1114521  86.6156864  66.1137962  70.4014301  86.2752819  65.3989077
 107.9219962  86.9991349   5.3020859 108.1414462  86.2108348   5.7987309
 108.3250333  86.8620299   4.4447708  55.0334029  17.8720515   4.0821362
  55.8964591  17.4590533   4.0540314  54.7992282  18.0003493   3.1629276
  85.9820414 103.1140636   5.1455784  85.6022502 103.7784361   4.5705986
  85.8426381 103.4541772   6.0293865  62.1413474  10.6617921  16.5547848
  61.3600497  10.9984963  16.1160946  62.3939662  11.3576501  17.1615696
  62.6653767  71.6878366  69.6172333  62.5235367  72.0209122  70.5033350
  63.5425997  71.9920874  69.3845558  63.6372142  10.0639241  25.7472897
  63.1922202   9.2368739  25.9322453  64.5641760   9.8749964  25.8931351
   7.3985200  25.2481883  12.4145985   6.5160422  25.6132453  12.4793816
   7.2662739  24.3586819  12.0866966  84.9127007  65.8586979  86.7083454
  85.0023174  66.8040037  86.5874958  85.5246353  65.4776525  86.0786152
  45.6904177  25.2136414   6.0346222  45.0211577  25.8462899   6.2955570
  46.0114054  25.5378907   5.1931572  76.3226844  94.8410772  16.2139320
  75.7285453  95.5230211  16.5272808  76.2044144  94.8383020  15.2640724
  85.7990646  92.4536133  69.6718740  85.2256298  92.0844364  69.0002251
  85.2260303  93.0153656  70.1936817  26.0722880  28.8672917   7.0884037
  25.8360629  28.4546368   7.9191589  25.8272938  28.2240288   6.4232540
  23.8261656  27.3403828  41.6877079  22.8702979  27.2970669  41.7136478
  24.1139893  26.5141289  42.0759010  40.5339198  17.1747582  10.5594540
  41.1968999  17.0791905   9.8756695  41.0325341  17.3866694  11.3485718
 110.6524946  11.2900441  49.9822903 109.9260451  10.9816449  50.5239487
 110.3141548  11.2587302  49.0874290  53.7772894  56.4206076  86.4161777
  53.9620876  56.9820833  87.1690559  54.5327282  55.8352089  86.3628101
 102.4154377  53.5566425  87.3196125 102.0432281  53.1683922  88.1114197
 102.8325462  52.8237200  86.8667698  64.7971587  61.1959450  14.9817085
  64.2028861  60.6011765  15.4392242  65.6669764  60.9608357  15.3047848
  37.0696931  44.2586415   5.7315540  37.0637040  44.7743600   4.9251843
  37.0304207  43.3494847   5.4346943  60.0386858  64.0265560  77.2425652
  59.2353582  63.8689041  77.7385950  59.8356104  64.7826242  76.6917896
  67.0824957  69.9638414  86.2642860  67.7297974  70.4704237  86.7548084
  67.4279118  69.9338198  85.3720856  87.2631454  71.8468046  57.3512697
  88.1474972  71.7816639  57.7117062  87.2177029  72.7305698  56.9864130
  68.3268833  93.4621525  71.5244961  68.5375452  93.7663174  70.6416941
  69.1157770  93.6441231  72.0351458  52.2895102  18.4551089  12.1615887
  51.3326792  18.4742539  12.1435738  52.5034957  17.7595465  12.7833939
  51.4345698  21.7464965  21.5963173  50.7947306  21.3967412  20.9762287
  51.0675006  22.5868218  21.8708229  89.7458172  96.7486477  87.2628784
  90.2075100  97.3645496  86.6938972  90.2068329  95.9186268  87.1414280
  53.1241798  78.1623507  85.6524849  53.3630896  77.7194738  86.4667416
  53.5594082  77.6550627  84.9673080  18.9131074  64.8710816  39.3698406
  18.0981831  65.0112336  39.8520184  19.2527775  65.7520287  39.2123890
  19.1156249  66.8885319  14.4645119  19.3625216  67.3240082  15.2803707
  19.8911099  66.3845246  14.2178535  22.9775767  15.7746213  36.1486053
  23.6208920  15.5013840  35.4946041  22.3249821  15.0743668  36.1497879
 101.4971924  86.8157005  85.2264881 101.5190792  86.2013149  85.9601593
 101.9754696  87.5825214  85.5418873 101.6046763 102.6112436  -0.2738667
 100.9995986 102.4914669   0.4580975 102.2602654 103.2260393   0.0554657
  15.9341244  17.9849856  44.8790836  15.7256369  18.0877249  43.9505386
  15.3959422  17.2469132  45.1651573   1.1312465   6.9068616  19.6640968
   1.0625820   6.4534657  20.5043030   0.5068378   7.6293509  19.7300720
  42.5510983   5.1956504  28.2050323  42.0339493   4.8722451  27.4673367
  41.9795375   5.8292620  28.6387253  55.1414490  94.6252155  59.7857571
  55.4034901  95.5160618  60.0180435  55.8169556  94.3281269  59.1761160
  35.2917676   2.0072119  20.6473827  35.9576754   2.6946442  20.6319904
  34.5253424   2.4249261  21.0402393  91.2932205  69.2028761  83.4683132
  91.0317516  69.9647236  83.9854813  91.4730740  69.5553303  82.5967312
  59.4498634  79.5839453  65.9928179  59.7116804  79.7142887  66.9042397
  60.2586412  79.3372059  65.5442286  32.4520354  74.5122330  11.3162994
  31.5582232  74.8050015  11.4941120  32.8576378  75.2469914  10.8560276
  16.9277481 100.2571128   5.2321148  17.2440437  99.8024963   6.0128307
  15.9741119 100.2339958   5.3113556  69.1147470  64.9050570  87.3499107
  68.8524055  65.5030870  86.6500664  69.3873215  64.1084337  86.8945789
  46.6770129   2.8901904   8.1668377  46.1492972   3.0920403   8.9395046
  46.2515502   2.1252959   7.7793503  51.5540270  14.9812548   9.6415901
  52.3701434  15.3849833   9.9368858  50.9256034  15.1749842  10.3371429
  86.4445114  60.8662415  90.7531261  87.1221352  60.6895542  91.4056873
  86.4109516  60.0710583  90.2213478  14.0431790  37.3451512   7.5600433
  14.0541272  36.4017575   7.3984623  13.4760813  37.4507516   8.3239079
  78.0574989  47.4095583  75.6004477  78.0058861  47.5207663  76.5497637
  77.1873999  47.6515627  75.2832890  27.9108100  51.8146317   7.0884132
  26.9663815  51.9223397   6.9757843  28.2888131  52.6113885   6.7162228
  66.4018492  18.6985152   8.4138298  67.3469214  18.6947386   8.2619762
  66.0721545  19.4016307   7.8542233  38.4946494  21.8236678  30.0971794
  38.8886313  21.5715926  29.2620277  38.0601077  21.0288899  30.4065895
  29.1052870  12.2156756  30.5070686  29.2876534  11.3058798  30.2720356
  28.4845357  12.1556513  31.2332153  47.5447421  25.5071919  36.7053127
  47.2739749  24.8187487  37.3127460  46.7994170  25.6114524  36.1138344
  57.5154261   1.0226529   0.2791500  57.5015502   1.9072573  -0.0862503
  56.7172675   0.6130831  -0.0546551 100.5765153   2.2983283  76.6619921
 101.0431767   3.0425567  76.2817430 100.1014376   1.9122046  75.9261608
  25.6535105  52.2634118  48.5988235  26.4328484  52.0012848  48.1087780
  25.0726227  52.6432793  47.9396629  21.3652472  36.9160740   6.4885521
  20.8329825  37.6146119   6.1078072  20.7307772  36.3267987   6.8965149
   8.8256697  18.0047505  19.2279339   9.2326121  17.5160115  19.9433136
   9.3087487  18.8305228  19.1968250  85.9785652  54.1088581  86.3853741
  86.7631817  53.6402798  86.1006737  86.0902023  54.9946976  86.0403252
  78.2685948  98.7916063  31.9660473  79.1168500  98.4987854  31.6329670
  78.4530450  99.0994905  32.8534126  71.7814732  37.9449677  67.0857573
  70.9323406  38.3717251  66.9713688  72.3413134  38.3430028  66.4191341
  40.1511054  23.8105242   7.9005623  39.4263701  23.2284491   8.1289959
  40.8717589  23.5281222   8.4637165  18.7645439  94.1823886  20.5703640
  18.3076958  94.1362403  19.7304916  19.6928886  94.1969608  20.3375626
  40.0642781  13.5231202  16.4254093  39.1941170  13.1964343  16.6541576
  40.2849536  13.0680411  15.6127357  49.4883494  70.6495183  22.5146866
  49.2290644  69.7522061  22.7240849  49.5793872  71.0773842  23.3660793
  49.0852217  23.9231436  25.9817886  49.3192725  24.6184342  26.5966225
  49.3934207  24.2403309  25.1328850  23.1568673  45.7108212  52.4123764
  22.8409818  44.9394989  51.9417238  23.8138536  46.0937357  51.8310213
  50.7902198  64.6928971  23.6124134  50.1203303  64.3225663  24.1871643
  50.3029399  65.2467721  23.0024815  84.4382095  95.9017944  73.4141874
  83.5398102  95.6612682  73.1878185  84.7955513  96.2774849  72.6095772
  65.9613752  75.6758404  80.3650475  66.5021992  75.5789089  79.5812511
  65.9161615  76.6210032  80.5094624  76.7489772   4.4331687  16.8822289
  77.5361972   4.7307198  16.4261818  76.3963275   5.2232354  17.2916889
  69.6897078  37.0652485  84.1972256  69.9558878  36.1459136  84.1830921
  69.2109013  37.1886015  83.3776188  68.8032293  71.3615322  87.6954651
  69.5095444  71.2222052  88.3262825  69.1754818  71.9594765  87.0472908
  73.8437609  18.7529128   2.1756649  74.5439200  19.3103879   2.5151253
  73.6065154  18.1906121   2.9130650  11.0840611  68.7617104   3.1016445
  11.8892865  68.9123051   2.6064968  11.3589720  68.7831681   4.0182590
  19.2209057   0.8728116  14.6402168  19.1027264   0.0001614  15.0153923
  19.2280917   1.4596503  15.3963947  64.5549870  89.4545460  89.8545074
  63.7141037  89.6051407  90.2863216  65.1696587  90.0185776  90.3238392
  14.4000439  11.7342586  79.7630167  13.4681705  11.6591758  79.9684381
  14.5125488  11.2142867  78.9672756  33.2614379  61.0880368  11.3537312
  32.6055007  61.7851060  11.3453102  33.5547928  61.0461896  12.2639084
  79.5627642  61.3768101  74.3805313  79.8327065  61.2278080  73.4743500
  80.3112125  61.8162203  74.7842312  56.0490656  96.1483765  70.5732536
  55.9036207  96.0706234  69.6303701  55.1696205  96.1625099  70.9508944
  82.0773888  75.0635862  69.3071842  82.7235222  75.6317997  69.7265673
  82.1354961  75.2807570  68.3767605  91.7259026  81.8939018  85.7458878
  92.1462631  81.9058990  84.8860073  90.9095764  82.3776913  85.6201839
  54.2169051  61.8145173  25.7944298  54.7085719  62.2600453  25.1045036
  54.6665530  62.0571606  26.6038609  71.9259071  97.3816490  83.2696342
  70.9885311  97.2758484  83.4319973  72.3240471  96.5958595  83.6441326
  99.7560120  80.5502224  83.4541512 100.6120872  80.1661777  83.6435699
  99.1272354  79.9075270  83.7825012  68.8347487   6.0506861  43.6136436
  69.2948298   5.2633135  43.3227921  69.3790011   6.7744486  43.3034992
  74.8766708  68.3177710  64.1101694  74.3977213  67.8105068  63.4547901
  74.3244123  68.2821083  64.8911762 104.8026873  14.2981618   8.5740280
 104.6879293  14.9928181   9.2224979 104.5759846  14.7093432   7.7399063
  48.7338500  71.1959450  18.4298801  49.3653922  70.5159848  18.1952858
  48.9374976  71.9245713  17.8434753  43.0494456  54.7458832  10.8373547
  42.4911647  54.5479672  11.5892696  42.4488644  54.7679513  10.0923443
  63.8887596  79.9428606  81.9761658  63.7122583  79.7837305  81.0489368
  63.4240913  80.7564163  82.1722507  50.0620227  48.1486409   4.8544884
  50.7444052  47.4936192   5.0012398  49.3429236  47.6598446   4.4542217
  49.7876692 103.6356735  88.2308388  49.5750380 102.7060223  88.3131313
  49.1375208 104.0792084  88.7756443  38.8142686  18.3643096  23.3031750
  39.1826205  18.2798951  22.4237347  39.0816073  17.5626795  23.7527847
  94.0457821  90.5925846  58.5020590  93.1209564  90.3457832  58.4961605
  94.4876671  89.8555660  58.9236975  23.2791714  12.8910750  82.2572422
  23.6908821  13.7514133  82.1763897  22.3474125  13.0570144  82.1139336
  66.9815922  52.2737646  85.3679657  67.3288155  51.8824100  84.5664024
  66.1925268  52.7366018  85.0862026  34.5506243  40.2799885  14.3810940
  33.8152938  40.8909695  14.3338490  34.5024495  39.7836011  13.5640812
  87.8816223 100.3180313  76.9303703  87.3814297  99.5453930  77.1931887
  88.4714603 100.0003433  76.2467003  69.1988997  30.9017651  20.9492207
  68.3663420  30.6202309  20.5699921  69.8578887  30.3725331  20.4999161
 105.5622387  96.7389584  57.7298927 106.0152054  97.4590588  57.2911263
 105.9986877  95.9500885  57.4082947   1.5994123  89.1314507  89.9286652
   2.0035413  89.7169018  89.2882156   1.9263795  89.4390011  90.7740879
  19.5571664 100.2964592  78.5771179  19.9301675 101.1422825  78.8255072
  18.6124948 100.4489613  78.5534048  13.6623291  16.1744517  83.0195999
  13.5299496  15.3719443  82.5149345  14.2028908  15.9041614  83.7618828
  65.9303999  60.3732109  86.9871902  65.0248718  60.1832771  86.7418861
  66.1908674  61.0882807  86.4066315  68.4114218  77.7628183  85.8411026
  67.8258181  78.2740688  86.3995934  67.9079962  76.9793034  85.6199741
 100.5647804  11.8458121   0.4045582 100.5401565  12.7954667   0.5219650
 100.9668590  11.7210953  -0.4550934  87.6492310  99.5024776  64.3968487
  87.5033283  99.8838711  65.2625799  86.7701149  99.3719196  64.0413952
  60.8184771  37.1579068  33.6140919  59.9631552  37.3844998  33.9792061
  61.1214308  37.9637902  33.1957531  17.1169285  36.2003129   3.0469894
  16.4580063  36.1209862   3.7367535  17.0397524  35.3874772   2.5474167
 105.3358841  98.7786770  89.8434925 104.4063473  99.0070343  89.8364353
 105.3795719  97.9384613  89.3870354 106.0940959  36.8308442   2.3032093
 106.2238909  36.6809075   3.2396412 106.9282843  37.1893494   2.0001602
  78.5212708  82.6518726  84.6088791  78.0584288  82.8451920  83.7936306
  78.7518263  81.7254448  84.5395184  41.7810301  56.8563740   5.3000641
  41.2880520  57.5311844   4.8333454  41.3343005  56.0386841   5.0808811
  37.5397830  24.3046420  10.2812099  37.6051716  25.2473824  10.1288891
  36.7888217  24.0286439   9.7557449  33.6647563   5.8704608  15.9009647
  34.3650345   5.3569787  15.4982471  33.7730269   6.7494385  15.5377769
  84.2443848  81.1504650  64.2821693  84.3665981  81.4881325  63.3948803
  83.3637333  80.7754421  64.2765331  20.8385376  10.5885238  77.3402309
  21.0617260  10.7075614  76.4170599  19.9752907  10.1751822  77.3265791
 108.8071632  96.7911339  77.2155380 108.5543728  95.8934593  76.9998837
 107.9765892  97.2521210  77.3333168  93.9371634  24.1277141  73.9250231
  94.8100281  24.1982764  74.3114948  93.5708714  23.3291167  74.3049097
  86.0453796 101.6145039  83.8816166  86.1398888 100.9295273  84.5435143
  86.3324451 102.4144077  84.3220520  33.0630974  55.1462166   5.5264950
  33.7823109  55.7741158   5.5950832  32.2780232  55.6885998   5.4508877
  34.8922448  69.8878949   5.6280613  34.9444823  69.9032776   6.5837193
  34.2696957  70.5818360   5.4110241  80.6008148  86.4854908  80.5827522
  79.6640682  86.5813255  80.4108238  80.6615543  86.3926220  81.5334988
  67.1396498  40.5240719   2.8208542  66.3186030  40.8913701   3.1482697
  67.2915702  39.7527211   3.3669090   9.2420677   9.0156764  63.3012772
  10.0979141   8.5910338  63.2426548   8.8741592   8.9355487  62.4212456
  84.1294479  91.2178612  78.9179516  84.0161514  92.1536446  79.0844202
  85.0423431  91.1322880  78.6431122  89.2053413  82.0478821  89.0499878
  89.5112801  81.1422443  89.0004349  89.5413208  82.3687458  89.8868847
  40.9383111  43.6295598   6.5507793  41.6243558  43.5946648   5.8841801
  41.0188203  42.7997201   7.0210075  66.9800043  85.6219864  83.0995464
  66.7895412  85.4412556  84.0200329  67.9249048  85.4911518  83.0203056
  23.9046292  20.0375979  17.5108147  23.0914883  19.6385901  17.2012615
  24.4674067  20.0656073  16.7370415  77.2485404  21.5606063  26.6933441
  77.5898032  21.8509047  27.5392246  77.1514563  22.3659032  26.1851120
  63.9703707  30.3723519   1.5511036  64.3522219  31.2374203   1.6997337
  64.3576579  30.0780194   0.7267189  76.2231159  87.7934170  46.6423988
  75.2953911  87.5617218  46.5990639  76.5899801  87.4676704  45.8204889
  27.5241522  34.4234173  11.0657501  28.4080510  34.6245282  10.7583237
  27.0981936  34.0087502  10.3155136  47.0510344  59.1336815   2.5800800
  47.4286418  59.4291871   1.7516327  47.7388434  58.6019986   2.9806614
  50.2636866  50.7988827  22.5881958  50.7062583  51.3009160  21.9038582
  49.4093470  51.2206643  22.6801205  40.4504637  26.5857022   4.0247536
  40.2364688  26.6652291   3.0951786  39.6013503  26.5135377   4.4606781
  22.7828507  37.6538937  23.7174988  23.1101565  37.3178094  24.5518589
  22.5957303  36.8703454  23.2005215  66.4615111  42.5889104  11.2739754
  67.3015551  42.1795075  11.4812088  66.0935263  42.0423787  10.5796337
  68.0477571  73.8555336  53.4007597  67.2641611  73.4916782  52.9886627
  68.7685156  73.3348608  53.0463076  88.7638092  54.6405935  72.8356695
  89.2819881  55.3590012  73.1984663  89.3961906  54.1101027  72.3510027
  74.2956315 101.7536485  57.7761889  74.1583666 101.0634321  57.1273518
  74.2079701 101.3101190  58.6198902  21.0964727 103.3255025  35.9405851
  21.9788026 103.0559699  35.6854820  20.7841396 102.6188326  36.5056491
  11.4314460  97.4601745  67.6660538  11.9351815  98.2685214  67.5708818
  12.0925187  96.7793405  67.7912712   5.9963989  88.5721796  55.7698345
   6.7233133  88.2140368  55.2603626   6.1729764  88.2927996  56.6681623
   9.6228456 105.3276612  74.6764374   9.3335628 104.7207070  73.9951515
   8.8696050 105.8998148  74.8230600  12.4643468  95.8209514  76.7573881
  12.5818967  96.3353061  77.5560427  12.0091295  96.4113998  76.1570644
   6.4332246  75.5211001  69.5115948   6.1008214  76.4159804  69.4413757
   6.1728286  75.2369362  70.3877687  73.6206628  19.6885298  10.1904678
  73.9172126  19.9235366   9.3112278  74.1238356  20.2574776  10.7730007
  98.3833929 101.2409773  59.3199539  98.7250944 101.6395840  58.5195875
  98.4966251 101.9147873  59.9903202  40.1693821   1.7830087  38.4796214
  40.1407242   2.5612295  37.9230404  39.2895174   1.7220318  38.8515759
  85.9858275  88.9952658   8.3328724  85.7895613  89.8489402   7.9469299
  86.5977193  89.1884945   9.0431404  86.8265248  56.8773289   4.0553093
  87.2013570  56.0914509   4.4529533  85.9347678  56.9184984   4.4007206
   1.7301535 104.3762862  55.3131819   1.1922931 104.2204116  54.5368814
   2.6252341 104.1991143  55.0239182 100.8427855  98.6653667  80.0442791
 101.5322705  99.3168908  80.1721764 100.0490256  99.1812682  79.9027777
  56.1778308  65.4121481  20.0524139  56.2115300  64.4704710  19.8840714
  56.3622332  65.4949437  20.9880352 101.1636218   9.4649822  88.2517719
 100.6313679  10.2178895  87.9947376 101.5510997   9.1549653  87.4332523
  67.0289680 102.8878572  73.2402372  67.4069967 102.4952286  74.0271091
  67.7197977 103.4569597  72.9009628  33.9377522  12.1665323  73.6993694
  33.7654328  11.5621698  74.4213676  34.6737456  11.7745495  73.2293749
 111.0392424  75.6517011  90.2113438 111.9686981  75.5502182  90.0062943
 110.8434363  76.5624147  89.9911308  20.1322507 103.6967841  86.5095425
  20.9665727 103.4405181  86.9025707  19.5879411 103.9583099  87.2522163
   6.4395427 100.1274943  69.9117088   6.2450408 100.5561670  70.7451582
   6.8274545 100.8168041  69.3726254  66.5143801  55.1902858  28.0779648
  66.7665625  55.9898232  27.6160431  65.5582667  55.1795270  28.0336857
  27.0748281   6.7773181  65.9141493  26.9341469   6.6688251  66.8547153
  26.2546039   6.4881200  65.5143595  29.2056799  14.4925058  79.7728729
  28.5746074  13.7813127  79.6624756  30.0426459  14.1139662  79.5037460
  90.8817054  51.7359752  28.5251045  90.8109904  51.9192429  27.5882721
  90.4439975  52.4750761  28.9474487  30.4543877  38.6349916  75.8219862
  31.0984325  38.5573435  76.5258408  30.8245707  38.1252646  75.1013088
  31.9115305  11.2942255  61.5931797  32.1997952  12.0862770  61.1395407
  31.1455584  11.0009253  61.0997295  11.0504889   5.0567251  71.6946697
  10.1238644   5.1296878  71.9233036  11.3488424   5.9624815  71.6120672
  71.1252428  43.0421613   1.5234852  70.9226108  42.2781538   0.9836102
  70.2857352  43.2921784   1.9094181  23.3239603   1.2139513  76.9741535
  23.0726981   0.2912293  77.0151949  22.6223445   1.6739616  77.4349785
  41.6412735  10.4742754  48.4354401  42.2782040  10.7110846  47.7612972
  42.1240044   9.8999208  49.0298462   4.8502254 103.4715183  87.2007084
   5.5941676 103.7250413  86.6543484   4.4024276 104.2953977  87.3928928
   3.8726901  78.6181813  67.2509050   4.2279529  79.5067960  67.2312546
   2.9665088  78.7160045  66.9585085  97.8320547  59.8684579  59.6062326
  97.4362632  60.6172496  59.1602564  98.1867047  59.3288833  58.8996124
  43.8943338  23.3856320  71.2143326  43.5601425  22.6343632  71.7043734
  43.3081532  23.4603715  70.4613161 109.0803286  71.8297726  89.0091133
 109.2926522  72.2464138  89.8443222 109.9131485  71.7989593  88.5382748
  88.0208119  94.8290270  56.0315609  87.4221393  95.5747229  55.9895849
  88.0208799  94.5735651  56.9540405  85.1454640  75.2743386   3.8459873
  85.5341388  76.0924696   4.1555500  85.8934546  74.7389268   3.5812759
  78.6954833  50.2090995   4.1664791  78.9679147  49.3266539   4.4180775
  79.5079947  50.7148209   4.1492081  86.6054536  12.4075435  12.6271629
  86.7304898  11.7009233  11.9936848  86.3746930  11.9609140  13.4417152
  66.4088274  32.7315234   5.5850697  66.8071152  31.8950056   5.3445721
  65.5790330  32.7476011   5.1081848   5.4451513  55.5842095  50.0994492
   6.0813522  55.6727344  50.8091259   4.6196460  55.3852635  50.5412579
  94.2076274  95.7453137  74.2529249  93.4110519  96.1660510  74.5764685
  94.9135514  96.3374287  74.5123529   3.8295554 104.4173845  47.5826073
   3.6580180 103.7072737  48.2011127   4.7763299 104.3910023  47.4442291
  77.0122529  67.8275357  12.5362968  76.9372202  67.8432809  13.4904194
  77.2222663  68.7303995  12.2976303  40.4061127   9.2836970  75.5251884
  40.5653381   8.4775829  76.0161638  40.4160357   9.9739337  76.1882925
  82.4256611   4.5670810  89.5018673  81.9408035   5.3320098  89.1919804
  82.0100784   4.3410513  90.3339958  19.4719648  90.3718263  58.3110237
  19.1691446  90.5777424  57.4266386  19.9259757  91.1637062  58.5991764
  97.4387237  79.0887218  49.8567915  97.3450919  78.1487018  50.0111532
  98.2443853  79.3276244  50.3151131  82.2643233  47.8657492   3.4724045
  81.5683795  48.2602211   3.9980412  81.9248009  47.8779774   2.5775337
  14.4192509  73.2161068  10.4581738  14.7911457  72.3940014  10.1387024
  13.8820938  72.9605554  11.2081051  42.0592356   6.4038402  82.7680302
  42.1207237   6.4791989  83.7202740  41.5376091   5.6143922  82.6234245
  77.8975774  69.3112444  29.4310474  77.5531626  68.7875305  28.7076283
  77.3865653  69.0344630  30.1916313  77.8949299 101.2681627  75.9223270
  77.2000154 101.9110992  76.0635996  77.4373835 100.4292309  75.8668566
  23.5546827   5.1643807  75.0447464  22.6303220   4.9888086  75.2207041
  23.5453296   5.8469993  74.3737936  54.9051094  14.2690074  63.7775660
  54.1465139  14.1055858  63.2171583  54.6433830  13.9390993  64.6371555
  64.2150259   7.1903408  28.0742669  63.9689302   6.3835740  28.5268116
  63.3961964   7.5133365  27.6981974 101.9077492  45.0586699  14.2741013
 101.0792161  44.7884600  13.8781834 102.4986602  45.1833700  13.5314655
  89.8708054  80.5969554  70.7397604  90.3309258  80.8415252  71.5426970
  89.7343012  81.4254027  70.2801180  12.9772043  94.6912676  47.6316690
  13.4997939  95.2055174  48.2470369  12.6990413  93.9259892  48.1348658
  39.8898471  74.8682641  23.6903095  39.9661959  75.6202768  24.2775822
  39.3328638  75.1777576  22.9760170   9.5097732  95.5538100  84.6907425
  10.0278424  94.7510475  84.6323204   9.9329137  96.1569440  84.0796661
  46.8144941  25.2132964  60.4189348  47.5877094  25.4825974  59.9231052
  46.2729263  24.7459221  59.7829294  33.4622169  19.7379184  47.6455832
  33.5134482  19.0979254  46.9356394  32.7577209  19.4159293  48.2079363
  15.0992870  98.3527893  82.8852940  15.6496906  98.8993835  83.4461117
  14.2889880  98.8523507  82.7848625  16.6778612  24.6018481  78.2297897
  17.5562489  24.9804091  78.1929159  16.6720819  23.9421010  77.5362968
  59.4870615  12.9129386  85.4750919  59.4561529  12.5716197  84.5813560
  58.8545370  12.3800921  85.9569836  64.7465993  93.9576601  18.7428570
  63.9687825  93.4085773  18.8415527  64.4015337  94.8422836  18.6220074
  69.2795969  80.9990715  17.3929119  69.8864771  81.6050290  17.8180599
  68.6299396  80.7986377  18.0667114 104.5121194  62.3866551  20.1112080
 103.8879729  62.3457436  20.8357716 104.0118600  62.0987170  19.3476200
  21.7354941  20.5096769  44.5455313  22.6683569  20.7241488  44.5438337
  21.4497066  20.6766748  43.6473799  50.8231855  89.3970631  10.0803661
  49.9682594  89.8175524  10.1726818  50.9626890  89.3430375   9.1349316
  83.5472918 101.9041656  25.3142548  82.6523209 101.6903375  25.0505638
  83.6411715 101.5125583  26.1826229  23.4130811  88.9330882  56.2156200
  23.7252139  89.7226625  55.7736063  24.1009473  88.7246960  56.8477869
  81.1186504   1.9831437  73.3904839  81.3844681   2.4963473  74.1534996
  80.5541897   2.5725302  72.8902435  61.1346626  43.0414629  90.4840946
  61.7274094  43.1669664  89.7430611  60.4713154  42.4323893  90.1597118
  71.1702348  71.5743409  17.3589897  71.3150717  70.9835445  18.0980587
  71.9676781  72.1018957  17.3142338  82.2080804  64.0746771  13.1225967
  81.4723635  64.5689629  12.7611637  81.8389893  63.6111997  13.8743877
  68.4774185  69.3552338   7.8932381  69.4058562  69.1741966   7.7467346
  68.2159067  68.7319754   8.5710239  83.6376477  47.0466052  12.5591660
  83.2851935  46.8806152  13.4334946  84.2334080  46.3149004  12.3981953
   8.5080194  69.8275095  87.3875999   8.4285831  70.0699049  88.3101940
   9.4396495  69.6433216  87.2677135  98.0540582  45.6340104  72.9243422
  97.8013631  45.8419400  73.8238621  99.0098473  45.6859570  72.9259682
  18.9874053   2.3205391  82.2758961  18.9274931   2.1482876  81.3362312
  19.3896139   1.5314263  82.6388836  39.4975495   5.1850152  67.9466915
  39.2283487   5.6715590  67.1675682  38.6902523   4.7852194  68.2702208
   1.0377000  38.2630134  71.9509602   0.5704507  37.4332786  71.8537617
   0.4793208  38.9051104  71.5126038  79.6201611  47.5893347   4.6548271
  78.9186717  47.6484619   5.3034019  80.1851559  46.8868058   4.9764824
  13.1489562  89.0702027  68.2598162  14.0121698  88.7201303  68.4801388
  13.2925653  89.5756858  67.4597549  51.6413593   4.2751229  63.0676603
  51.4459896   5.1333570  62.6915026  51.8997812   4.4623539  63.9700985
  20.6820297 102.9327108  69.8445702  20.0206088 102.7449104  70.5105209
  21.4638089 102.4701091  70.1463175  23.5220742  19.6093225  66.3557529
  24.1754293  20.2853203  66.1757851  24.0294218  18.8018739  66.4385605
  23.3598781  44.1773701  74.3543243  23.4312868  43.2611084  74.0867472
  22.9589820  44.1427088  75.2228355  45.7017899  21.6457844  89.6730900
  44.7560406  21.5259266  89.7592545  46.0585070  21.3445449  90.5086994
  23.3163738  16.8928993  88.8491535  23.6733794  17.3925233  88.1148815
  22.8874779  16.1407435  88.4410572  40.9192991   7.1403211  90.3838158
  40.7558727   7.2512513  91.3204193  41.1076260   8.0238116  90.0672531
  10.5322421  18.6838508  81.0109329   9.7683805  18.1094718  81.0641766
  10.4212534  19.2978930  81.7367840  19.6102560  18.0289114  75.7900190
  19.3014967  18.4506166  74.9881029  19.1205776  18.4593904  76.4908266
  86.3374758  90.1367806   5.0108337  86.5319396  89.2032503   5.0941181
  86.2004042  90.2701400   4.0729332  71.4453054  79.3375968   4.3184757
  71.2319804  80.1876305   4.7033978  70.7218457  79.1582845   3.7179089
 107.7798029  98.3680928  51.2703323 108.4110089  99.0390163  51.5304661
 107.2300168  98.7976968  50.6150389  61.9317985  79.8752569  29.8730564
  62.3805142  80.2122115  29.0975857  61.2474848  79.3039130  29.5244694
  59.4876909   2.4552159  68.7591314  59.3756104   2.4437116  69.7096777
  58.7655306   1.9223294  68.4263420  87.7984524  30.3625725  10.6104374
  88.2907344  30.1955985  11.4141846  88.3539582  30.0149249   9.9127388
  11.3980925   8.9187491  69.2260885  12.0594156   9.5797551  69.0212584
  10.8861411   9.3044055  69.9370050  81.1157895  67.9966723   0.8421612
  80.5786038  68.1444548   1.6205025  81.4753247  68.8585566   0.6321049
  87.0996209 102.7537551  67.3262787  86.4610489 103.2842320  66.8497801
  87.0495387 103.0711865  68.2279205  64.2348671  10.7891512  80.2560616
  65.1779461  10.9529662  80.2561951  64.0676928  10.3527272  79.4207048
  72.7240492  29.7198485  10.7206154  72.8275538  30.0437378  11.6153908
  73.5376001  29.9668311  10.2808857  25.3208447  18.4090936  73.9195347
  25.8151412  17.7713895  74.4345474  24.5806503  17.9127729  73.5702372
  26.2462473  29.6513557  88.9916992  25.6999731  29.8207068  89.7592545
  26.6101336  28.7792873  89.1444016   1.8266320  84.7478801  75.1948500
   1.6817712  84.0176278  74.5932055   2.6011848  84.4945103  75.6969500
  41.9060230  32.2973299  66.5369940  42.5421476  32.1007919  67.2247124
  42.3905611  32.1753001  65.7205629  19.2753315  49.7363424  74.2491531
  19.6382344  49.0117311  73.7397718  19.9521339  49.9373198  74.8955154
  16.8136024  65.7283360  89.2726231  16.5769910  65.5066877  88.3720016
  17.6718044  66.1458236  89.1989708  14.9288701  79.3006950  53.7111759
  15.2798843  79.8886972  53.0423927  13.9951467  79.5084029  53.7465334
   4.7785568  91.4457148  74.6125603   4.4290780  90.9532076  73.8699055
   4.9650764  92.3147136  74.2571926 102.3936579  35.7160997  88.3731651
 102.2838494  36.6387081  88.6033154 101.5612766  35.4690433  87.9702568
  52.0983160  51.8726536   0.6746292  52.4966145  52.6336239   0.2521229
  52.8144861  51.2431424   0.7585812  11.2952947  90.8136207  63.6185265
  11.6536998  90.6147057  62.7535343  10.4342603  90.3954965  63.6229563
  88.1669661  94.9930233  51.6995192  89.0299507  95.3633409  51.8848705
  87.9588481  94.4710713  52.4744320  47.4235630  31.4475346  71.1078358
  46.7022562  32.0655203  70.9893370  46.9970751  30.5945873  71.1904001
  79.4447400  93.8149374  50.0224304  78.8731041  93.2762605  50.5695057
  79.5831921  93.2917720  49.2328978  18.5265970  93.9229280  69.6220541
  19.2852115  93.3908206  69.8620558  18.4705972  93.8444131  68.6697245
  85.7988597  90.9276746  22.8292084  85.6854153  91.3069438  23.7007141
  84.9096251  90.7252382  22.5384903  70.7087351  60.9275453  -0.1499081
  71.3615752  61.6082989   0.0131989  70.6909085  60.4143141   0.6578636
  57.2265100  10.8280385  72.4075699  57.2323179  11.7299402  72.7281475
  57.3770094  10.2953076  73.1884527   9.1713814 104.0873264  21.7225933
   9.5169357 103.2979225  22.1393299   9.9303917 104.4845604  21.2955666
  12.5876737  22.6961780  56.7344236  12.5923300  21.8700314  57.2178411
  11.9183958  23.2244515  57.1694231  53.9354658  14.1965342  73.3955669
  53.3964491  14.3846095  72.6272440  54.5776606  14.9060071  73.4170961
 111.6361948 104.4535772  82.6731491 110.8672424 104.0559661  82.2646809
 111.2826534 104.9694703  83.3977795  83.8479186  71.3470636   3.3304119
  84.7761489  71.1198984   3.2754326  83.6239863  71.2182103   4.2520905
  21.3868046  10.9258044  57.3931408  20.5262041  10.7896233  57.7894354
  21.8771386  10.1319396  57.6066446  62.8591633   5.3068668  58.8488102
  63.0773878   5.4412282  59.7710657  62.6210308   6.1773419  58.5297537
  62.0205594  49.2222484  25.2068043  61.6565276  49.8985069  24.6355057
  62.8155447  48.9328958  24.7590351  21.9341969   9.3031663  84.4391727
  22.5165486  10.0557077  84.5430088  21.6980696   9.3092322  83.5115719
  49.8088814  41.5818857   2.0916462  49.1296209  41.6578530   1.4215183
  49.9989880  40.6447481   2.1348286  67.6246358  59.7239660   4.1232777
  66.7598749  59.7113048   4.5334721  68.0273963  58.8969402   4.3879318
  49.9289608  22.6106000  86.9131660  49.0845776  22.6416111  86.4634037
  49.7291374  22.2392011  87.7724552  46.8698931  27.1662116  81.6100693
  46.7105341  27.8542185  82.2562027  46.4125967  27.4651837  80.8241177
  95.3095337  91.6317755  72.8824282  95.1260158  90.7126015  72.6883316
  95.8714720  91.6054708  73.6568689  95.1223422  78.7304519  23.3230209
  95.9526253  79.0539669  23.6725903  95.3732444  78.0358361  22.7140903
  57.4509764  74.7976159  10.7843876  57.4735809  75.1615952  11.6693878
  58.1498409  74.1435860  10.7764721  52.0048523  30.5836606  55.3454638
  52.3530436  30.5950642  56.2370157  51.9616079  31.5060639  55.0934076
  96.7840911  77.5620769  18.0098820  96.7054511  76.7656969  17.4846840
  95.8848573  77.8760122  18.1050110  45.8718688  54.1286048   7.7266026
  45.4248501  54.8354450   7.2609997  45.2666599  53.3886916   7.6767731
  52.7455033  73.2412957  33.8177967  51.8126727  73.0279683  33.7943172
  53.1696344  72.5109445  33.3673191  34.9229380  78.8321708   6.7840862
  35.1273052  79.7262190   7.0582104  34.1055424  78.6238645   7.2365284
 111.8800637  50.8603954  46.4132977 111.6108995  50.0027132  46.0844183
 111.3218702  51.4820099  45.9461308  79.4179719 101.0434180  28.5755134
  78.5077291 100.7602426  28.6621284  79.7062161 100.6715253  27.7419424
  24.3976855  33.3074641  80.1844692  24.0587330  33.6639380  79.3633318
  25.3141427  33.1043339  79.9971914  22.2674608  13.1818175  86.2427998
  22.6985097  12.4609423  85.7837105  22.8384137  13.3662832  86.9886017
  28.9929771  85.8521110  78.2488155  29.5774316  86.5760499  78.0239630
  29.2204284  85.1592284  77.6288033  78.5595699  97.2350323  85.7069874
  77.6661863  97.4374759  85.4292870  78.5369261  97.3111194  86.6608906
  12.5577104  58.0428743  88.5900402  12.4281323  58.8127422  89.1438866
  13.5003638  57.8799582  88.6231041  84.1067942 103.0607767  53.8975286
  84.4773396 102.5656247  54.6281147  83.5363819 103.7082356  54.3118477
  91.4156660  96.3419503  90.9059429  92.3601814  96.2169212  90.9980869
  91.1371502  95.6390112  90.3189754  39.3485689   8.5248893  62.9042959
  39.9241424   9.2896158  62.9160643  38.5890126   8.7887877  63.4235907
  14.6317481  92.2406417  68.7072182  14.7319459  92.5025373  67.7920151
  15.0072860  91.3610905  68.7471437  96.2917694  38.0421400  71.3016415
  96.2822244  38.9862752  71.4589596  97.0661709  37.7292323  71.7692137
 108.4764167 100.0098550  43.4855032 108.0056902  99.9458974  44.3165016
 108.4605499 100.9429061  43.2724428  13.2417154 104.7171930  88.7947083
  12.4062299 104.7445858  89.2610264  13.1459283 105.3617733  88.0935860
  67.0690370  65.1112066  29.5495510  67.7498937  64.8771678  28.9187717
  67.5471640  65.4800676  30.2922249  97.5489517  78.0081612  74.9731159
  97.4708243  78.3710009  75.8554268  98.4916779  77.9184633  74.8336411
  52.3417366  37.1237074   8.2065296  51.8220771  36.4082168   8.5729408
  52.2681893  37.0121537   7.2587013  45.7329321  26.9738483  57.7291393
  45.5681181  27.5545764  56.9862890  46.6861200  26.8932390  57.7632618
  30.8495307  33.6001420  72.2253847  29.9310184  33.4163141  72.4222946
  30.8556843  34.5149827  71.9438553  89.7027970  63.1586097  23.5699463
  90.4085446  62.7873181  24.0993690  88.9066697  62.9726516  24.0677738
 108.2148553  65.6065737   3.9147091 107.8963423  66.4503752   3.5941219
 107.4531937  65.2069329   4.3346977  72.7146531  20.2996348   0.1221657
  73.0492616  21.1816739  -0.0399208  73.4145165  19.8635338   0.6082153
  95.7285500  50.2068585  12.0822239  95.9814168  49.6819048  12.8416348
  96.5585805  50.5034004  11.7089367  67.3788429  60.1023476   1.3029194
  67.6289655  60.2459984   2.2156239  66.4262629  60.1961474   1.2980175
  92.3276027 102.5536155  46.1935234  91.4499112 102.8841459  46.3849354
  92.4528690 101.8342298  46.8124151  17.3381674  20.8208418  66.9331217
  16.9126904  21.5472174  66.4775085  16.9368410  20.8152008  67.8021049
 100.9913345  97.6071006  75.6531000 101.5555402  97.4442184  76.4089918
 100.7124754  98.5171985  75.7540560  42.8068733  28.0560184  73.5476732
  42.7851963  27.3665428  72.8840590  43.2759714  28.7773728  73.1283569
  15.0364351  95.8460951  84.6320248  14.8039960  96.3350004  85.4214478
  14.7857475  96.4229858  83.9105129  25.1611185  22.2735953  58.8382196
  24.2492032  22.5450826  58.9427996  25.2598453  22.1228957  57.8981256
  23.7531376  26.5258908  44.7745037  24.3983054  26.5184784  45.4815626
  23.0567050  27.1008372  45.0917530  65.1520824  45.7502460  86.0590363
  64.2132568  45.8702326  85.9160614  65.4030275  46.4791489  86.6264534
  40.7552528  35.0048947  66.3054943  41.6391134  35.2696061  66.0506439
  40.7082510  34.0763950  66.0776567  89.7896863  84.6792887  28.2749653
  88.9758921  84.4383548  27.8323364  89.7828866  84.1676472  29.0839195
  67.0443607  95.9099935  18.4822941  66.1395479  95.8362363  18.1788063
  67.5372363  95.3204607  17.9115486   1.6540503 104.4934522  79.8687077
   2.3428773 103.8311231  79.8132992   1.7654537 104.8829037  80.7359695
   7.0677475  49.9212863  33.2265759   6.7619709  50.6509492  33.7654018
   6.6585449  50.0656514  32.3733807  73.3243179   9.5928067  67.1891117
  73.3802700  10.5469751  67.1374941  72.4437380   9.3871897  66.8752050
   4.8156631   9.8379159  81.8129921   5.5638415   9.8926759  82.4075127
   4.0810683   9.5905399  82.3746014  37.4414778  23.1740403  77.6221609
  37.9511142  23.4692502  78.3767176  36.7247009  22.6654840  78.0014086
   2.5920427  17.5961614  88.1328773   3.3126965  17.9527903  87.6135445
   2.5102130  16.6892087  87.8379726  42.9219532   8.0214852  63.8118219
  42.4083900   7.9157573  63.0110073  43.0049467   8.9689481  63.9197922
  75.1371670  17.4982965  68.2826710  74.8664904  17.5267673  69.2003632
  74.6291876  18.1916964  67.8615046  68.7486124  45.0337362  78.3408880
  68.9712238  44.1853857  77.9575109  68.4717226  44.8278379  79.2337322
  52.1088648  10.1196218  85.5627346  51.4860773   9.6545416  85.0041008
  51.9480705   9.7734952  86.4405537  22.4320698   8.8958025  53.2392454
  22.1622801   8.2566226  52.5797796  21.7063928   9.5186657  53.2800674
  80.7718325  96.1538719   4.9424648  81.1055995  95.4488443   4.3877029
  79.8229409  96.0280632   4.9447250  41.8508530  27.6566958  87.3339272
  42.6113844  28.1722021  87.0654678  42.1756077  26.7575192  87.3813057
  44.2173576   1.7948450  77.3437881  44.2803431   2.1322569  76.4502478
  43.2790470   1.6722488  77.4879360  83.4087445   2.3687403   9.2872238
  83.9060529   3.1368392   9.5681858  82.5011469   2.6708167   9.2518806
  45.9503460  13.9885938  65.3287601  45.4362965  13.6351037  64.6027946
  46.8601704  13.8274562  65.0787878  58.7684965   6.0379416  75.8209372
  58.2894087   5.4489976  76.4039040  58.4045029   5.8640707  74.9528885
   8.9341072  99.6036886  22.8836823   8.1620697  99.3095182  23.3670616
   8.6237816  99.7223686  21.9859886  29.2794919  19.2273581  56.7295980
  28.8226604  19.7602296  56.0787630  29.4899178  19.8391449  57.4350548
  43.5432767  76.9491964  73.7078667  43.3258771  77.1804887  74.6109009
  42.9202222  77.4453026  73.1769180   9.9953467  15.8178580  90.5943680
  10.5617750  15.9159005  89.8290157   9.7439826  16.7128372  90.8225346
  43.2362885  70.4310034  23.3653831  42.8191847  69.6597575  23.7493515
  42.7340002  70.6034289  22.5690079  21.3578939  90.2480501  72.2750330
  22.2517013  89.9970680  72.5081730  20.8609771  89.4310266  72.3171902
  61.9918872  42.0934163  21.7942619  62.0551849  41.8111096  22.7066898
  61.1340929  41.7814575  21.5059853  54.3868971  21.2032294  69.3653965
  53.6982012  21.8672037  69.3326473  55.2019787  21.7045379  69.3891287
 109.4427253  64.2677628  10.7314491 109.0253306  64.1616939  11.5862942
 110.2722312  63.7965797  10.8098125  54.3765283  59.8708503   0.3892326
  54.1426838  60.7578324   0.6627464  53.8427211  59.3009322   0.9428310
  80.4991532  61.1537706   6.4396572  81.3551951  61.3749080   6.8064308
  80.4543401  61.6480510   5.6211758   2.8568315  93.9653414  87.4813843
   2.0521878  93.8603359  87.9890823   2.9430103  94.9111515  87.3620224
   1.4984822  87.4114138  68.6356449   1.4184355  88.3316689  68.8865519
   0.9280967  86.9458920  69.2473459  47.6051283   3.5432640  74.5873880
  48.4418583   3.7427220  75.0073099  47.8444529   3.2129964  73.7214327
  36.7720747  25.6333017  55.7823515  37.4270320  25.0842333  55.3513193
  36.8362617  25.4003286  56.7085457  80.2938461  18.2002211  32.8564882
  80.2508354  17.2530019  32.7254939  79.7422886  18.5631454  32.1634483
   6.4349365 101.3879034  75.2061272   7.2310018 101.3589984  75.7368612
   5.9281778 102.1119994  75.5737019   1.0952567  96.7959290  87.0424271
   0.5349945  97.5659501  87.1394157   1.1353945  96.6463792  86.0978413
  68.9594173  12.1347189  44.8628998  69.2247820  12.4600089  45.7231331
  69.7759962  11.8513346  44.4516516  85.7471085  11.6207409  59.0443230
  85.7563114  12.2224462  59.7886992  85.2280903  12.0716023  58.3783054
  19.9095345   2.5343338  71.3822603  19.1738665   2.0321329  71.7327118
  20.6809282   2.0087114  71.5941572  49.8425579   3.8906896  82.8025532
  48.9305449   4.1493154  82.6700020  50.1764631   4.5129111  83.4487534
  57.6901937  50.0463696  24.1788864  57.4337865  49.9397974  23.2628441
  56.9012511  50.3721491  24.6120930  93.7231875  57.3575194  35.1408482
  94.3459416  57.9575984  34.7305775  93.8225747  56.5394332  34.6539211
  31.4196658  48.4346342  83.7395859  31.5642452  49.1055250  83.0723286
  31.6828060  47.6166725  83.3177757  32.2684360   0.4696071  72.0562410
  32.2339129  -0.4803214  71.9436550  32.0506930   0.8211806  71.1929846
  40.7869434   1.6078967  81.1746788  39.9833798   1.7241189  80.6677246
  40.5387974   1.0155103  81.8844223 108.0721093  23.2514785   7.4979019
 108.8050462  23.8142775   7.7474880 107.3414708  23.5572742   8.0353832
 107.3407813  94.1046875  90.6987095 107.5255271  93.2311994  91.0438442
 106.6075917  93.9744454  90.0972939  39.5622856  72.2543048  14.2056656
  39.1604256  73.0468510  14.5614910  40.2313048  72.0161139  14.8474693
  53.7681484   0.6745072  62.6665592  54.4328165   0.1954670  63.1615067
  52.9402018   0.4338286  63.0822611  16.8701076  76.2922173  70.4604530
  17.7969836  76.4614182  70.6292868  16.8695926  75.6065875  69.7925138
   1.3455581  77.2570139  81.7399883   0.8499932  76.4456063  81.8507576
   0.8171558  77.7799755  81.1370564  17.7566862  30.0853944  86.3862991
  17.2195911  30.5296731  87.0423317  18.4762561  29.7005010  86.8866062
  39.2344570  16.2460196  76.6941357  39.6178150  16.2777603  75.8176327
  39.8624229  16.7108119  77.2471857  35.9644698 101.6374939  71.2674952
  35.3527402 101.3781774  70.5784607  36.1301612 100.8314636  71.7564678
 105.2798939  54.7830300  10.2055264 104.4999934  54.3527641  10.5560398
 105.5646849  54.2158957   9.4889450  47.3166180  13.3300006  85.7295990
  47.6343203  12.8411531  84.9704361  47.6509094  12.8447723  86.4839363
  11.5172887   0.5400464  78.4723139  11.5709519   1.0743046  77.6799011
  11.3291776  -0.3427502  78.1536961  42.1475554  35.5811572  89.6908760
  42.3720980  34.9448347  90.3697777  41.8074703  35.0518107  88.9695168
  18.7862109  91.0039907  77.9680824  18.4515523  91.3833779  78.7806702
  18.0143689  90.9169966  77.4086857  70.3400446  25.4424904   4.2118931
  71.2421513  25.1291941   4.2773342  69.8946787  24.7812198   3.6821747
  20.8895493  21.1448264  78.3258820  20.4319167  21.9106698  77.9790592
  20.2227116  20.4586029  78.3515072  77.6589823  73.7756179   9.3082237
  77.4976063  73.0013822   8.7690163  76.8102957  74.2157720   9.3553925
   6.8568045  37.6551747  57.8597784   6.0008454  37.3923969  58.1981802
   6.8032908  37.4897790  56.9184971  38.0422664  22.6556468  66.4011145
  37.6948071  21.7917871  66.1791849  37.2713184  23.2218266  66.4373159
  63.2410217  74.3783473  24.3305206  62.3922182  74.0555595  24.6331310
  63.0870176  75.3003119  24.1243744  59.8914934  84.1830157   3.5418415
  60.1748968  84.6095251   2.7331352  58.9677120  83.9801024   3.3945847
  21.6340470  40.0145006  75.2628994  20.7226872  40.2642632  75.1103449
  21.9099331  39.6030140  74.4438744   0.0200912  19.7624254  88.2036877
   0.3332265  19.2139673  88.9229774   0.8152681  20.1355529  87.8232956
  99.0704414  66.6351205  63.0326700  99.7655126  66.6589576  63.6903477
  99.1063949  65.7466680  62.6782799  48.9876938   2.8575432  63.5843754
  48.1439686   2.5889462  63.2207632  49.1654301   3.7050289  63.1764412
  63.9621496  11.8832970  83.5019970  63.2144403  11.9216716  82.9055977
  63.6929035  12.4056375  84.2575741 108.2571837 101.9753346  65.9943581
 108.7710997 101.6453963  66.7314243 107.3473474 101.8880650  66.2786293
 108.7554122   7.2225659   8.8325024 108.7842967   7.7443831   9.6344471
 107.9219438   6.7543976   8.8812733  52.3264503  62.6146936  81.5774250
  52.1484232  63.1308651  82.3636246  53.1921864  62.2361088  81.7304134
  39.0211535  31.0781980  86.6738701  39.5764065  30.3349662  86.4382267
  39.4325304  31.8294740  86.2465668  58.1767559  35.9413743  62.6448965
  58.4349871  36.4598870  63.4069300  57.5090599  35.3419328  62.9781866
  75.3814030   5.5721909  78.2103968  74.7306442   5.5663878  78.9123344
  75.6434631   4.6560943  78.1191683  60.8719063  36.4146161  77.1547270
  61.0270405  37.3402858  76.9668436  60.6878233  36.0243726  76.3002920
  13.3244884  18.2684410  81.6305161  13.5734832  17.4618220  82.0817375
  12.3718405  18.2156110  81.5536880  14.8688129  52.1011650   0.0951576
  14.0424541  52.5366812  -0.1138878  15.3003220  52.6904578   0.7138348
  47.6814699  10.2900529  52.1739912  47.9405403  10.2849448  53.0954504
  48.1585026  11.0284042  51.7951632  92.0698882 103.7860607   9.4311523
  92.2037984 104.5996021   9.9174118  91.1806775 103.5145544   9.6588039
  60.0023890  15.5202973  86.6083145  59.7136259  14.7117257  86.1851597
  59.5997858  15.4933667  87.4763107 102.2583314  98.6284983  59.7190046
 101.3754865  98.4786546  60.0571823 102.6936813  97.7800464  59.8016548
  46.4280224  49.6684361  88.7208652  45.5752754  49.6420336  88.2868671
  46.9731140  49.0659857  88.2147408  93.6893655  64.7674214   4.3011665
  94.2878009  64.4815599   4.9913788  93.1590510  63.9941834   4.1085625
  55.7823086  39.6110320  89.9386311  54.9121904  39.6833467  90.3309345
  55.6145334  39.3849301  89.0237808  80.4302406  20.0998235  66.1045313
  80.8457470  19.2576659  66.2898970  80.1249981  20.0224900  65.2006102
 102.3278952 101.4983200  17.0113850 101.7075110 101.6538595  17.7235317
 102.1704961 102.2143530  16.3959503  36.9609523  17.1721733  53.0791330
  36.5384722  17.8916192  52.6099396  36.3235712  16.9132507  53.7446642
  41.7647982  48.2405996  71.4367247  42.4689579  47.9631948  70.8506823
  41.2502098  48.8583040  70.9172297  62.3833824  92.2387289  19.2293453
  61.6145039  92.5405811  18.7456703  62.5246454  91.3438653  18.9203262
  59.2959309   6.2976074  65.7887459  59.3559694   6.8521839  65.0108814
  58.7441874   5.5638617  65.5177689  48.5730648  21.7969108  82.2753525
  49.3784142  22.0234752  81.8102551  47.9375315  21.6202188  81.5817356
  95.2392674  45.9435736  14.9036789  95.3551579  45.4038821  14.1216755
  94.3692113  45.7113390  15.2281857  22.4996495  24.6013546  58.9432859
  23.0618000  25.1861072  59.4515038  22.3262239  23.8656259  59.5305395
  86.5446139  72.6490973   0.5200291  85.8161736  73.1366752   0.1354885
  86.6728736  71.9057666  -0.0692463  37.8109002  23.3406949  61.3527060
  37.6455021  23.9409232  62.0797586  38.7086797  23.0387998  61.4908504
  43.3916950  40.1781225  73.7277794  44.2242146  40.5096149  73.3912468
  43.3885193  40.4315519  74.6508121  79.3232822  25.9134793  68.6678934
  79.4750214  25.1472640  69.2211723  80.0095463  25.8678818  68.0021667
  56.2344170  25.0914335  76.4594746  56.4660072  25.7760143  75.8318233
  56.2696362  25.5259323  77.3116493  85.4809476  47.7202617   9.8527241
  86.1236335  47.0151864   9.7749329  85.3311492  47.8049840  10.7943344
  87.3997975  58.9859526  37.7166939  87.8660823  58.8234018  38.5366821
  87.9533005  59.6090011  37.2458649  29.9003363  32.1526933  81.7628860
  29.2899704  32.0318627  81.0355091  29.3438697  32.1743846  82.5414181
  76.7749882  82.0728253   2.6168537  77.7167512  82.0582985   2.7874565
  76.3737036  81.9616102   3.4787273  46.9853735   9.4620776  72.6436234
  47.3267174   9.0375209  71.8565607  47.0412922  10.3986323  72.4539661
  47.7294588  33.7061763  77.0700121  48.0416250  33.1559014  76.3516951
  47.1781445  34.3637323  76.6458607  34.3197107  47.4782944  74.6958113
  34.5204282  46.8388081  75.3791904  33.6695743  48.0575466  75.0933313
  77.1286392  29.5645118  72.1103382  77.6896763  30.3399038  72.0949221
  77.4570990  29.0170026  71.3971949  36.2650681  40.5876827  43.7980032
  36.2120414  40.9947443  44.6627140  35.4442835  40.1029873  43.7107086
  38.7745857  38.6389256  77.9649162  38.2487845  39.3060040  78.4062481
  38.3984923  37.8075385  78.2540178  11.3731813 104.7701050  81.0821915
  10.6079005 104.6915549  80.5126286  11.5774726 105.7052507  81.0812569
  76.2923384  26.0649490  81.7170143  75.9567261  25.2288175  82.0402527
  76.8280649  25.8310819  80.9590340  53.1139135  38.5865641  55.6256294
  53.9202452  38.3746791  55.1553440  52.4128342  38.3035707  55.0385761
  66.3357330  65.1252376  18.7227249  65.6569076  64.4505190  18.7092400
  67.1549941  64.6430133  18.6109066  50.5946636  14.8608637  89.2367744
  50.4563093  14.7824705  88.2928753  51.4601803  14.4796705  89.3844509
  27.4478865  29.8481965  46.0016870  27.2404766  30.7767272  46.1067724
  26.8377995  29.5408964  45.3311682  36.8556190  17.0268595  88.9976883
  36.5039372  16.3970912  89.6269321  37.7089167  16.6692221  88.7523174
  45.2978758  11.2600558  49.7295666  44.8902850  10.4629605  49.3908310
  46.2340026  11.0611813  49.7479439  90.7121850  76.5621089  31.6954041
  91.0460521  77.4540948  31.7909241  90.9874869  76.1162590  32.4964333
  51.7260599  26.2097049  64.1850185  52.1574545  27.0639300  64.2056990
  51.3586426  26.1482215  63.3032846  14.2576174  11.6188805   5.7501793
  13.4601693  11.7026847   5.2274036  14.9316935  12.0570843   5.2307224
  44.7296619  45.6203079  88.2498932  44.0460205  46.2447357  88.4927082
  45.2874756  46.1015177  87.6387405  42.6319361  49.8947859  79.5096636
  43.2557487  49.1730881  79.4306421  42.8585386  50.3176260  80.3379726
 101.9840336  20.2045774  80.9478760 101.3938904  19.4739509  81.1326408
 102.6262951  19.8448646  80.3360367  42.7333307   6.7480075  66.4602518
  42.7279139   7.1272433  65.5814028  41.8527317   6.9124424  66.7974997
  64.4253851  92.3969601  16.0960484  64.3971062  93.3454965  16.2213898
  64.8220325  92.2811793  15.2326202  13.2719755   3.2566881  41.3817072
  13.5346782   3.7680715  40.6163931  13.2011890   2.3589861  41.0571289
  58.7506485  18.4165895  67.6304007  59.2082500  18.9901698  67.0157146
  59.1030407  18.6547172  68.4879208  28.8522935  18.6213791  65.3481674
  28.6407733  19.5548272  65.3353214  29.4525456  18.5016596  64.6122360
  70.4814672  17.8351128  61.4427423  70.4520130  16.8808913  61.3732815
  69.6707106  18.0674481  61.8954277  46.6944218   8.7044668  78.8915586
  46.7829609   8.1107473  79.6371412  46.8146229   9.5775574  79.2650509
  18.9214234   3.0751746  16.1298370  19.6006779   3.7365573  15.9978580
  18.5635428   3.2689707  16.9962025  97.3366400  96.3651609  62.6218414
  97.1028706  95.5353254  63.0377245  97.2498819  96.1957419  61.6837549
  55.8653688  36.5984964  88.4687328  55.5333471  35.7007408  88.4630775
  56.1151934  36.7557359  89.3792820   6.6153239 104.0625475  30.0975275
   6.9712447 103.7112733  29.2813420   5.6740522 103.8990469  30.0383186
  19.7512043  29.5334077  88.4417057  19.6931159  30.4560733  88.6897850
  19.8918200  29.0715528  89.2682362  44.2282772  22.7407551  84.5021629
  43.7080908  23.5441566  84.4886398  44.6578503  22.7191305  83.6470413
  99.1374732  77.9101204   0.6941986  99.6596909  77.2248505   1.1112404
  99.7821809  78.5406827   0.3732967  83.0164052  91.8822216  13.4695911
  83.4842730  92.7034854  13.3184147  83.4264327  91.2590574  12.8697777
  50.4363489  36.3052177  71.6285229  50.0031090  36.5231442  72.4537754
  50.6678247  35.3805947  71.7164040  62.8604198  54.8826425  23.2671261
  62.4156786  55.7251512  23.1743050  63.7850071  55.0824593  23.1206894
  32.9215693  37.8003454  50.1640272  33.7124443  37.8482461  49.6269464
  33.0272675  36.9978476  50.6749630  25.4803566  67.0890342   7.5237179
  26.2778477  66.7864035   7.0893860  25.1301292  67.7617715   6.9397640
  91.6295434  91.4845060  22.9105568  91.0395861  91.5043305  23.6640739
  91.4189673  90.6650113  22.4629879  48.7657309  31.4751911  51.8610811
  49.3962526  31.9184089  51.2934303  48.2218313  32.1805716  52.2115707
   0.7135581  88.9900762  74.2196846   1.1997699  88.1721312  74.3235731
   0.9783863  89.5230132  74.9694014  81.0647687  99.5361489  63.0173445
  81.4330652  99.9126625  62.2180796  81.4682289  98.6705702  63.0823421
  64.4759083  25.7035804  57.2956038  64.5048046  26.5623808  56.8738747
  64.9203300  25.8330989  58.1334257  36.7305183  29.1224909  50.8038855
  37.2785020  28.9801788  50.0320721  37.3372769  29.4382167  51.4735079
   7.4625449  11.9893210  29.5082951   7.0237879  11.8968098  30.3539658
   7.2425036  12.8751366  29.2199421 102.6033974  32.5028776   6.5393639
 102.9833985  31.6253446   6.5813637 103.0755044  32.9344951   5.8272839
  86.4119911   2.4879359  88.1214237  86.6135120   2.8068504  87.2416973
  87.0465755   1.7876533  88.2735348  10.2285123  78.7514496  68.6702204
  10.4229617  79.5466709  69.1662455  10.0652039  79.0591908  67.7786684
  17.0773053  15.7499385  90.2963066  16.7926729  15.2611637  89.5240879
  16.3217306  15.7310379  90.8836555  55.8531332  25.9696555  79.0462351
  54.8969173  25.9801173  79.0041161  56.1078787  26.8854094  78.9334106
  47.9714966  35.1973653  69.8294592  48.7864447  35.1150942  70.3247643
  48.1499195  35.8842349  69.1871119   8.0195105  32.7717900  52.7439499
   7.3649108  33.1920815  52.1862030   7.5328749  32.0974922  53.2180214
   3.2492255  83.7817245  64.9522066   4.1798543  83.9723474  65.0697947
   2.8578424  84.6266204  64.7303963  98.7664366  84.8627471   1.8478107
  97.8500224  84.5863913   1.8541336  98.8753987  85.3118228   1.0095406
  89.2844487  97.1722196  16.7418098  90.0098277  96.9076179  17.3075295
  88.7803174  96.3696788  16.6075897  75.7808161   8.3989984  35.5647635
  76.3965511   8.7247670  34.9082708  75.3233576   7.6803404  35.1283097
  78.4121180  71.0773812  20.3743553  78.4866191  71.4289592  19.4871902
  77.5049592  71.2512301  20.6254959  61.5407944  17.7259743  83.4713078
  60.7168865  17.7838206  83.9551067  61.3540220  17.1233881  82.7514172
   2.5228790  64.0101515  17.9738903   2.9301361  64.1146074  17.1139717
   1.9133667  64.7451411  18.0411148  45.8830500  43.4978676  73.2576847
  45.7488012  44.1773224  73.9183998  45.0232983  43.3846807  72.8524065
  90.8565903  23.4671879  87.2969627  90.4870319  23.0476379  88.0739021
  90.9570503  22.7551627  86.6651726  48.6355352  26.3598943  58.7794828
  49.3283749  26.2612820  58.1264257  48.5335207  27.3063850  58.8793898
  20.2655363   4.9827632  53.5281992  21.1859417   4.9329871  53.7862873
  19.8375404   4.2910975  54.0328264  57.2176075   4.1152388  76.7904043
  57.4157095   3.1811833  76.8576813  56.3374949   4.2004246  77.1569777
  80.5085278  67.0224415  54.6647263  81.3617898  67.2710096  55.0202274
  80.4803324  67.4329542  53.8004780  35.4890084  22.8136396  63.8374758
  34.7869849  23.3246827  64.2402554  36.2271333  23.4207606  63.7844896
  53.6134338  34.8320532  88.2722282  53.1383133  35.6366372  88.4799099
  53.3335590  34.6111321  87.3839188  52.2503901   0.1829334  49.9071598
  52.5936413  -0.5405334  49.3827438  51.4630651   0.4641487  49.4410419
   2.6258234  79.7913884   8.1449604   2.7508692  80.6149863   7.6734924
   3.3106092  79.7919129   8.8137627  77.9712486  16.5252590  82.9310226
  78.6910439  16.5466475  82.3004150  77.2187138  16.8655491  82.4471569
  28.2107115  15.0161767  67.9699945  27.5646853  14.3691885  67.6866436
  29.0460515  14.5498025  67.9394579  67.6970196  29.4388223  71.4689541
  68.4625864  29.9839592  71.6505194  66.9806671  30.0629807  71.3527727
  30.4316048  84.7535275  31.1394024  29.9439052  85.3635572  31.6928005
  31.3505939  84.9288510  31.3417530   6.4844421  58.2835446   6.1443520
   7.4202637  58.0911438   6.2031555   6.1222938  57.5581388   5.6355667
  39.3227220  36.5418696  71.4851189  40.0464535  36.0349345  71.8531704
  39.5696998  37.4546337  71.6337538  70.8797289  68.3520459   7.4959564
  71.3668514  68.6168121   6.7156696  71.5380622  67.9545282   8.0658722
  53.1343746  20.8737612  72.3671484  52.8461790  19.9849224  72.5748491
  52.7138233  21.0725665  71.5305853  97.7735425  70.0475560   1.0663509
  97.5517178  70.8793758   0.6478977  98.2586051  70.2969955   1.8529415
  66.6197872  22.7383137  30.1781130  67.5586319  22.5885510  30.0668740
  66.4563084  22.5568652  31.1036325  86.7820884  81.9229721  16.4597511
  87.0506335  81.0286211  16.2493992  87.4983025  82.2691558  16.9921303
  72.8262377  16.1945117  72.0405197  73.0237675  15.2579510  72.0488167
  72.7251863  16.4261687  72.9637527 102.6679421  88.5466622  14.6468925
 103.3881999  89.1070198  14.9357891 101.8849755  88.9514946  15.0201416
  79.4432449  18.9934397  63.7642002  79.4870472  18.0646384  63.5369587
  78.6264372  19.0815723  64.2554140  10.6507973  85.3691147   0.3343391
  11.4517692  84.8610448   0.4629517  10.9577946  86.2489294   0.1154614
  47.3639870  21.0586762  71.0355043  46.8681145  20.7911015  70.2617168
  47.0321941  21.9323969  71.2422848   0.5411343  84.7543524   4.3988037
   0.1965431  83.8851045   4.1941261   0.0321010  85.3494905   3.8484192
  37.6803184  39.0901756  62.4076843  36.8279791  38.6771011  62.5459480
  38.2341075  38.3881474  62.0660591  35.7950115  46.0017872  58.9542055
  35.5535722  46.8037939  58.4908152  36.3689137  46.2971115  59.6610641
  46.7175293  39.2706656  76.7940474  46.8420935  40.1484680  76.4332438
  47.5991440  38.8997173  76.8313456  57.3726130  28.4478378  61.2383413
  58.1567430  28.1608224  61.7063046  56.9311047  29.0372968  61.8497658
  46.3069057  17.3218977  84.4245052  46.0744905  16.7855895  85.1825142
  45.4803658  17.4494708  83.9588928 109.1266366  75.7166964  42.9148865
 108.2559463  75.4202753  43.1799603 109.1717979  76.6248685  43.2139063
  45.2570129  74.5944046  11.2886143  45.6289304  74.0882610  10.5663013
  44.7641636  73.9536618  11.8012333  43.9643812   9.7931254  43.2212925
  44.3163061  10.6832528  43.2286406  44.7335339   9.2307144  43.3125544
   4.8418288   0.9600537   1.0505104   4.9175553   0.0223153   0.8740234
   4.3103604   1.2973302   0.3293896 105.2581836  82.3668145   6.7423058
 105.0226403  83.0472587   6.1116314 105.5068780  82.8476475   7.5317287
  98.6438274  23.0869389  67.0316887  99.5883274  23.1118083  66.8782902
  98.5552883  22.7656913  67.9290152  53.9589548  16.4809573  78.7671375
  53.6255836  17.1564853  78.1765795  54.3211985  16.9676077  79.5075321
  28.0712604  92.1463912  79.3503761  28.0892753  92.8681642  78.7219238
  27.5365781  92.4724215  80.0742912  24.1622734   7.9006207  77.2458839
  24.0017653   6.9809538  77.0345020  23.6715174   8.3876985  76.5839577
  20.8227897  22.3505712  75.1756096  20.1082492  22.0833898  74.5974445
  21.5742302  21.8358207  74.8813343  50.1405525  21.9006896  76.2149000
  50.9308386  21.8450475  76.7521000  50.4247284  22.3449564  75.4160881
  67.5415039  31.1864853  62.1261072  67.2959900  30.5282950  62.7762938
  67.4194574  30.7483339  61.2838745  81.1757279  47.0858549  19.4309235
  80.5806494  47.0512109  18.6819839  80.9166957  47.8752302  19.9063396
  91.4730597  84.2073630  10.5638123  90.8839226  83.5718320  10.1573086
  92.2693063  83.7102126  10.7510567  64.9645472  20.5107880  82.1623898
  64.6019840  19.6968579  82.5121021  65.3227139  20.2662754  81.3090611
  43.3871508  34.1120815  61.0989428  42.7322769  33.5583973  61.5241575
  42.9740572  34.9739170  61.0457897  27.0335102  36.4584565  91.0469437
  26.1183047  36.1817861  91.0013008  27.4959755  35.6988859  91.4010715
  86.0915375   5.5515242  66.6158342  86.5072727   4.7081017  66.4368534
  85.1528072   5.3663844  66.5887213  76.0170174  30.4137373  80.6811047
  76.5749979  30.8211350  80.0185966  76.5231562  29.6630621  80.9918213
   1.9213294 104.1768017  85.7416916   1.0969519 104.6424772  85.6010532
   2.2988724 104.5877233  86.5194035   7.6370382  84.3238812  66.9758368
   8.5561513  84.5899945  66.9504070   7.2067022  84.9988347  67.5006962
  29.0112901  15.4997456  64.4256973  29.5319033  15.1336396  63.7107420
  29.4499016  16.3218522  64.6447706 109.6160079  71.4934038  38.2682705
 109.1043521  72.3014735  38.3065605 109.2474700  71.0114156  37.5279331
  34.6931577  46.9049120  64.6983862  33.8516331  46.6041994  64.3553972
  34.5607591  46.9582605  65.6448841  29.3117189  49.8335743  75.5351114
  29.1607928  50.7381439  75.8093500  28.5501695  49.3541574  75.8613539
  93.9435101  34.9742328   8.4050655  94.0500355  34.8292433   9.3452072
  94.7744513  35.3590892   8.1264019  56.0454273  41.8575668  66.6898060
  56.5865898  41.8303823  67.4788809  55.3037119  41.2859821  66.8882513
  73.1089163  53.5698891  89.1076279  72.5143719  53.3712292  89.8310089
  73.2319832  54.5180988  89.1522503  84.3236542  69.4231557   7.8418732
  83.8559676  69.0659391   7.0869541  83.6365319  69.7928797   8.3963013
 108.5095073  51.3134793  11.3839245 108.1681586  50.5991057  10.8459854
 108.7833977  51.9788741  10.7526779  56.8614197  21.9104409  89.1814423
  57.2717094  21.3883400  88.4920216  56.8008852  22.7910161  88.8110924
  96.9174386 103.9561866   9.5801926  97.8706361 104.0433954   9.5742512
  96.5981436 104.7943758   9.2459393 110.4784632  74.4759201   1.5934753
 109.7879840  73.8401030   1.7811203 110.8653451  74.1738294   0.7717133
  45.1537418  14.7644675  74.0728235  44.5492172  15.0910091  73.4063768
  44.9610329  15.2901447  74.8492002  36.6154861 104.0262240  30.4947066
  36.7499923 104.3949693  29.6216846  37.0949029 104.6133988  31.0791850
  35.5224609  33.0207324  82.2022343  35.2804136  33.9004683  82.4915600
  34.6934915  32.6160979  81.9466686  22.2959375   5.8025765  84.7710419
  22.7430677   6.1431110  83.9962196  21.6159463   5.2267146  84.4214249
  88.9498997  39.6815491  80.6207180  89.8884773  39.4943357  80.6046963
  88.5918903  39.1735864  79.8926878  29.8025918  32.2266078  62.8362703
  29.2066240  31.5392756  63.1339788  29.4566035  33.0292153  63.2265854
  25.6926493   0.6626027  41.8102646  25.1280551   0.0467913  42.2774220
  25.7492404   0.3094571  40.9223938  26.8468690  32.3554087  50.8806801
  27.4546576  31.9480014  51.4978075  26.6698837  31.6731286  50.2330685
  82.5808716  17.8152418  83.6010361  82.9613876  18.4857106  83.0336666
  82.8231621  18.0853462  84.4867992   8.1531203  47.8979301  53.2646465
   7.2867548  48.1356382  52.9342890   8.0042648  47.6643038  54.1808844
  11.0756015 101.0477230  43.6325932  10.3602790 101.3091129  44.2124414
  11.7705201 101.6820436  43.8085461  20.8961463  37.6435232  71.0708380
  20.2464294  36.9802761  70.8380222  21.1033726  38.0768251  70.2428675
  83.6588764  34.6052957  81.0340595  83.2855606  34.6424294  80.1534462
  84.1487408  35.4230142  81.1212158  66.7446661   5.3104770  90.4550838
  66.8035126   4.3839568  90.6881714  66.0005331   5.3596997  89.8550224
  80.4224873  17.5240886  74.0976191  79.6516037  17.3141563  73.5704613
  80.3561783  18.4660351  74.2543697   8.8648609  66.6840600   9.2910290
   9.2918018  66.8547116   8.4514809   8.1425575  66.0936330   9.0767765
  52.1532106   8.4681559  75.0375605  51.3862276   9.0293688  75.1516151
  51.9706059   7.9722929  74.2394304  38.8911342  91.9830173  73.0884552
  39.7692394  91.6540354  72.8962851  38.4135293  91.8863541  72.2645760
  49.2292118  31.8384957  68.5924196  48.9409971  31.6500640  69.4855356
  48.7893438  32.6581311  68.3667040  24.4295215  96.7225235  67.1636200
  25.1246309  97.3294437  67.4179840  23.6973047  97.2871488  66.9160509
   2.1444801  62.8544234  22.2582912   1.7761854  63.6913346  22.5414276
   3.0870155  63.0129443  22.2060299  82.3985053  85.8873128  10.0127983
  82.3055173  85.1265501  10.5862331  81.9037057  85.6565236   9.2265797
   6.3133053  71.9940590  19.9001122   6.9624523  72.5019406  19.4133854
   6.8291477  71.4731966  20.5156136  76.7028236  22.7068019  87.2904778
  76.5361977  21.7674398  87.2125816  76.9001961  22.9898882  86.3976479
  60.6292486   4.7420338  39.8758030  60.4167843   4.5035753  40.7781506
  59.8001766   4.6591702  39.4046235  55.1017952   3.0172342  51.4624405
  55.2735662   2.0844537  51.5914631  55.8954239   3.4522709  51.7740917
  51.3704634  41.3518667  67.8846312  51.6483021  41.0313940  68.7427330
  51.3252640  40.5667830  67.3388910  30.6252384  13.8920176  38.9316916
  29.9648643  13.3231091  38.5361147  30.1198268  14.5454848  39.4151878
  38.8911414  12.7568138  71.6402149  39.3293333  11.9477522  71.9041061
  38.9036584  12.7348542  70.6833458  54.4275808  31.7430472  62.8931665
  54.0156841  31.6068077  63.7464046  53.6969423  31.7643046  62.2751522
  80.3898907  16.3036728  76.7049980  80.6071949  16.5653622  75.8102751
  81.1263084  16.6151750  77.2311926  34.8260880  17.3512363  81.3637638
  35.4476047  16.6425002  81.5300274  35.3263354  18.1512260  81.5250111
   7.4248413  65.2446996  25.0381947   7.7234272  64.7758149  24.2589378
   7.7194408  64.7036778  25.7708168  79.5597935  59.6873777  15.7865238
  80.2914954  59.8366808  15.1877403  78.8811875  59.2897152  15.2410126
  85.3634835  73.7959741  23.6799240  86.1070348  74.2762779  24.0441513
  85.6092025  72.8746580  23.7637901  49.9007225  38.1715107  57.8108978
  49.6927977  38.8553882  58.4475327  50.5801725  38.5574818  57.2580814
  42.4300098  44.2000914  88.6533546  43.3389711  44.4107914  88.4397411
  41.9683027  44.2555809  87.8167152  47.1698380  19.0603697  42.3152781
  46.7838478  18.9981055  43.1889868  47.7801752  19.7953308  42.3748922
   9.2938899 104.8760851  83.8680935   8.7058496 105.5072425  84.2829132
  10.1695918 105.2357685  84.0095234   4.7357184  18.6846006  85.9471226
   4.4142073  18.6731160  85.0456047   5.6399065  18.3771133  85.8828735
  27.4631524  57.8957510  73.7570572  27.7168989  56.9907093  73.5761213
  28.2912135  58.3748388  73.7890339   4.5662264  74.9325536   0.8675957
   3.9707140  74.1896294   0.7693005   5.1335625  74.8882197   0.0979233
  62.8056955  28.4023285  67.6255941  62.5876999  29.2218971  68.0694580
  63.6305523  28.5855699  67.1758509  90.0235701  70.1032959  19.1857529
  89.8932887  70.0304757  18.2402611  89.8682595  71.0279523  19.3784142
  85.3183842  39.4904137  84.7855949  84.6253014  38.9435744  84.4156933
  85.9026527  39.6677756  84.0484333  35.2470164   7.2249453  -0.0098991
  35.8062892   6.4993374  -0.2872753  34.4465260   6.8040602   0.3036404
  33.3087230  27.3880124  70.3549910  32.8170991  27.2519565  69.5450354
  33.1875324  28.3160496  70.5557156  91.5764046 101.5874742  36.1194706
  91.2686206 101.2584470  35.2749348  92.0016337 100.8342479  36.5294170
  16.1597455  24.2544723  70.8256721  15.6788647  23.5123229  70.4593420
  17.0744681  23.9725161  70.8219671  79.1660500  87.0158027  13.1021023
  79.7341967  87.7314638  12.8170109  78.3255482  87.4356412  13.2851791
  78.4531403  56.4512862   7.7724457  77.8946210  56.6444089   7.0194626
  78.3708335  55.5055936   7.8954220  65.3398609  35.7753348  81.3443947
  64.5380497  35.9397554  81.8406773  65.0348234  35.4505825  80.4972076
  40.5093048  85.8878540   3.8925743  39.6202638  86.1677407   4.1105270
  40.5602879  84.9854039   4.2075634  27.7448487   5.2599353  49.5135641
  28.6181641   4.8682028  49.5233631  27.1532536   4.5225480  49.3635368
  22.2010469 105.0976114  73.8533306  22.5716113 105.3744915  73.0153275
  21.8204402 104.2377324  73.6745024  35.8415799   9.9763672  20.2803326
  35.3777842   9.5217698  20.9835148  36.1129956  10.8072465  20.6704617
  78.8019753  99.2133449  10.2836037  79.7059394  99.3375181  10.5728531
  78.8006926  98.3528064   9.8644447  85.4825783  38.2120800  89.5652199
  85.1200771  39.0072823  89.9557018  85.4176998  37.5542474  90.2575207
  68.4508324  28.1279492  83.7420368  68.8171434  28.4276342  84.5740509
  69.0067148  27.3916340  83.4869671  25.1467061  63.9070559  57.8083754
  24.6055341  64.2247438  58.5311747  24.8359871  64.3934488  57.0447636
  94.0864993  75.3508257   4.7662163  93.4718896  75.2106045   4.0459156
  94.9428893  75.1383995   4.3951225  25.7203101  99.0131020  64.3822241
  26.3673019  98.3532625  64.6317101  25.2496957  98.6209953  63.6466932
  18.7857202  15.9393036  61.7555523  18.5299924  15.0197828  61.6826344
  17.9819825  16.4265287  61.5743065  99.5919514 102.1688388   1.5573120
  99.1821910 101.3038133   1.5497303  99.1338349 102.6568817   0.8730793
  95.2832031  19.6869302  51.2503719  95.6380081  19.2240012  52.0093489
  95.9838581  20.2821064  50.9837818  50.8224154  44.2335892  67.7564383
  50.1867104  44.2753983  67.0420456  51.1739016  43.3443403  67.7125359
  37.6289201  23.1959581  83.5675240  38.3967590  23.6406922  83.2085419
  37.9501891  22.3307943  83.8215065  29.8860288   7.0326602  65.9029245
  28.9488935   6.8498474  65.8351946  29.9701452   7.9508173  65.6457424
  74.6451617  92.3898219  14.6133709  74.4809843  93.2308982  14.1869164
  74.7690011  91.7748402  13.8903999  80.5094147  13.3518481  64.7430992
  80.4115391  14.2908454  64.9010134  81.2944603  13.1071281  65.2330446
  79.7147275  80.4779671  22.5123501  79.6390534  80.1506089  21.6160584
  80.6472922  80.4059003  22.7157211  86.4206362  99.2356800  10.7025051
  87.3728705  99.1817306  10.7835484  86.2759209  99.6619485   9.8577690
  71.0060692  45.8802700  79.9012470  71.5734816  45.1380491  79.6929598
  70.2604437  45.7854652  79.3085575  98.1920100  93.0768751  18.0588818
  97.5975991  93.3634065  18.7522888  98.7694550  93.8263248  17.9135704
  47.0557547  30.0231123  87.5473118  47.3566628  30.1337337  88.4492302
  46.7362499  30.8889866  87.2935200  90.1128007 101.3818096  20.4808521
  89.6471978 100.6419443  20.0909328  89.5401574 102.1332048  20.3268623
  60.2308702  14.5878589  36.0925126  59.9539137  14.7191119  35.1857066
  60.2228689  13.6379659  36.2102890  53.6560583  47.9444695  79.1407442
  54.2142725  47.8246498  78.3724499  53.1994772  47.1087885  79.2377377
  47.0048285  55.6998396  87.8443146  47.3675394  55.0986242  87.1937656
  47.7446985  55.9116316  88.4135056 102.2297478  80.5599760   8.1831646
 101.9448424  80.8637594   7.3213196 102.4321366  81.3619422   8.6649513
  89.9870968  37.6240897  66.5944719  89.8801517  38.5503173  66.8110323
  90.9004784  37.4323249  66.8070841 100.0255490  96.9455026  24.3142033
  99.7092629  96.0569833  24.1507149 100.9260751  96.8273662  24.6164131
  75.4570007  54.0734863  72.6258802  75.6016493  54.4600487  73.4895182
  76.2782764  54.2209721  72.1568537  57.1781683  39.4834208  70.8457279
  57.4068117  38.9902043  70.0578880  57.6293421  40.3213596  70.7430840
 107.2656537  78.5476421  16.7092419 107.8388453  77.9917739  17.2371483
 106.3852311  78.3627175  17.0361805  53.7054591  11.7681115   9.5135975
  54.2470793  11.0066550   9.3060589  54.3340544  12.4654429   9.7002125
  35.6391215  25.2179861  76.6598415  36.0451317  24.3553948  76.7454338
  36.3763976  25.8220577  76.5717936  94.6311665  85.8121108  14.0077591
  94.1681720  86.5481852  13.6076736  94.0604687  85.0588916  13.8554573
  86.7546416  77.6525496  17.3957062  87.0170594  78.3994912  16.8577003
  86.3326932  77.0515846  16.7816734  48.9269686   6.2331319  71.0214901
  49.1651821   5.5395651  70.4063082  48.5721064   6.9306600  70.4703474
  74.4753695  18.0899775  87.6042080  73.7437963  17.6518047  87.1694183
  75.1403666  17.4081504  87.6997185  44.2894411  30.0033975  72.4575090
  44.7481632  30.3270555  73.2327843  44.9871063  29.7929382  71.8368578
   8.9860348   3.9124243   1.8622208   9.0824132   3.2176345   1.2109089
   8.0476813   4.1010468   1.8741512  50.5359316  22.0231891  62.3328114
  50.9759378  22.7608585  61.9103575  49.7385597  21.8939209  61.8192720
  67.5620890  83.5712026   7.5112343  67.3893333  84.1570519   6.7742348
  68.4848452  83.7155818   7.7207756  66.2198448  20.9670353  42.7675772
  65.8655596  21.2593913  43.6073589  67.1142530  20.6911445  42.9679537
  41.6441393   2.7883026  76.1399078  42.2847986   3.4968889  76.0791540
  41.0711193   2.9180539  75.3842306  46.0998869  28.2159734  79.0993977
  46.5785646  29.0439010  79.1398668  46.0198259  28.0310965  78.1636381
  82.3163701  84.9982165   6.7002583  82.3635865  84.2536663   6.1005497
  81.4309693  84.9587535   7.0618343  59.3954182  31.5678668  88.9173031
  59.5442820  30.9108138  89.5972729  60.1188135  31.4446378  88.3026886
  23.7096599 104.1728328  35.0071049  23.6297325 105.1090835  34.8246765
  24.4031147 104.1152404  35.6644058  32.7175331  10.4352701  86.4311504
  33.5357094  10.8996332  86.6077518  32.7155519   9.7082579  87.0537949
  93.8728476  98.7004398  18.4114742  94.0333081  98.5502361  17.4798584
  93.5216094  99.5898651  18.4536743  64.9954557  71.2314081  80.0588703
  65.6207085  70.5475092  80.2988148  65.1872396  71.9523764  80.6585884
  55.7243109  47.8731823  77.3728704  56.1907721  48.3415604  76.6805792
  56.3513231  47.8259897  78.0945778  72.4347974  78.7638448   6.6755199
  73.2324839  79.2928361   6.6659069  71.9933344  78.9812468   5.8544922
  59.0505195  93.2649587   6.5117264  59.3761564  93.2885049   7.4115276
  59.8400236  93.2818817   5.9707737  80.6379414  72.0057631  77.0619726
  81.2151337  71.3262892  77.4103928  81.2314129  72.6460791  76.6695261
  11.3978485  78.0287980  26.5963078  10.7202438  78.5877346  26.9766617
  12.1483425  78.1300639  27.1817398  59.5494556  29.2612576  65.0553370
  60.1216841  30.0205731  65.1658964  59.9603271  28.7513328  64.3572044
  27.6128340  43.7305355  80.3651810  28.3343244  43.5329580  79.7679806
  27.2726870  42.8733778  80.6217194  90.5761910  83.6094617  15.6401730
  89.9536753  83.4800314  16.3556862  90.8716107  84.5143937  15.7404804
 107.0045853  66.4352798  78.8758421 106.2124825  65.8978891  78.8721180
 107.5211143  66.0954857  79.6065760 103.7105109   7.4857848   9.3218327
 103.6228944   6.6493266   9.7788811 103.3045055   8.1233161   9.9091625
  93.1114007  81.5615104  18.7799549  93.1239796  81.0304187  19.5762062
  92.7810431  82.4133371  19.0654087  48.5238577  71.2517367   2.3365974
  48.4221268  70.4979311   2.9176807  49.1332937  71.8286012   2.7970791
  47.9598522  22.4949193  77.8773499  47.5769043  22.9610300  77.1341610
  48.8726187  22.3529625  77.6264715 104.4945241  54.8301192   2.0114708
 104.7182418  53.9012570   1.9531727 103.7397862  54.9315563   1.4315414
  70.2958965  18.7669206  73.2670879  71.1877060  18.9814937  72.9934692
  70.4001713  18.0253923  73.8633204  51.6627121  36.2763572  68.4403229
  50.8109331  36.6288590  68.6980963  52.0945597  36.0643506  69.2678452
  17.8404044 103.6813423  82.1866894  17.3246097 104.4660020  82.0009613
  18.5662221 103.9940999  82.7266884  49.4566154   9.1039079  74.7558641
  48.7018490   9.6049583  75.0649071  49.5245790   8.3711702  75.3679991
  71.0491753  32.3332524  70.8992195  70.8380365  31.5876222  71.4610767
  71.2573195  31.9423413  70.0506306  19.7622924   7.0201867  25.7254219
  20.1729636   6.6357939  24.9509430  19.3165688   7.8012078  25.3974533
 101.9113637  87.9704593   2.7324581 102.0553971  88.8156890   2.3069286
 101.9443274  88.1651329   3.6690712  51.9057083  49.0905476  74.0515661
  52.8021574  48.8817978  73.7888145  51.4705038  48.2403517  74.1147518
  62.3911810  34.9455333  68.0424023  63.1450891  34.6871710  67.5122118
  62.2018719  35.8429074  67.7683306  81.9691563  51.1052513  87.4723148
  81.3671303  51.2333918  86.7392635  82.7865505  51.5120506  87.1848869
  33.7187409  46.8008804  85.9570122  34.2816114  46.4949512  86.6682243
  32.8575611  46.9059753  86.3614273  88.6676121  53.0339461   8.6542606
  87.8144551  53.2265133   8.2653236  89.2840529  53.1018818   7.9251385
  86.0132218  80.0228141  31.5170383  85.1937962  80.3583907  31.8805695
  86.5011121  80.8061813  31.2629986  35.2915382  26.4108992  67.4448442
  35.5636048  26.5620184  66.5396500  35.6401396  27.1600986  67.9279709
  54.9785757  31.2429547  80.5319405  55.2967358  31.9368744  81.1094189
  54.2623854  31.6479945  80.0428104  25.1672792  51.5542173  90.1023197
  24.4439054  51.6482067  89.4825363  25.5493474  50.7009554  89.8968983
  69.9586057 103.8081710  54.9426603  70.0305509 102.8572684  54.8599577
  70.5316591 104.1522197  54.2574739  34.1931129  37.2907567  67.2385311
  35.0514555  37.4627447  66.8513632  33.5866380  37.8212118  66.7217731
  64.1950417 101.2293552  -0.1114750  64.5950080 100.3773283   0.0626183
  64.1866899 101.6683076   0.7391071  86.6408920  35.1360917  61.2890959
  86.8907261  35.9952569  61.6291666  87.2351933  34.5244098  61.7237043
  55.9280252  33.6781883  57.8806686  56.1553383  33.3307600  58.7431431
  55.0918913  33.2635117  57.6681757  15.3739886   4.9090474   7.9879665
  14.8531394   4.2697232   8.4739780  14.7765832   5.2472632   7.3209190
  39.5380855  40.4523706  80.3834724  39.2824936  39.9629378  81.1653614
  40.2823734  39.9658966  80.0290489  26.1778264   3.6269276   8.8674641
  26.9161133   3.0260174   8.7671185  25.6499390   3.2429688   9.5675659
  48.7540393  15.2328961  23.9037132  48.8935904  14.3012993  23.7337494
  49.6047549  15.6374257  23.7337685 101.3313271  16.2457936   8.5239792
 101.7109157  16.4605420   9.3760586 101.3961722  15.2925389   8.4662819
  30.9874105  26.0395527  78.9671993  31.1433959  26.9404054  79.2506838
  30.8256364  25.5578113  79.7783613  34.2013125  15.5889170   3.1350422
  33.3105807  15.6228726   3.4838676  34.0874247  15.6105082   2.1848869
  75.6178284  27.8081608  74.7468376  75.6274986  26.9567251  74.3095779
  75.8097410  28.4369135  74.0510845 101.8873645  99.2817377  19.1007805
 101.3211108  98.7357734  18.5553360 101.2821389  99.8237537  19.6068954
  75.1949883  44.1487217  87.9830837  75.2311468  44.6862078  88.7742996
  74.6048069  44.6234560  87.3978043 104.4525100  81.6174744  37.0947170
 104.2117835  82.2732614  37.7491093 103.7297345  81.6286896  36.4672565
  66.9677258  72.0726727  16.9028950  66.8474723  71.9385670  15.9628010
  67.8082109  72.5250660  16.9747162  40.6277514  53.5193872  84.0049839
  39.9033165  54.1151381  84.1960335  40.5387545  52.8190422  84.6513748
  32.9367737  98.4185575  11.5747166  32.1516708  98.3409761  11.0326481
  33.1515125  97.5173973  11.8156052  95.3749180  57.1843386  86.4576244
  96.1967945  57.2867918  86.9374561  95.4408455  56.3201141  86.0514259
  43.2898808  45.4885530  79.2773438  42.3877907  45.2817535  79.0330124
  43.2738209  45.5379581  80.2331352  50.4891348  23.7994576  53.3877134
  51.2700987  23.7767720  53.9407206  50.6837273  23.1926656  52.6734495
   2.2356275  39.0246844  79.7859526   2.1305230  38.5568833  80.6144142
   1.7852929  39.8581815  79.9227285  95.2455139  12.0371485  52.9570532
  95.0796890  11.4221096  53.6715174  96.1756706  11.9287872  52.7587795
  66.5308714  13.3221245  78.5507727  66.2475681  12.9369903  77.7215290
  65.8763885  13.9949560  78.7383461  38.9884019  37.2629833  87.8550339
  39.3930268  36.5908241  87.3066616  39.7160983  37.6365447  88.3521652
 101.1536742 104.5512937  21.3858509 101.6579057 105.1283811  20.8123112
 100.7048941 105.1446985  21.9881058  16.5841197 103.1876431  55.7586288
  15.7108545 103.5320566  55.5714989  16.4645051 102.6404398  56.5348339
  14.3164162 104.5862411   1.3904953  14.0678505 103.6929582   1.6281796
  13.9182190 105.1337503   2.0671749  90.0396347  40.9020233  61.5364361
  90.5678272  40.7221603  62.3141861  89.9194145  41.8516254  61.5429163
  52.2015190  22.2573161  78.0765915  52.5735426  22.8325152  77.4080276
  52.9319859  22.0724201  78.6669016  10.8128552   8.2700293  18.2902431
  11.4219813   8.9554446  18.0156422  10.1544623   8.7294715  18.8114643
  49.6121883  46.8042374  67.7214193  48.8030338  46.3174677  67.8781080
  50.2905846  46.1309290  67.6698446  81.0107470  93.4996341   3.3724976
  81.2275744  92.7866911   3.9732647  80.0899745  93.3566259   3.1534958
  59.9888563  35.6518507  74.7339344  59.0788651  35.6552291  75.0308084
  59.9632692  35.2040386  73.8883352  95.0905228   4.5524275  59.5408630
  94.3942451   3.9365101  59.3126488  95.6928349   4.5191342  58.7976646
  99.8083735  81.9286393   0.2536392 100.2720690  82.4543928   0.9054089
 100.0747967  81.0280965   0.4387760  41.0934687  38.1082439  90.0220871
  41.4168406  38.4956503  89.2087173  41.4022684  37.2026181  89.9953842
  57.7989460 105.3518556   0.5452251  58.2897568 106.1468624   0.3371334
  58.2550979 104.6574472   0.0698757  85.2753448  12.4205422  75.8377695
  84.7135067  12.9284751  76.4230633  86.1437988  12.4694216  76.2373018
  72.4569082  43.4137154  86.2112713  71.6872740  43.8349724  85.8285904
  72.1142960  42.9208803  86.9569016  99.6714974 105.0864290   2.6729584
  99.4860554 104.1568397   2.8060341 100.5302621 105.2191995   3.0743599
   4.9895286 104.6862612  56.3689137   5.8659648 104.3759730  56.5965462
   5.0034904 104.7647864  55.4150391  51.6425180  27.7193832  66.6723156
  51.3373852  28.5871530  66.9370890  50.8993435  27.3359752  66.2065697
 105.1683236  89.9444674   5.2357674 104.8511029  90.8329962   5.0741577
 105.4714156  89.9597691   6.1435890  55.9390260  77.0503329   8.4191895
  56.6145743  77.1296810   7.7457142  55.1846445  77.5156067   8.0577183
  34.1390681  10.4186714  75.7544279  34.1485023   9.4633830  75.8141613
  34.9516010  10.6932616  76.1794233  56.9900084  25.8490133  70.7327414
  56.1372089  25.4323602  70.8566952  57.5188732  25.5349708  71.4661694
  59.4363308  29.5875287  68.3896589  59.6231604  28.9854646  67.6693487
  59.9125290  30.3865147  68.1636286  47.1808577  82.4771500  55.2844906
  48.0167150  82.0334625  55.1405382  46.8636847  82.6817513  54.4048500
  44.6541548  43.2616901  78.0306387  44.1118479  43.9518833  78.4124327
  45.3998518  43.7258673  77.6502323  25.4866910  42.7913284  76.9837952
  24.9873686  42.4042892  77.7028990  25.9186649  43.5512209  77.3739195
 110.6955338  83.5939239   7.2941494 111.4831115  84.0087556   6.9422054
 110.9149123  83.3974646   8.2049179  66.5298605  33.3450556  82.7356243
  66.8392420  32.7836084  82.0247841  66.2867832  34.1646409  82.3050117
  88.5525084   8.3091277  81.1667252  88.5296870   9.2275447  80.8979893
  87.6507998   8.0060119  81.0605049  75.4181004  78.0008078  75.0819540
  74.8654699  77.2391558  75.2572203  74.8630238  78.7523985  75.2898693
  69.4121313  75.7216644  69.8382950  68.6564493  75.8950520  69.2769480
  69.5412493  76.5360498  70.3244400  62.3612833  70.4413033  80.0588417
  63.3016729  70.6198311  80.0538254  62.2875881  69.5367908  79.7544384
  66.9529295  66.4994478  86.5548515  67.2129822  67.1881819  87.1666145
  66.1099625  66.1902380  86.8865585  60.6364059  95.3444576  73.5529900
  61.3908815  94.9973106  73.0770874  60.3883839  96.1312771  73.0675697
  72.7478600  78.1104279  78.4070492  72.9489279  77.5457859  79.1533613
  71.8273735  78.3448792  78.5252333  66.0848379  59.5251369  82.7369499
  66.9588423  59.4390535  82.3562431  65.7653713  60.3681040  82.4151134
   5.2104905  30.9667349  85.1180458   4.7949937  31.8072224  85.3108597
   5.4732946  31.0344601  84.2001247   1.1586431  73.6283255  81.0731983
   0.4735234  73.0625963  80.7171345   1.7419580  73.7933826  80.3324413
  41.7514949  49.5110695  28.2418442  40.9060673  49.0801709  28.1161022
  42.1055274  49.6065133  27.3576546  74.8224115  63.7462997  87.3334217
  75.1883888  63.9027262  88.2039452  74.1836691  63.0455494  87.4645138
  84.5372295  67.0456171  59.5019627  85.2796173  66.4762878  59.7043228
  84.9342632  67.8359127  59.1358662  42.9888301  23.1489365   8.5823441
  43.5304598  23.5980933   9.2312908  43.3771662  22.2771876   8.5083103
  58.3338833  52.6804399  87.9852390  58.6193180  53.0315256  88.8287449
  59.0626192  52.8613186  87.3915577  94.1738988  96.0424446  41.1266041
  94.9610329  95.8047794  40.6365395  94.5018674  96.5123819  41.8933105
  84.6341754  65.9743308   2.4539661  83.8856984  65.9064506   3.0467606
  85.3957797  66.0086034   3.0327606 108.0858517  60.8978796  90.9278202
 108.1211758  60.0357819  91.3422680 108.8774872  60.9382963  90.3912449
  81.1795425  31.9956303  84.1596317  81.6471481  31.9421172  83.3261395
  80.5659866  31.2612653  84.1376209  80.8001518  40.0366735  68.5272789
  79.8714066  39.8130441  68.4667635  80.8254147  40.8012581  69.1026068
  83.2776546  57.4263668  71.3775444  84.0742302  57.7418423  70.9507227
  83.2236671  57.9326153  72.1881199  98.3926296  18.4855485  87.3799706
  98.2510948  19.0752745  88.1205273  97.9402161  18.9063036  86.6488647
  57.5540881  20.4315274  10.1584339  56.6447310  20.1610987  10.0312233
  58.0709700  19.7022050   9.8161697  76.5232563  67.5860643  85.9443378
  77.4526644  67.6734114  86.1560059  76.1400986  68.4260654  86.1969757
  91.4823246  78.7690306  69.0650558  90.9675026  79.3451738  69.6300793
  92.3907948  79.0220547  69.2290545  22.8381829  28.1343167  11.7696571
  22.8535180  27.3968022  12.3796272  22.8604560  27.7287762  10.9029007
  80.9369469  82.6951981  75.7962036  80.9416199  81.9643497  76.4143229
  81.7332458  83.1859207  75.9995031  67.0069838  62.1496105  85.6116867
  67.9236937  62.0516872  85.8691502  67.0360518  62.2660875  84.6620464
  54.9611430  21.0169451   8.6866379  54.7418933  21.5883772   7.9506874
  54.2731623  20.3514283   8.6863709  79.0571690  19.1158390  78.6171913
  79.1660738  18.2153213  78.9228678  79.8690462  19.3095541  78.1486177
  75.1704650   9.8992102   9.9617291  75.0801711   8.9518540   9.8587990
  74.4196372  10.2636950   9.4930744  36.8151307  95.4769421  44.8643827
  36.0132194  95.2232170  45.3213167  36.5491056  95.5747986  43.9501143
  99.4633723 103.6738084  28.8310909  99.2767144 102.8219246  28.4365273
  98.7186766 103.8381647  29.4095802  56.8555832  52.6843834  82.4180889
  56.4729309  51.8215370  82.2589874  57.0362997  52.6966333  83.3579922
  38.6293173  96.3737965  83.6745739  38.3626533  95.6841469  84.2824459
  39.3647742  96.8052387  84.1095448 108.7126160  93.3296846   5.4473400
 108.0861808  93.6396335   6.1013603 108.4230424  92.4410795   5.2405643
  66.7399597  77.4143600  78.1235647  65.8469200  77.7196312  78.2833242
  66.9766283  77.7976894  77.2790098  52.2820854  66.4380503  87.6974201
  51.7652321  66.9421053  88.3259296  52.6944113  65.7518005  88.2220936
  73.6677456  59.7601128  85.7224751  73.7951756  60.5829716  85.2503586
  73.9592886  59.0848684  85.1098728  57.2503905   3.7847083  13.9411926
  56.3249068   3.6100810  14.1121006  57.4051528   4.6494334  14.3213654
  27.5800614   4.8387711  34.4040394  26.7574553   4.9789660  33.9351082
  28.1686072   4.4643395  33.7485695  87.3690128  26.5346241  73.6811066
  87.2331524  25.9672809  72.9222298  88.1060505  26.1394072  74.1467285
   8.1927494  97.8806280  15.0928593   8.6018185  97.5684761  14.2857265
   8.7015156  97.4716209  15.7929325  49.1700606  23.0408375   7.2957325
  48.3581786  23.4325211   7.6177120  49.7660117  23.7816804   7.1851730
  79.7649288  56.2256050  58.6952496  79.0939808  56.0033607  59.3407488
  79.2901373  56.2821150  57.8660250  66.5452909  67.2047901  58.8725948
  66.2057734  67.9816008  59.3170357  65.8277655  66.9197750  58.3067751
  90.4415512  69.6508789  68.2411671  90.6210518  70.3685093  67.6337004
  90.9194565  69.8852921  69.0367079  93.0383110  56.1072540  72.6073313
  93.6693096  55.7145834  72.0041132  93.4531021  56.9219542  72.8909588
  65.8452034  54.1147470  88.2532597  65.6410789  53.4231377  87.6237774
  65.2984047  54.8527765  87.9839039   3.5180905  54.0428257  78.9507246
   2.8222993  53.9354324  78.3021975   3.6671975  54.9876118  78.9878035
  66.1354780  69.2558813  82.3101997  66.7679358  69.7685909  81.8068504
  66.6661739  68.7846613  82.9524994  58.4805965  50.1466036  78.6069441
  58.8327599  50.4469633  77.7690935  58.2380486  49.2338037  78.4513998
   8.6467937 105.4383300   9.7355080   8.7996582 104.6835350  10.3039742
   7.8324894 105.8221458  10.0608063  90.6387330  92.7952217  -0.0549030
  89.7745324  92.7570509  -0.4646969  90.6517840  92.0505642   0.5463886
  55.4908232   7.0370619   9.2084885  55.2796797   7.9691737   9.2615795
  54.8204951   6.6089337   9.7410393  92.9653740  47.0605469  77.6846695
  92.4000454  46.9565344  78.4500551  92.3685837  47.0126295  76.9378233
  87.5251484  90.2383423  63.9356375  86.6855335  89.9781990  64.3145895
  87.7647591  91.0352898  64.4086075  89.1192245  47.4498224  85.6231499
  89.5867348  47.5181198  86.4556217  89.3299007  46.5733051  85.3013515
  81.1468410  77.9754162  71.0130024  80.7453918  77.7404881  71.8495893
  81.8015862  77.2937584  70.8617306  26.4601469  54.2107058  76.1388159
  25.7094145  53.8407803  76.6033506  26.3644195  53.8959551  75.2399302
  82.6163197  73.8433647  76.2781668  83.5418415  73.8238096  76.0347223
  82.1922493  74.3264008  75.5688906 107.2030258  74.2692137  90.2236938
 106.2835789  74.4595242  90.4098034 107.1786022  73.6953115  89.4580078
  93.7785721  65.5392885  72.8876638  93.4874725  65.4348373  73.7935257
  92.9939651  65.8160782  72.4143600  80.5343246  63.3789778  64.7938204
  80.4202938  63.8354063  65.6274319  80.2037334  63.9924908  64.1376638
  31.5402321   9.9442809  16.0223293  30.8560710   9.3012564  16.2085342
  32.2103457   9.7799628  16.6857910  96.0714531  83.8752174  61.9561338
  95.6530571  84.5856476  62.4424028  96.9674206  84.1793346  61.8112612
 101.6486312 102.8727745  10.8785534 102.6021386 102.8575777  10.9611797
 101.4012481 101.9524025  10.7894135  18.4131245  14.3479722   0.2963448
  17.6325230  13.8383763   0.5136299  18.7808280  13.9078372  -0.4700184
 102.8720618 104.6962665  12.5995445 102.3383857 104.3193792  11.8999958
 103.5530091 104.0429185  12.7597809  64.3425560  52.9010534  84.1465950
  64.3754387  53.8454437  83.9940071  64.0097189  52.8142118  85.0398540
 108.7508011  40.8160019  67.5677204 108.8449764  41.6513252  67.1099043
 109.4376373  40.8294296  68.2342863  85.1546955  78.6272955  65.7671881
  84.2489243  78.3288956  65.8494711  85.0904179  79.5817852  65.7348394
  86.6352463  55.8786249  71.2102222  87.2936630  55.3416061  71.6510487
  86.4434719  55.4056692  70.4004288  57.6753616  69.0552378  82.5990868
  57.0552731  68.5223389  82.1013546  58.5139036  68.9227057  82.1569252
  47.1244144  41.4657879  74.9956608  47.2195244  42.0929432  75.7125044
  46.6874695  41.9596004  74.3017864 105.7335091 104.5627998  20.4083252
 105.8555175 105.3682541  20.9109020 106.5525676 104.4559024  19.9246407
  67.9754591 104.6345806  81.9872379  67.3959494 105.1757622  81.4510250
  68.8519001 104.9785805  81.8147659  81.2496662  22.2808862  78.9990616
  80.8717537  21.6584873  78.3777428  80.4930496  22.7124524  79.3959427
  55.0711060  83.5063839  85.3709316  54.1347504  83.6623955  85.4939365
  55.1627159  82.5544548  85.4118538   8.5684494  91.7265676   4.8049545
   8.8961223  91.6311358   5.6992435   8.6276344  92.6652311   4.6270752
  17.4694018   3.7292140   6.6473866  16.7022566   4.0694039   7.1078110
  17.8658728   4.4997256   6.2407398  83.5510349  81.1962223  86.6157150
  83.3994675  80.3555298  86.1838627  82.6884842  81.6103172  86.6431904
  52.2024107  95.6832886  35.3086853  51.6332817  95.0529575  34.8670912
  52.9819536  95.1793957  35.5424333  73.0715752  76.6074371  75.8283234
  73.0391121  77.4033117  76.3591385  73.0708790  75.8938456  76.4663029
  16.9601063  15.4779379   2.3194408  17.3886113  15.0001519   1.6092682
  16.8584447  16.3679545   1.9821453  32.4059348  60.5537884   8.3715343
  32.7987961  60.6549351   9.2385197  32.2207789  59.6173756   8.3002472
  28.0612425  34.4342511  20.1395512  27.8794627  34.6717541  19.2302799
  29.0159993  34.4521897  20.2055073  72.7447367  69.7389889  79.4113922
  72.6343346  70.1040792  78.5334682  73.6765718  69.5273638  79.4673443
 108.6820793  64.2386055  86.6613579 108.9107227  64.3862724  85.7436752
 107.7565479  63.9952278  86.6414261  21.7962078  84.8449849   7.4401283
  22.5926498  84.4427155   7.7866554  21.1944584  84.8645400   8.1842709
  64.3380117  80.8375454  76.2964964  65.1704884  80.9086037  75.8294153
  64.0572453  79.9343252  76.1495256  14.7147183   8.5101836   0.2293587
  14.0847354   7.8059619   0.3824329  15.1312880   8.2824223  -0.6017971
  32.4118523  87.6583956  20.4103851  31.8504433  87.9633974  21.1231422
  32.1426968  86.7514180  20.2648449  88.7580109  91.8042469  66.2301922
  88.7941074  92.5720596  66.8006277  88.1099129  91.2314796  66.6402388
 108.7875991  15.7010691  13.1210804 109.7250895  15.7459681  13.3090591
 108.7397151  15.5398409  12.1787739  59.2425657  57.1751119  12.2686291
  59.1739393  56.5964933  13.0280495  58.9704252  58.0326234  12.5955009
  78.0424356  67.6696968  55.3522682  77.6051235  66.9285345  55.7713938
  78.9620018  67.4085617  55.3029585  48.9009432  33.3346741  20.3185272
  49.3013053  32.5241273  20.0039577  49.5966010  33.7698643  20.8113670
  16.2230305  92.5146292   7.4573231  16.4861778  91.9326137   8.1702328
  16.1630348  93.3791994   7.8637123  91.1978149  61.0551691  83.4887505
  91.9275284  61.2436008  82.8986263  91.3181973  60.1375437  83.7330914
   3.7051157 103.4448026  30.1503086   3.8100866 103.6568616  31.0778046
   3.6666874 102.4886821  30.1260853  92.4135399  49.3595171  69.0951967
  92.7514935  50.2316999  68.8919163  92.6739502  49.2074966  70.0036621
  82.5469494  62.3220682  55.4094505  82.0435524  63.1178808  55.2376842
  83.4369183  62.6328230  55.5756617  29.8715425   2.5219098  88.0631542
  30.1713586   2.6247850  87.1599674  29.1865277   1.8551737  88.0136585
  44.6218443  26.6727400  38.6343002  44.4051981  27.1195769  39.4526100
  43.7751865  26.4087772  38.2741237  73.2971668  68.9005852  66.3747263
  72.8569126  69.7505283  66.3781929  72.7579641  68.3492422  66.9417477
  79.2128515  96.9694138  57.0981836  78.5118628  96.4014435  57.4179554
  79.5254993  96.5391254  56.3023520  23.0218320  13.1664889  14.0427589
  22.7117543  12.9416506  14.9199867  22.4526124  13.8838141  13.7640572
  77.6000214  51.3378716  72.8730154  77.7639151  52.0878887  73.4447193
  76.6749334  51.1319590  73.0073404  36.1159806  29.4154732  42.9278088
  35.5542283  29.3400567  42.1564579  36.8848996  28.8858597  42.7168274
  71.7621994  73.0545044  37.5240254  71.6771460  72.6456070  38.3853054
  71.4170551  73.9392424  37.6437879  62.5988913  67.8584623  64.2084408
  62.5872612  67.0019627  64.6356487  61.8682003  68.3334827  64.6042633
  58.4056377  71.9343758  48.1760406  59.2861748  71.8505096  47.8101826
  58.4802914  71.5824127  49.0630436  62.2177553  85.3970909  90.8849907
  61.5421772  85.1168728  90.2674866  61.9050121  86.2388611  91.2164307
  57.9948477  13.0851452  12.7185535  57.2046809  12.7104943  13.1077957
  57.8833441  12.9539530  11.7769623  83.4083080  79.2394209  84.5830250
  82.6139164  79.2387724  84.0490055  84.1189575  79.3691778  83.9550400
  87.1792412  52.5032139  73.9903927  87.5977993  53.0439806  73.3206081
  86.9192505  51.7068768  73.5272694  35.0210719  22.2644227  18.0162525
  35.5075745  22.7116721  18.7087250  34.4181876  21.6854518  18.4826851
  56.5031052   2.9196894  88.6440945  57.2134876   2.3043603  88.8256454
  56.9406796   3.6913258  88.2844543  20.9066776  92.3060535   0.4169655
  20.6604198  92.8690456  -0.3169537  20.1244072  92.2745703   0.9676838
  87.4676514  59.9044800  81.9877148  87.4673271  60.1099062  81.0528183
  87.6390743  60.7426453  82.4170494   4.0411714  57.9107571  82.3186207
   4.3127587  57.2215557  82.9248142   4.6650556  57.8527832  81.5949917
  95.8292008  93.4400819  10.7246971  95.1176215  92.8584550  10.4571438
  95.5539609  93.7791704  11.5764618 102.3279143  57.0688726  10.4005241
 101.9332076  56.7360993   9.5944786 103.2122327  57.3303674  10.1439571
  68.6504225  14.3683140  16.9865417  69.2041354  13.6400359  16.7050457
  67.8018431  14.1955559  16.5787315  27.3723797   5.5127995   6.3817978
  26.8430524   6.1570685   5.9117317  26.9136052   4.6832411   6.2491417
  48.2865290  23.4890502  10.5109978  48.6990027  24.3139546  10.2548122
  47.5377707  23.4022992   9.9210358  89.7561073  34.2069221  77.9267216
  89.3879032  34.5904517  77.1307564  88.9952755  33.8932109  78.4155464
  57.9552221  71.8216085  65.6061172  58.2741880  71.9756222  64.7168636
  57.0821142  71.4481020  65.4860640  21.9186978   5.8897870  21.2338448
  22.1316104   5.5066435  22.0847797  22.1119885   5.1957791  20.6035805
  59.8502922  82.6693153  68.8287115  59.0832281  83.1290054  69.1700792
  60.5707502  83.2894707  68.9409161  27.3537783  32.9817860  13.7070751
  27.5002532  32.1021836  13.3591270  27.0291333  33.4840195  12.9596901
  77.7743196  39.3686438  88.0505657  77.9690027  38.5239744  88.4565926
  78.5013866  39.5169854  87.4459076  68.5597754  68.2849693  57.5741339
  67.8166628  67.8792238  58.0206633  68.4833384  67.9910183  56.6664028
  13.9352516 100.2742790  33.8814735  13.0600647 100.1043962  34.2299366
  14.0120129  99.6865677  33.1298542  18.7852101   1.6932671  12.1583176
  18.8458686   1.3092368  13.0330086  18.5383896   2.6049655  12.3136139
  87.8715993  94.7960399  16.7396545  88.3520461  94.4223903  17.4784374
  87.0897961  95.1831602  17.1335506  72.8556967  21.8147326  65.1893854
  72.9428196  22.7345443  64.9392080  72.8671694  21.8247104  66.1464643
  95.1856327  36.1805296  86.3560677  95.2461147  35.5510378  87.0746136
  94.8682499  35.6666183  85.6135082  35.7637791  18.1351273  13.0436707
  35.6452040  18.6526148  13.8401508  35.7174401  18.7749379  12.3332310
  72.9552198 103.3958553  21.2758064  73.0850864 102.5744556  21.7498016
  73.4826136 103.3006738  20.4826927 109.3249607  64.9815178  89.3577290
 108.9906693  64.8044729  88.4784508 108.5507965  64.9475288  89.9196339
  93.2440090  68.4176826  79.9391079  92.8608513  67.9410982  80.6755161
  92.8785133  69.2996407  80.0084019  23.4653000  13.7863772   1.9549561
  23.8488822  12.9407780   1.7224503  24.2129855  14.3814843   2.0101643
  86.9980717  25.2268052  83.9322948  87.3905182  24.8282886  84.7090816
  86.4547634  25.9361768  84.2755699  82.0879936  87.0483780  76.3134098
  81.2042332  86.9059944  76.6524124  82.4123192  87.8057289  76.8007231
  82.5421143  47.7841568  80.9114933  82.2772980  47.6798105  81.8253899
  83.4221935  48.1576586  80.9582996  99.5825768  85.1596355  66.6604376
  99.7170162  84.2723751  66.9934940  98.7929535  85.0966740  66.1230707
  47.9247431  66.2001221   6.3962269  48.1712012  67.0593445   6.7386150
  47.0217757  66.0758393   6.6884995  57.0230055  82.6729202  78.5264492
  56.9748402  82.7030945  77.5709343  56.7736244  83.5535240  78.8067627
  92.9807664   7.6418154   2.1046925  92.5903405   8.1813376   2.7922344
  92.3036171   7.0001738   1.8902206  76.2446785  43.6342812  80.6318855
  76.2677288  42.8341722  81.1567974  76.3251019  43.3300734  79.7278881
  47.9210380  95.1656459  14.7951031  48.0298141  96.0305952  15.1904106
  47.0229725  95.1648973  14.4638920  57.9424095  38.2844591  87.8166008
  57.2759867  37.7375150  88.2324886  57.4512815  39.0124822  87.4357986
  26.3036589  30.2413647  49.0282822  26.9436602  29.5729630  49.2729664
  26.5810733  30.5319302  48.1594563  68.3998966  98.7514305  55.1884556
  67.7778339  98.2232571  54.6881485  68.1409645  98.6257172  56.1013556
  90.3011131  40.5168152  67.4129677  90.2176762  40.7338238  68.3415031
  90.8658218  41.2025928  67.0565367  38.3570246   9.2459195   4.4898129
  37.5649314   9.7732298   4.5935726  38.8563256   9.6953385   3.8079453
  76.0029463  12.3490040   2.0789051  75.8492427  12.9341357   1.3371372
  76.7924361  12.6936381   2.4962425  75.3820090  22.5057213   1.4851475
  74.7020011  22.2485058   2.1077728  75.6215720  21.6916602   1.0422707
  95.9737015  62.3590326  75.7082510  96.3697529  63.1875849  75.4383087
  96.6992569  61.8559980  76.0780573  99.6506119  63.7355089  62.8443766
  99.4165421  63.4657383  63.7324429  99.4141293  62.9870558  62.2965336
 105.3666831  10.1187343  86.9197083 104.7498275  10.7605189  87.2716045
 105.0549126   9.2780799  87.2548866  81.0988860   4.8902695   8.2845211
  81.0339884   4.6707575   9.2139435  80.3334479   4.4756453   7.8864861
  66.2289715  61.4712334  24.9976993  66.7379904  62.2335482  25.2733850
  66.6957855  60.7237053  25.3712177  85.6946564  63.2932568  62.1706057
  84.9113274  63.4426498  62.7000380  85.5916786  63.8783836  61.4201021
  45.0616889  36.6375725  20.1734352  45.1307730  36.5909188  21.1269951
  45.9089713  36.3248627  19.8563290  42.1987967  25.2461188  14.9829197
  41.4863877  24.9681513  15.5586243  42.9864554  24.8742335  15.3798199
  53.1710911  82.5322151  88.6613369  53.0316830  82.0653057  87.8374481
  52.2919130  82.7784252  88.9488411  42.6389030  92.5585769  21.6827393
  42.6616005  93.4703420  21.3922310  42.5555233  92.0518302  20.8749771
  45.1665930   8.8946669  23.0490017  45.7804637   9.0598004  22.3333740
  44.7733645   8.0481808  22.8367233  85.3500366  93.4178162  72.3369312
  85.3251266  92.6409531  72.8955841  85.0262833  94.1247559  72.8951836
  41.1583857  46.8077748  21.6854000  41.6357331  46.0902875  22.1020317
  40.4639249  47.0261662  22.3069000  20.1807026  80.0223230  11.9095516
  19.6652893  80.5949997  12.4775505  19.7480873  79.1707467  11.9719601
  17.6274017  96.1759399  22.6767540  17.8481964  96.0405038  21.7552662
  16.6719822  96.1243557  22.7042007  65.2891779  90.0210381  58.6028671
  66.0580683  90.3838158  58.1630611  64.7808504  90.7876205  58.8677883
  83.7495327  37.2850108  83.9093876  82.8503513  37.0581579  84.1465473
  84.0709782  36.5209985  83.4306431  86.8332481  39.0854669  87.0056248
  86.3502216  39.0346527  87.8304577  86.1566067  39.2012858  86.3385677
  27.9863457   9.4455187   1.5887833  27.5962405   9.2960494   0.7275581
  28.8964848   9.6762745   1.4026833  73.0523066  36.2600415   9.9895287
  72.8456549  35.4205983   9.5785904  73.0698352  36.0696976  10.9274483
  75.9241152  52.9075527  89.1457653  75.6549835  51.9973469  89.2695904
  75.1740265  53.3233929  88.7207127  64.0142493  46.2080186   1.4359760
  64.9394946  46.4528554   1.4213753  63.8416247  45.8715623   0.5566406
  41.2718205  15.7055991   8.0986786  41.6753058  14.8585980   7.9088879
  40.9118323  15.9928172   7.2595406  83.3720545  34.7986310  12.6182556
  83.0581145  34.2597859  13.3444309  82.5758414  35.0841706  12.1702099
  97.0800591  81.4047241  37.7990437  96.7719555  80.9335136  38.5731721
  97.5193405  82.1796417  38.1494117  90.3435135  78.0927324  73.9452171
  89.7323799  78.8192701  74.0672112  89.9806213  77.3829556  74.4750834
  70.0374460  61.2065458  83.9255714  69.2534971  61.3096476  83.3861065
  70.7317972  60.9959459  83.3012676  97.9590563  18.3879941  22.7844048
  97.4651389  18.2436221  21.9773006  97.6470046  19.2329590  23.1082821
  54.4193797  34.2117684   8.6846256  55.0552039  34.8260110   9.0515995
  54.2400031  34.5486443   7.8068066  11.4221719  75.6121254  71.4804411
  11.9728997  75.1361799  72.1020555  11.1138967  76.3752985  71.9690752
  84.4642735  36.6504073  87.2600651  84.7740364  37.1875048  87.9893112
  85.2628326  36.3061738  86.8600178  96.4776611  96.2730122  76.2893438
  96.7983055  96.6752052  77.0965958  97.2439957  96.2415028  75.7166529
  88.9268017  64.3159246  50.7969618  89.2888927  64.6635818  51.6119814
  89.4237900  64.7558165  50.1072264  31.5799384  12.2732537   1.5466022
  31.5115122  11.7606537   2.3520851  31.3703732  11.6522544   0.8489800
  88.5326576  87.0363045  86.6550922  88.9623928  86.1820507  86.6975117
  87.7169037  86.8708515  86.1824417  85.8499813  64.1866636  80.4303455
  85.5540752  63.2786036  80.3663063  86.6890430  64.1981936  79.9698305
  87.8176117  92.3534679  74.6685219  87.0546150  92.3320389  75.2461052
  88.4695530  92.8612041  75.1516533  39.0086178  26.1565583   7.1244240
  39.5529275  25.5465691   7.6222897  38.2402234  25.6431573   6.8749809
  34.4380906  87.2821808  48.7909794  34.1745141  87.3966503  49.7040272
  34.7927240  88.1337643  48.5354996  92.1201897  58.4193659  57.3062754
  91.9061947  58.4553623  56.3739967  91.6256428  59.1416121  57.6935959
  54.2450671   9.8582213   3.9105797  55.0172000   9.5782321   3.4190083
  54.5975260  10.3667491   4.6409321  88.3605289  59.7407579  87.2543240
  88.6602211  60.5754995  87.6143456  87.8367519  59.9834681  86.4907932
  58.9331627  62.3808146  75.4017162  59.4559097  62.8264046  76.0683632
  59.4607401  62.4390936  74.6051645  20.9066109  97.2738575  20.4872894
  20.9723667  96.7741274  21.3010311  20.2146248  97.9137491  20.6544399
  39.6985202  44.2057984  37.8722191  40.0259213  43.4404938  38.3448219
  40.4836468  44.7112935  37.6617718   6.2069371  69.4577885  73.4918642
   6.6046098  70.3040743  73.2871962   5.6655744  69.2566681  72.7285147
  85.5591679  35.1684165  83.0630493  86.0382938  34.7243476  83.7626743
  84.7564983  34.6571088  82.9605103  98.9087963  88.2330799  66.1043644
  98.3034801  88.4044743  66.8257809  99.6412563  87.7701855  66.5111303
  39.6112256  37.8659909   8.2083893  39.4299702  37.7156632   9.1361713
  40.1240544  37.1043103   7.9380608  52.8704357  87.8019714  88.1513500
  52.6308012  87.7087116  87.2293282  52.8752899  86.9064331  88.4893131
  81.5461826  62.2541857  72.0521593  82.0687389  61.7895031  72.7057934
  82.1096134  62.9709196  71.7605066  61.3027430  90.1685238  87.0820999
  61.2009907  89.9256134  88.0023575  60.4096651  90.3261757  86.7758465
  47.5017456  95.7775091  18.7739468  47.9450992  96.4858411  18.3071136
  47.0137600  96.2178730  19.4697666  79.8993921  30.8202028  80.6238747
  80.1030064  30.5306244  81.5132141  79.1304064  31.3811874  80.7248116
  13.5129074  84.9647354   9.4008636  12.8453354  84.4739889   8.9215469
  13.0549053  85.3036951  10.1700115  23.0496410  15.9953708  63.9413548
  22.3038486  16.5848273  63.8291931  22.6563267  15.1295203  64.0501833
  64.6196699  67.9491425  39.7478151  65.1020432  67.1542835  39.9752951
  64.7616243  68.0544949  38.8070798  90.4190350  48.7910652  41.4824200
  90.4548740  49.2021513  42.3461056  89.5087814  48.8951063  41.2052250
 108.7840366  84.4640064  59.0061760 108.6494350  85.2632713  59.5153809
 108.1103611  84.4964409  58.3269596  96.9193077  74.3548203  73.6440039
  97.8378201  74.4131184  73.3810282  96.5407848  75.1932955  73.3796024
  93.2379818  58.2317162  75.8565760  94.1412163  58.3350563  76.1561155
  93.1397438  57.2905922  75.7121277   7.2246746  98.3988832  24.9695206
   6.6528229  98.1912969  24.2305183   6.7652706  98.0498193  25.7332897
  23.8557009   3.2620852   1.5072823  23.8333563   3.5219519   2.4282551
  23.1319194   3.7424462   1.1052513 107.8263187  89.3888664  60.4434681
 108.4591866  89.7966671  61.0345793 107.0561123  89.9553490  60.4894400
  88.6049461  61.2176991  75.5767441  88.9687824  61.5363455  74.7507191
  87.7985191  61.7201042  75.6928921  99.0837288  62.3080873  89.9662495
  98.4963894  62.8300524  90.5128860  98.9109039  62.6087236  89.0740776
  89.4625950  70.8280039  51.8242645  90.3720093  70.5296421  51.8373775
  89.4695950  71.6400242  52.3310232  21.1299328  21.0026162   6.9396210
  21.8415742  21.5180295   7.3192978  21.5713792  20.3026240   6.4586163
  38.1983523  40.8100312  26.4754105  38.8633017  40.4239266  25.9053230
  37.5467400  40.1177113  26.5864086  25.8815339  65.6489944  65.5265379
  25.2692559  66.2245655  65.0682116  26.7462304  65.9397125  65.2366829
  61.7960982  17.4949257   7.2587395  61.0461001  17.5116437   6.6642189
  62.4654441  17.0001691   6.7860603  65.6759644  75.2496433  67.3488474
  66.4123869  74.7290373  67.0281029  65.1398230  75.4100561  66.5722799
  87.8396511  78.8811111  81.2043762  87.3293495  78.0888414  81.3720989
  87.3950768  79.3009424  80.4679489   1.9162706  13.8652057  81.8852425
   2.0647720  13.1697673  81.2444973   1.1187700  14.3011874  81.5850163
  62.8697920  80.1930618  57.4007416  62.8075171  79.2385197  57.4354887
  63.6076546  80.4059029  57.9721355  39.2189746  14.8901694  30.3351593
  39.0496211  14.3223279  31.0869026  39.0612082  14.3324702  29.5733738
 105.8681488  61.2041426  42.0912075 106.0251904  62.1361923  42.2423840
 106.7429161  60.8183813  42.0442915  80.1555061  49.2433071  70.5587482
  79.9031115  49.2644024  71.4818335  80.7611847  49.9778032  70.4592085
 105.6939602  76.9455290  66.4652109 106.5143394  76.4741611  66.6102171
 105.1756001  76.3599539  65.9132767  48.4271578   4.5610373   2.4125195
  48.2632498   3.6609309   2.1311283  49.2971472   4.7646468   2.0691872
  40.9031013  92.1362041   1.4614010  40.8665184  92.7087473   2.2276115
  40.8069519  91.2529634   1.8175888  96.3141632  89.9306774  56.7283678
  95.8971214  90.4154015  57.4406481  95.5934334  89.4719982  56.2966442
  61.8481874  85.7589912  78.9000273  62.7441263  85.4554749  79.0463066
  61.9451666  86.6747665  78.6389160  58.3341789  69.6830606  33.2735181
  57.9408407  68.8650131  33.5773540  57.7133703  70.0223351  32.6287508
  31.4916471  87.9739761  58.9946270  31.1617330  87.1250439  59.2890644
  32.3378518  87.7760220  58.5933924  21.2172989 101.2408565   0.3596210
  20.7331184 101.1120676   1.1752319  20.7446484 101.9402956  -0.0916100
  66.5383391  54.2638772  17.2064781  66.6340022  53.8114922  18.0445862
  67.0580725  53.7443154  16.5931606  83.1237221  60.4079914  70.3346539
  83.4260750  61.1705494  69.8413801  82.3995972  60.7384014  70.8663511
 105.0736713  56.3607264  81.1183548 105.9786320  56.5110588  81.3916206
 104.6894360  57.2360992  81.0702705  87.3870373  89.7230148  73.7556839
  87.6513863  90.4086399  74.3691015  87.8478527  89.9368000  72.9444075
  32.8145318  37.2148697   5.7202721  33.6406188  36.9168847   6.1010838
  32.3931126  37.7119439   6.4213848 100.8851624  83.2928085  78.6771250
 100.9763145  83.8363266  79.4597530 101.7833042  83.0619240  78.4399319
 106.2834263  34.1370320  58.8318205 105.4851818  34.5120811  58.4598207
 105.9974480  33.7264776  59.6478415  94.7339440  91.1624454  18.1209850
  94.3264437  90.6359314  18.8086987  94.6149398  90.6475471  17.3228931
  30.6347088   9.0723508   0.5753994  31.2887292   8.3764737   0.6405449
  30.9987645   9.6840422  -0.0645542  99.1859055  58.8675690  69.0162325
  99.0688038  59.8094416  68.8921499  98.9778614  58.7198305  69.9387932
  76.6768932  49.0333319  80.1247597  77.2852993  48.9733219  80.8612919
  75.8572817  48.6708021  80.4609871  96.8909740  67.7919292  61.6108942
  97.3673725  68.5929775  61.3927317  97.5407887  67.2365761  62.0416451
  19.8102288  53.2630055   8.2508850  20.2706198  53.4350674   7.4295044
  19.7363286  54.1211980   8.6683559 107.1189976  69.9005365  89.2788029
 107.7714062  70.5978918  89.2133808 106.7263508  70.0202322  90.1435184
  74.7165012  68.4909010  40.7233667  75.4200697  68.0423212  41.1924076
  74.4715595  67.8858137  40.0232935  53.0569267  82.8664780  78.7609434
  52.9615545  82.9591751  79.7088575  52.4621773  83.5212708  78.3952141
 108.4200001  94.3525124  68.9011955 108.5341644  94.8130894  69.7324991
 109.1596508  93.7463474  68.8596725  58.4616236  55.8765595  15.6382656
  59.2124610  55.3614037  15.9333611  58.2411246  56.4295666  16.3877869
  85.3273964  69.5539427  60.9956408  85.1517487  68.9867401  61.7464161
  84.4931602  69.9913979  60.8255911  52.9330973   3.2353537   2.3519325
  53.0567507   4.1774600   2.2362900  52.8782420   3.1155865   3.3000278
  18.6819796  23.5440199  31.9825840  18.7205605  24.4919245  32.1099567
  19.3783669  23.1987517  32.5412178  97.3851395  60.3485346  36.5379953
  97.1835899  59.4736290  36.2061048  97.7559090  60.1954699  37.4070930
  81.2847996  53.4972239  85.1778603  82.0008278  53.3326769  85.7914257
  80.9084415  54.3286896  85.4664040 104.2485428  66.5810013  64.8078680
 104.6703529  66.4040470  65.6486940 104.7409725  67.3162127  64.4428921
  76.7627907  90.6977272  83.9944935  77.3275185  90.0582886  83.5604095
  77.1325588  91.5468979  83.7528038 109.0139484  95.1483345  88.3842278
 108.6118698  94.8562527  89.2022991 109.0619946  96.1006832  88.4676170
  90.8562232  80.7158922   6.7112827  91.5245486  80.0500940   6.8734264
  90.0299264  80.2327798   6.7194176  12.8294995  57.4435186  54.4756985
  12.5919774  58.3015823  54.8271751  12.5412419  56.8225241  55.1446581
  94.2133999  76.3341665  57.6193666  93.5879517  76.8782902  57.1408510
  93.7838459  76.1545706  58.4557056  22.1311383  26.0024064   0.6669903
  22.5922207  26.4348214  -0.0517941  22.8161959  25.5329983   1.1429977
  58.8437323  18.0497735  16.1690235  59.5582728  17.4327986  16.3271523
  58.4480242  18.1838029  17.0302296  60.1814175  79.7320652  72.4511909
  60.9195280  80.3199577  72.6118422  59.6799421  79.7489452  73.2663393
  97.5656700  94.8563385  88.9431763  98.3844662  94.5169544  89.3045998
  97.0129204  94.0824699  88.8344097  90.5082130  71.6875553  84.9555111
  91.0875988  71.9680929  85.6639194  90.4444599  72.4510241  84.3816853
  89.1308689  96.5797710  79.0010691  89.7104168  95.8179665  79.0005255
  89.0191078  96.7950439  79.9270296  75.5054760 100.2034187  68.6677551
  76.0191393  99.9426365  67.9033136  76.0605764 100.8349514  69.1252089
  79.3946600  70.7693720  60.0727797  78.5725117  70.8251238  60.5598068
  79.3058348  71.4212132  59.3774796  82.1169949  61.4525843  60.6111956
  81.3534260  61.4908648  60.0352335  81.7638779  61.1845922  61.4595604
  82.9262638  67.8245163  54.6521807  83.6535835  68.4385824  54.7530031
  82.6142788  67.9674101  53.7586069  85.9644985  98.9917183  47.0150232
  85.0350475  99.1613293  46.8614244  85.9790802  98.1819820  47.5252724
  67.6434040  71.8354321  68.3696699  67.9390287  70.9732914  68.0771780
  68.0768490  71.9637299  69.2134094  77.1625042  83.9574528  87.4088764
  78.0287695  83.9875221  87.0027828  76.6031551  84.4611263  86.8175507
  82.0830154  69.7407770  74.0373945  81.7112160  70.6161642  73.9292574
  81.4089966  69.2507744  74.5083666  74.6429205  93.9829540  57.2855854
  75.5269241  94.3190479  57.1379185  74.4577408  94.1903210  58.2015228
  51.8408255  37.4209969  14.7443104  51.1500697  37.9460423  15.1485443
  52.5830702  38.0204289  14.6669483 110.6435633  10.9034080  80.5916595
 111.0917521  11.3134784  79.8519278 111.1814452  10.1408404  80.8047390
  42.0061636  76.8912506  61.1933804  41.2045717  77.1733189  61.6339684
  42.5397921  76.5077925  61.8893862  49.5083289  26.6160720   5.2963638
  50.2346091  26.2926810   5.8294392  49.5779280  26.1284344   4.4756413
  68.4278536  59.4704533  81.5428734  69.1334391  60.1160192  81.5832615
  68.1597137  59.4658804  80.6240082  70.5141068  73.4082413  67.7283192
  70.6456041  73.3249760  68.6727810  70.2052975  72.5452328  67.4524879
 109.1929436 101.8759702   2.6438427 109.9685765 102.3144744   2.2940826
 109.5389748 101.1221574   3.1216145  98.8105202  78.6353922  57.2778797
  99.1035366  79.3999767  57.7736378  97.8552055  78.6696482  57.3272562
  56.5402274  29.1985123   9.2377567  56.1685996  30.0796502   9.1962910
  56.1873107  28.7532323   8.4674263  86.4276409  41.6904306  88.5901356
  86.0803318  41.4407635  89.4464493  85.8563995  41.2485886  87.9618931
  32.8729966  98.3274269  55.8984756  33.4631398  98.7283230  55.2603149
  32.6851323  97.4602985  55.5392694  79.0179634  45.9505987  73.5627699
  78.7607241  46.6479874  74.1658592  78.2240868  45.4282761  73.4480095
 106.9069863 103.6074804   9.7201824 107.2099019 104.2410635   9.0697575
 107.1423436 102.7556394   9.3524838  93.2859325  84.5340443  65.3570366
  93.1360912  83.7220860  65.8412981  94.0289593  84.9435997  65.8002138
 103.5814190  49.8480749  77.2906828 103.9656734  49.7568846  76.4187527
 104.3267918  49.7888184  77.8882933  85.0789833  60.2888441  77.1944475
  84.1486549  60.1640749  77.3819065  85.3028584  59.5696354  76.6038179
  31.1938004  33.0587857  12.7968216  31.0104375  32.2746556  13.3142662
  30.8183913  32.8712361  11.9365120   5.3614476  77.0996666  65.4340076
   5.6658223  77.5073671  66.2447882   4.4363549  77.3390722  65.3781557
  80.1063347  81.1935520  89.4379044  80.9586811  81.4011669  89.8208237
  79.4958544  81.2382698  90.1738071  96.3223648  83.8200569  58.8230753
  95.4115772  84.0653229  58.9859962  96.8178082  84.2709446  59.5067930
  95.7948875  88.9466095  60.0754023  96.3288021  88.1525421  60.0506115
  96.3029671  89.5603943  60.6058359  42.9063705  95.6193899  11.2814999
  42.2542099  96.1121677  10.7834339  43.4342197  96.2903284  11.7144489
  55.6571067  15.4416865  87.5252247  54.8757983  15.9863109  87.4294472
  55.4652155  14.6555442  87.0139503  78.8717842  71.6956329  68.6440420
  78.8658428  70.7798243  68.9224052  78.2918978  71.7183638  67.8828287
  86.8373680  56.5425205  46.9305038  86.8672943  55.6095362  47.1423531
  87.4459362  56.9480133  47.5481176  27.5239043  19.4704526  22.0387840
  27.0982461  18.6177151  22.1276093  28.3981471  19.2682021  21.7055702
  62.6665454  47.6847165  19.2543983  62.3373847  47.5843804  20.1476097
  61.8830065  47.6534741  18.7054729  79.3392611  63.9652205  67.7216721
  80.0984859  63.9044714  68.3014345  78.7652779  63.2528305  68.0032349
  73.5670185  82.4393177  76.6234112  74.0641880  82.7077484  77.3960686
  73.6615086  81.4871693  76.5966845  -0.1687190  40.8881712  86.6564083
   0.5988076  41.4596701  86.6794014   0.0309327  40.2462959  85.9749699
  78.1350660 100.7556725  50.9917593  78.6970854 101.4925003  51.2314463
  78.7181759  99.9966431  51.0013247  33.8596921  20.4827778   3.0616474
  33.7256531  19.7239153   3.6294460  33.6721091  21.2365477   3.6210060
  82.2814465  98.2387638  39.5233583  82.9883862  98.5333443  40.0975418
  81.5093422  98.7134838  39.8311448  85.6266975  53.9712715  62.4260473
  85.8536339  54.5854807  61.7278481  84.8060322  54.3089962  62.7847719
  92.7103615  98.3165741  84.4523621  92.2074223  98.8594913  85.0594330
  93.5292816  98.1366062  84.9141121  69.3742657  64.4929218  57.5188112
  68.4257984  64.5792770  57.6146269  69.6408224  65.2844810  57.0512486
  93.7771225  44.6895075  67.0901155  94.2920303  44.7864866  67.8911734
  93.4623051  45.5730867  66.8993092  17.0685533  28.8784432  63.2613707
  17.3942807  27.9937100  63.0958986  16.8952134  29.2365813  62.3907852
 104.8045254  73.2894707  79.1080236 105.5396557  73.7227869  78.6743689
 104.4729233  72.6712465  78.4568167  83.9465809  70.5780268  64.8304367
  83.3554840  70.1158810  64.2360783  84.0362549  71.4510012  64.4482040
  10.5619481  27.7445340  63.3804750  10.6682733  28.6390901  63.7040329
  11.2231210  27.2387552  63.8529825   6.7200902  70.3490019  53.1024122
   7.2977021  69.9086857  52.4789429   7.2285703  70.3898573  53.9123583
  80.0094795  74.3018246  34.4297099  80.8102226  74.0685225  34.8994064
  79.5490885  74.8964977  35.0218534  36.3161568  37.5882332  12.3124981
  36.5436797  37.5789635  13.2422161  35.3607897  37.5305550  12.2991276
  38.1921963  37.1685975  10.4534531  38.0210213  36.3188355  10.0474548
  37.6390080  37.1766179  11.2345696   5.8653405  49.1223192  52.7932310
   5.6226209  49.7999144  52.1622133   5.0495008  48.9169025  53.2497787
  92.2948889  35.3136437  31.3424873  93.2464270  35.2133362  31.3698864
  92.0136313  35.1784413  32.2473907  14.2521671 105.2559351  13.3366585
  13.7940601 104.4867300  13.6753273  14.9747852 105.3933023  13.9491844
  76.2848663  81.8739510  52.8412724  75.5311871  82.4391079  52.6715612
  75.9454441  81.1884499  53.4166908  94.7775555  62.7920437  67.1341562
  94.8123550  61.9856405  67.6486778  94.8331451  62.4985123  66.2247705
  65.6435828  23.5772650  16.4042759  64.9522738  23.1308262  15.9153938
  65.5748610  24.4929927  16.1341858   5.1404051   7.4581069  65.7668734
   5.8987812   7.8710860  65.3539038   4.8192839   6.8380088  65.1121998
 100.0703907  72.1690416  85.0210381  99.9762821  72.0410681  84.0771103
  99.4991207  71.5071344  85.4106045  22.2173981   1.4979117   9.3621445
  22.4265866   2.0570843   8.6139393  21.2634949   1.5371220   9.4311619
  82.1741581  79.2863703  91.0204697  82.0762157  78.4599733  90.5474854
  83.1152344  79.4606924  91.0057449  77.5144625  65.4767036  71.1994314
  78.2668591  65.9980869  70.9196329  76.8500900  65.6359386  70.5289936
  59.5245314  65.0302601  62.3640394  59.1006279  65.8882856  62.3821402
  60.0426340  65.0360060  61.5592003  87.0063782  72.2381687  87.6822948
  87.9545689  72.2540092  87.5522518  86.8137264  71.3339901  87.9304504
  67.5823402  92.9652309  63.8046360  67.5283670  93.5962963  64.5223284
  67.0246553  93.3335590  63.1193924  23.2026867  87.3819326  34.8346710
  22.2738460  87.2154401  34.6741486  23.6535553  86.9331788  34.1194248
  92.9647732  43.7328720  82.9641438  92.3022556  44.4237089  82.9709530
  92.8136158  43.2641459  82.1433640  97.6068878  85.9174252  44.0669250
  98.4285450  85.8310127  43.5835648  97.8546524  86.3470840  44.8856068
 100.8137131  81.3264847  64.8425055 101.4692211  80.6335926  64.7621965
 100.9215736  81.6559982  65.7347012 105.9167862  39.9434757  67.1876144
 106.8554688  39.7587776  67.2189713 105.7876682  40.3861284  66.3487959
  64.5091963  56.5288544  87.6000786  64.8452520  56.9395447  86.8034458
  64.0655136  57.2375488  88.0660534  74.1526747  73.0279398  63.0823851
  73.9059258  73.0784559  62.1589184  73.3587646  73.2755804  63.5563231
 102.7744198  61.0844517  56.7092466 102.8992462  61.9230604  57.1535254
 102.5752926  61.3206720  55.8032799   0.3947595  56.7073298  85.6872463
   0.6946424  56.1795998  86.4273834   1.1974671  57.0625925  85.3055668
  16.2973599  13.2218497   4.3649387  15.6435399  13.8766329   4.1199684
  16.5355782  12.8006117   3.5390854  84.6866703  82.3492813  89.2110920
  85.1097584  82.4727249  88.3613873  84.9548626  81.4728546  89.4871044
   1.7338994  51.4533615  72.0456839   0.9541944  50.9078836  72.1493912
   2.4485543  50.8286619  71.9222307  92.7715111  72.6265717  50.1226568
  92.5081158  73.4860325  50.4515743  93.6868954  72.7385139  49.8661852
  76.4990997  54.0146399  35.1895618  76.9785786  53.1974030  35.0537109
  76.1166573  53.9256811  36.0625196  35.3844599  34.9224084  13.6950779
  35.9693293  35.0726216  14.4377708  35.9182744  35.1211732  12.9258156
 100.2585888  68.5107279  33.1384635 100.6928635  69.0935802  32.5156283
 100.4450989  68.8941813  33.9954376 106.2107611  13.0688495  56.6724539
 106.6260482  13.8546294  56.3170242 105.2943755  13.3167953  56.7948961
  99.6653175  61.4729357  80.9592915  99.5066929  60.5322695  81.0381413
 100.2540684  61.6782475  81.6855526   3.6392406  86.0590123   3.1069469
   4.4157080  85.6747435   2.6999187   2.9211763  85.4833411   2.8438663
  81.7965031  63.1621313  77.9968739  81.9921017  63.8122320  78.6716652
  80.9424591  62.8084660  78.2454014  96.3685989 101.9371414  47.9049206
  97.1142673 102.4900436  48.1383848  96.1112976 101.5219021  48.7280893
  82.2172737  92.1558952  70.6941509  81.5223980  91.7201996  70.2006388
  82.8808212  92.3675632  70.0375462  66.9774675  89.5830631  81.4658260
  67.3508358  88.8588905  80.9634304  66.4782667  90.0877476  80.8236885
   3.2219079  90.0855923  60.4114914   2.4290612  90.3951550  60.8494425
   3.0376104  89.1700840  60.2014875 103.2008266  84.6452999  75.5390263
 103.0396461  83.9498329  74.9013901 103.5149288  84.1873455  76.3186693
   9.7752813  96.8213844  70.0162649  10.3187516  96.1776066  70.4706001
  10.2249292  96.9700527  69.1844320  85.1127581  37.4304574   1.8243885
  85.1009898  37.6275532   2.7610016  84.7263007  36.5572159   1.7585182
  32.9021220  41.4658730  11.8603992  32.9844145  42.2699540  12.3731613
  33.4219317  41.6293995  11.0734463  61.8068843  24.9858039   2.7894592
  61.0697417  25.5430977   3.0390072  62.3392920  24.9235432   3.5824966
  33.5972933  28.9756577   8.6710835  34.3826203  28.5474961   9.0119171
  33.5541539  28.7025159   7.7546978  97.5083160  69.5673370  74.5455503
  96.9314098  69.8781967  73.8478613  97.7063084  70.3503370  75.0593090
  72.4059296  86.0737896  51.2323666  72.8661823  86.7726326  51.6971397
  72.8778267  85.9856796  50.4042482  44.0172438  12.8093855   1.4728451
  43.1010680  12.6415436   1.2521839  44.2271762  13.6257165   1.0192394
  98.3340740  58.7735510  78.5463238  97.4749184  58.6834908  78.9585876
  98.9416122  58.3745480  79.1691589 107.2887516  70.9724045  86.8250751
 107.2352886  70.2424192  87.4419117 107.5375175  70.5665302  85.9946442
 102.2192669  68.6220121  74.2060232 101.9659328  69.3755627  73.6729145
 103.1713867  68.5761833  74.1188335  77.2246790 102.5902367  64.8932552
  76.6484308 102.9997540  64.2479086  78.0750084 102.5390434  64.4567347
 107.0950317  41.4809370  64.5880938 107.8720188  41.8030167  65.0450230
 107.1932793  40.5287933  64.5904350  46.6162872  90.6743908  70.0860977
  46.8133307  91.5892792  69.8851109  45.6752014  90.5925274  69.9315214
 105.3469944  33.1687522  86.0174370 105.9300232  33.5067725  86.6971779
 104.6753979  33.8438773  85.9204769  67.3763137  80.5923646  19.3154716
  67.7013163  79.7931092  19.7299480  67.5814776  81.2870972  19.9411583
 106.8219662  62.1601439  78.3374357 105.9751225  62.1135092  77.8936815
 107.3509502  62.7348804  77.7841854  11.6196445   8.3052749  62.5444841
  11.9698242   7.7101726  61.8815613  12.2309307   9.0418262  62.5520182
  13.5030797  51.5756273  85.6571102  13.6879781  50.6374216  85.6997204
  13.2063630  51.7207098  84.7587013  45.2306895   5.8307450  13.0140209
  45.2971129   6.7856352  13.0170059  46.1315303   5.5283444  12.8987980
  74.4360213   6.0081856   5.2239037  74.5977263   6.0764973   4.2829323
  75.0421767   6.6359275   5.6172848  13.5897259  13.1313985   1.1516666
  13.1745581  13.8469117   1.6332340  13.4516291  13.3509820   0.2302837
  73.7219000  83.6601257  83.3006287  73.6712742  84.2820263  84.0265083
  72.8399420  83.6538219  82.9286766  81.2018967  74.8089504  87.3017502
  80.6804276  74.1414118  86.8560028  81.3562870  74.4486618  88.1750107
  45.7122520   3.5415381  86.6080761  45.6923965   4.3013114  87.1899605
  45.5581955   3.9039439  85.7356262  18.0771592 101.9758701  85.4635620
  17.9654935 101.2417793  86.0676098  18.4587720 102.6711178  85.9995079
  78.9886618  69.1569662  74.8895359  79.1530752  69.7565508  74.1617393
  78.5291004  68.4175825  74.4916010  47.4655013  35.3033822   7.7050209
  47.4295382  35.0662320   6.7783546  48.0733161  34.6722691   8.0903530
  29.5056538  11.7758960  86.4441967  28.5577587  11.7097396  86.5597534
  29.8260502  10.8838386  86.5776920  43.9140896   4.6415729  90.3168297
  43.0500320   5.0287932  90.4571438  43.8296036   3.7442130  90.6390667
  83.3793640  78.5952520  80.8767605  82.8631783  77.8715897  81.2318516
  83.9450932  78.8637495  81.6006947   1.2627319  16.1603374  78.5564137
   0.9229282  16.6734237  77.8232670   1.5318350  16.8139762  79.2018366
  54.2756514  45.6780903   9.6376705  53.9919333  45.3081601   8.8016701
  53.8120417  46.5132229   9.6996975  18.9870504  83.5801983  71.0528469
  18.1251481  83.8900375  70.7747030  19.5388272  84.3622303  71.0384226
  96.3709927  84.5658207  76.8351698  96.7838192  84.3328094  76.0035992
  95.6576824  85.1557541  76.5914440  12.2505525  81.9147778  69.6385717
  13.2018426  81.9591808  69.5420694  12.1145204  81.6301060  70.5422783
  76.4420657  64.1036503  14.7800446  75.5489211  63.7646859  14.7198105
  76.5724616  64.5819180  13.9612103  81.4464760  48.8640642  58.1188726
  80.5889702  49.0615082  58.4956169  81.4096069  47.9292679  57.9163265
  11.0019925  44.2742395  75.8855009  10.6322339  43.4509659  76.2044621
  10.2862886  44.6868420  75.4020214  80.8059978  96.1166382  61.2375021
  79.9538374  96.3808250  60.8907127  80.7385063  96.2685585  62.1801567
  68.2890849   3.3983653  15.9700966  67.5152449   3.4239953  16.5328884
  68.8729720   2.7695363  16.3942242  32.4858813  34.5331948  17.3391914
  32.6599316  34.5472138  16.3980579  32.3240714  35.4488270  17.5665092
  62.5120215  41.9714158  12.0518970  62.8894000  42.2497170  12.8863812
  62.0664649  41.1484807  12.2531033  27.6153568 102.3326563   0.3901291
  27.4211697 101.6250204  -0.2245045  28.1463531 101.9195293   1.0710049
  97.3884487  69.8208094  71.4815950  98.1724072  69.3346977  71.2260008
  96.6901398  69.4499111  70.9421206   7.1394543  16.4346046  31.6635299
   7.0636848  17.3292941  31.3318467   7.1004967  15.8849067  30.8808708
  46.0177330  94.0874599  17.0177364  46.5218929  94.7309946  17.5156403
  45.7923798  94.5376419  16.2036228 107.5648880 103.4798050  87.5565243
 107.1207237 102.6393604  87.4442863 108.2443237 103.3065033  88.2081127
   3.6495355  60.4890347  62.6499701   3.6727288  59.8448849  61.9423246
   2.9029325  61.0497141  62.4391127   0.4070523  70.3926563  50.6581688
   0.5284169  69.5780182  51.1458874  -0.5207488  70.3949404  50.4227877
  39.2028812   6.4789218  44.9800634  38.7928776   5.9002227  44.3372297
  39.1459659   5.9981555  45.8058071 105.6078720  81.5993118  74.0652227
 106.3127518  81.2069798  74.5804453 105.8818722  82.5074387  73.9369106
  29.9287895   7.0053882  82.9096603  29.7100548   7.5981635  82.1906281
  30.1800159   6.1884898  82.4786186  64.0139250  33.3152764   3.6588192
  64.0709166  33.3470528   2.7038479  63.9870124  34.2334931   3.9278412
 104.0674973  83.2509613  61.8332767 104.9316120  83.3615494  62.2299004
 103.4656811  83.2140350  62.5766993  19.9972920  50.7339280   4.0547562
  20.2823071  51.6442006   4.1347885  19.0415005  50.7828705   4.0372849
  89.3085766  82.7828503  84.8244190  88.7651253  83.1615829  84.1334343
  89.0137768  83.2160187  85.6254768  12.9701760  94.5224094  74.3052721
  12.0201448  94.6380520  74.3225241  13.2479623  94.6876621  75.2062464
  97.7129745  89.7498417  83.1781006  98.4866619  89.1917419  83.2566071
  97.5052929  89.9993896  84.0785599  90.3544140  74.6577549  86.8182468
  90.0217056  73.9988232  87.4276352  91.2084866  74.9033451  87.1738911
  74.9131536  96.0728741  82.6360035  75.3361988  96.9295979  82.6932430
  75.4426146  95.5063343  83.1972027   6.1442140  73.9058590  56.7929649
   6.7207578  74.2948627  56.1353207   5.3379014  74.4187880  56.7381048
  56.9850636  98.4532070  89.9660206  56.8106127  97.8777790  89.2212486
  56.6487217  99.3068027  89.6931267  74.2204475  83.2313728  55.4067135
  73.6001635  82.9193783  54.7478199  75.0596857  83.2669640  54.9477530
   4.0021089  64.1182041  85.9512711   3.0739930  64.3521786  85.9411716
   4.3633702  64.5376968  85.1704121  46.3337377  98.0970764  70.9768677
  46.4860681  98.6080074  71.7718363  46.9685987  97.3824024  71.0261536
 106.5651989  88.5009098  90.1617527 106.3802719  89.0260887  90.9403515
 106.7681026  87.6299286  90.5029964  43.2117752   1.9072932  90.6437874
  43.0143837   0.9818477  90.4995155  42.5092033   2.3752326  90.1924992
  67.9657030  78.3438206  39.3462968  68.7237549  78.5566235  39.8906398
  67.8433847  77.4017620  39.4637537  53.3445792  31.8432038   5.7062435
  53.0846266  31.3606255   6.4909649  53.8533168  31.2135499   5.1953983
  59.1469721  36.2169449   4.9228954  59.8421816  35.8939545   4.3496704
  58.3360152  35.9593289   4.4844723  62.5728850  32.0464985  14.5419025
  63.0912928  31.4109604  14.0483761  61.8539862  32.2776024  13.9536762
  93.5125160  65.5393744  55.2893496  92.7920532  64.9421453  55.0881767
  93.7454700  65.9264803  54.4454813  24.9919848  68.9263241  30.2378368
  25.2181439  68.1052201  30.6747341  25.4752831  69.5960801  30.7216549
  17.6933864  11.6269321  74.2295837  18.4514431  11.9419688  74.7218466
  18.0518822  10.9713000  73.6313677  31.4965633   0.4035396  60.3121948
  31.9731907   0.0062102  59.5833731  31.7954544   1.3127727  60.3265333
  82.5926070  17.5671094   3.5233688  83.1782298  17.6350825   2.7692699
  82.5223593  16.6268056   3.6880684  21.9289211   9.4869155  61.9674301
  22.7516369   9.7727698  61.5703773  21.7076877  10.1822108  62.5869894
  74.6171331  85.9622002  74.2530346  75.3846455  86.2998962  73.7913895
  74.5986795  85.0298882  74.0369701  70.3795099  97.1509552  42.2622013
  70.8875608  97.7790833  42.7755976  70.4844284  96.3209534  42.7273035
  40.3247981  17.0673268   5.7108402  39.3878512  17.2616141   5.7357883
  40.7469325  17.8922646   5.9506702  57.4200682  42.9754059  12.2501564
  57.6896529  43.5585301  11.5405655  57.2335105  43.5612576  12.9837894
   8.7601426  87.2922802  71.3702869   9.1100171  87.4327183  70.4904556
   8.9157537  86.3640308  71.5445709 100.4114628  95.9179306  72.4284983
 100.3145409  96.4725208  71.6543722 101.2353992  95.4516029  72.2874117
  75.7380538  41.5441887   0.9812641  76.4657550  41.1900323   1.4923954
  76.1402850  41.8387311   0.1641464  34.6183876  12.3769874  86.7577362
  34.9828819  13.2228869  86.4973068  35.3837017  11.8198413  86.8995285
   1.7954591  98.1904030  58.4402752   1.3431409  98.5351658  57.6703548
   1.4188436  97.3199558  58.5695267  24.5232872   0.2248591  57.5540733
  24.0511040   0.9634990  57.9383802  25.4252533   0.3343791  57.8552246
  80.1844406  61.4813280  83.2975101  80.7213783  62.2199392  83.5845375
  79.7242355  61.1984110  84.0877056  97.0765018  86.6938496  81.9474411
  97.0853901  87.6208878  82.1856976  97.6459885  86.2751961  82.5929165
  10.0062993  99.8309231  83.4923744  10.0293210 100.7055378  83.1041050
   9.3675950  99.9005890  84.2018986  53.8407516  91.3821983  86.8858337
  54.3836212  90.6010723  86.9924736  54.4390774  92.0442581  86.5395451
  64.4444327  40.3742974  17.7067661  64.2249922  40.2743619  18.6330986
  65.0926642  41.0783570  17.6887894  25.2158360  51.3404267   7.4463463
  24.4654278  51.4842408   8.0229187  25.3710560  50.3967373   7.4861240
  52.4629879  84.8153114  30.6639576  53.1322098  85.2788258  30.1604366
  52.6145267  83.8904476  30.4693031  64.0451813  99.0303802  77.0606661
  63.0969667  99.0298748  77.1915388  64.3286848  99.8920250  77.3663235
  63.8277626  79.2951965  88.7971878  64.3102646  79.3541861  87.9726028
  64.1585779  80.0248718  89.3209934  39.1370300  20.1907558  83.0898285
  38.6236004  19.8857516  83.8378906  39.4110302  19.3889827  82.6445007
   6.4327577  43.9079332  87.7451420   6.0851243  44.0148640  86.8597412
   6.4373639  44.7931910  88.1091881  66.3007216  37.5703423   2.4758625
  65.4696517  37.5511830   2.9504013  66.9615702  37.7032273   3.1554699
  32.7867465   9.3227809  26.3622665  33.5911851   9.1285889  25.8812237
  32.4597268   8.4663766  26.6376972 103.0789280  64.9523115  70.1138401
 102.9837036  65.8015394  70.5450869 102.4808884  64.9942160  69.3676329
  96.8890762  64.2408037  59.8302269  95.9590435  64.1419697  59.6265125
  97.0606041  65.1759005  59.7188807  91.7231750 103.7458897  77.5778103
  90.8183765 103.4619236  77.4476671  92.1195316 103.0500317  78.1021500
 111.0008907  99.9658871  74.5761538 111.3570404  99.9127865  75.4630423
 110.0621033 100.1031590  74.7028542  85.1058674  79.0809917  77.0365906
  85.5558395  79.1709375  76.1965561  85.7368851  79.4001865  77.6816988
  80.2547264  73.3018494  85.1437092  81.1391926  73.4594202  84.8133659
  80.1376915  72.3545027  85.0724888  76.2882900  93.8608932  80.6766891
  76.3963652  93.0956650  80.1119137  76.8226528  94.5399189  80.2648544
  51.3902621  21.4437049  14.9278927  50.8742098  22.0118611  15.4998398
  51.9760470  22.0407622  14.4624901 106.4623976   1.6732043  84.5757198
 107.4169541   1.7060107  84.6388435 106.1898185   1.1566752  85.3340816
  82.8424887  13.6096232  11.9912910  83.7027125  13.7494843  11.5954494
  82.2886614  14.2892115  11.6070175  52.0003085  51.7158501   3.7441731
  51.3276915  51.5220730   3.0912876  52.4372058  50.8774560   3.8940620
   2.2877984  54.9585335  26.2082767   2.3186164  55.9147256  26.2397099
   3.0361275  54.6773427  26.7347431  80.1392746  66.7222166  70.9769344
  80.8401012  66.3464069  70.4441738  80.4549408  67.5963783  71.2058830
  37.0847563  58.2767480   4.4043350  36.2690787  57.8597062   4.6817875
  36.9417338  59.2102044   4.5606709  89.8892593  66.2817097  78.4033728
  90.7521439  66.1421394  78.0132771  89.3880653  66.7299128  77.7220869
 104.2642212 101.3047218  70.4505968 104.4844151 101.4897060  71.3635731
 103.8819313 100.4273796  70.4694414  81.5367222  72.1142149  67.7489567
  81.8990898  72.8650570  68.2192278  80.6532097  72.0134115  68.1031847
  73.6712508  21.9857161   3.5501003  72.9955630  21.3605206   3.8124180
  73.5478263  22.7319520   4.1367245  90.1463127 102.8982544  64.4167137
  90.8339787 103.2434273  63.8473272  90.1891518 101.9496536  64.2960262
  80.7198620  58.5207796  67.5660896  80.2906990  59.3755674  67.6034164
  81.5756130  58.6645746  67.9701185  67.8779125  58.0566692  89.0750790
  67.7180481  57.1945047  89.4589424  67.4456787  58.6681747  89.6712875
 111.9130802  42.6017332  67.3352146 111.9611931  41.8413925  67.9146957
 111.1505508  42.4331713  66.7817163 107.4284172  71.8282890  58.5554314
 107.6613140  72.6380777  59.0095568 108.0348778  71.1750793  58.9043617
  80.1053481  18.9955418   2.9948521  80.9039073  18.7619965   3.4681320
  79.3966822  18.6375802   3.5295200 104.7869301  61.3074017  53.3235502
 103.8815975  61.5613413  53.5027456 105.1306057  62.0148230  52.7779579
  80.1063156  53.9139366  56.1872196  80.1920414  53.8464069  55.2362585
  79.2054272  54.2059422  56.3263607 104.0254784  88.5167694  89.5280170
 104.9818993  88.4847260  89.5493984 103.7808704  87.9062748  88.8325310
  79.0051608   2.6922219  16.9688988  78.6374430   3.5396998  17.2194958
  78.3104281   2.0629399  17.1627331  72.4306488  60.8107185  82.1797466
  72.0633793  60.9292555  81.3037872  73.0421495  60.0802708  82.0862389
 102.8708076  77.5254631  90.0646782 103.2010365  77.2230101  90.9106636
 102.1796703  78.1494379  90.2865410  21.6291050  27.7388686  87.1034718
  21.3880352  27.8692931  86.1863518  21.0372547  28.3121890  87.5905514
  52.0668559  10.6360524   7.1741009  52.7290301   9.9594205   7.0329189
  52.4527888  11.2154954   7.8310204  99.6063137  33.6613488  47.8077364
 100.0989246  32.9293394  48.1788492  98.6943817  33.4734321  48.0297899
  79.0288734  69.5273972  80.7915115  79.6566820  68.8050461  80.7743931
  78.6754084  69.5165014  81.6809845  22.7779630  69.2832470  53.5815334
  23.2520536  69.2895126  52.7500057  21.8542722  69.2772436  53.3305645
  58.9945655  30.7483666   4.7737694  59.7893958  31.1557095   5.1180840
  58.3096079  30.9976761   5.3941727  90.0836520  69.5805161  16.5690994
  90.6788115  69.2445080  15.8989334  89.3585543  69.9633973  16.0752773
  42.7577738  79.3361466  10.4332447  43.3947043  78.6216443  10.4400349
  42.0015244  78.9784424   9.9680901 110.4079009   4.3358916  75.3017426
 110.2925206   5.2507323  75.5586195 109.9932624   3.8356322  76.0046291
   3.9963964 104.8128510  53.7660360   3.4804490 105.6169510  53.8249111
   3.9030316 104.5345402  52.8549576   2.1776822  62.4120474  72.5787067
   2.0873502  61.4936781  72.3243999   1.3802770  62.8301048  72.2537518
  40.9751081  95.5365849  68.7033987  41.5016556  95.7120419  67.9235268
  40.6395102  96.3943863  68.9637709  55.6982665  40.9729951   6.8203926
  55.5347590  41.4166634   7.6526546  56.6517596  40.9078686   6.7669773
 106.9267897  27.6844685  24.7136021 107.2836260  28.3668511  24.1450500
 107.2906546  26.8696683  24.3672848 103.9961147  98.0183220  63.1357527
 103.4360695  98.6011219  63.6485243 104.8855877  98.3255005  63.3109903
  51.5703826  17.4977057   1.5049934  50.8399157  16.9693177   1.8266392
  51.6883139  17.2162764   0.5977249  56.1276869  56.3746159  24.5000362
  55.3283171  56.9007104  24.4784069  56.5524916  56.6181176  25.3225231
  98.5486221  85.1171970  80.1736736  98.0696964  85.4644394  80.9261894
  98.3075523  84.1913605  80.1428127   1.6956761  99.5848274  79.5914316
   2.3174623  98.9820576  79.1836548   2.2437146 100.2062225  80.0707531
  92.0147705  72.8555202  62.2336340  92.6809216  73.4881067  62.5025320
  92.2692013  72.6023722  61.3462734 100.2005196  92.3289108  77.2721004
  99.5833969  91.9041252  77.8678799  99.9019432  93.2371616  77.2255802
  90.1765875  31.5742867   4.8885918  91.0104136  31.9931977   5.1018429
  90.1881365  30.7534402   5.3808498 108.0114413   0.4119033  62.9803991
 107.2896386   0.1410407  63.5477304 107.8650237   1.3468093  62.8363609
 101.7540932  80.4719734  78.5157299 102.1804142  81.3042927  78.7200117
 101.2131691  80.2852631  79.2830467  61.8803935   5.9347813   9.1541195
  62.6854853   6.0571044   8.6510372  62.1786933   5.7906525  10.0521660
  70.7620673  36.6619961  19.5222759  70.7119517  37.5208848  19.9418354
  70.7365851  36.0388749  20.2484322  25.2166466  14.8363799  81.2870026
  26.1407665  15.0757712  81.2168980  24.7812179  15.6415481  81.5668774
  47.6752906  41.5314667   0.4918575  47.2958998  40.6781285   0.2818298
  48.1525759  41.7825692  -0.2989578  75.5894522  37.2695248   9.9251938
  75.2636008  37.9967301   9.3948841  74.9402194  36.5763466   9.8058796
  12.7441552  99.9507618  83.0409336  11.8423608  99.6556759  83.1670952
  12.6591638 100.8197021  82.6485825 102.6953411  90.2905369  64.2334032
 103.1647682  91.0808754  64.5002985 101.8390465  90.3669071  64.6543121
  50.2690463  50.2259724  18.2840157  49.3599276  50.4069607  18.5227299
  50.5133586  50.9487908  17.7060223  89.6280384 100.9955406  50.2053595
  88.7421799 100.9967041  50.5679703  89.5019913 100.8644295  49.2655993
  88.5285282  65.1664591  43.5330820  89.0085697  64.3529367  43.6879349
  87.6233768  64.9582148  43.7645102  96.4761543  66.7273045  46.3741732
  97.4277687  66.7040968  46.2734985  96.2583542  67.6593876  46.3778543
  62.3953915  62.1170998  71.9643402  62.6546383  62.7490950  71.2938213
  61.5400696  62.4241447  72.2649670 104.0583324 103.5721588  88.8530731
 103.5398293 102.8004456  88.6253738 104.3275928 103.9370441  88.0101109
 109.5487976  68.0980873  87.9386616 109.7111416  68.9839077  88.2629967
 108.6542892  67.9013586  88.2168198  39.9261622  45.9439461   9.7412205
  39.6309094  46.7902463  10.0771332  39.1621260  45.5858891   9.2892551
  90.3556919  84.4454765  64.1531515  91.1818886  84.9224472  64.0748596
  90.4648590  83.9040375  64.9349165  68.1847720  73.7063687  11.4013863
  68.0290560  73.1183999  10.6622887  68.7671904  74.3809788  11.0521984
  91.4671230  70.3859997  80.2577877  91.1835194  71.2351036  80.5966473
  90.8648300  70.2025652  79.5367956  96.2379932  99.7370911  81.8485165
  95.3632164 100.0785065  81.6629791  96.4539242  99.2033100  81.0838699
  82.4431610  86.5335655  87.8594017  82.9677105  87.1176434  88.4070587
  81.5424156  86.8319607  87.9852676   5.9140019  35.0145810  35.1257133
   6.6171937  35.1685135  35.7566357   6.2789921  34.3782895  34.5107841
  65.4380946  59.8566907   5.9722328  64.8896651  59.0725319   5.9486675
  64.8924403  60.5422585   5.5869007  97.4251799  22.7080433  28.7711430
  98.3705287  22.8383677  28.6965656  97.1851306  23.1547063  29.5829964
  99.5956707  92.1216679  71.9266558  98.9066124  92.7691460  71.7776823
  99.8619366  92.2600842  72.8355980  16.3813881  76.2157963  27.3053646
  17.2978023  76.4778947  27.3931980  16.1627678  76.4108657  26.3941097
 110.3371239   8.6871165  27.5384808 109.8947192   9.3851489  28.0214572
 109.9711419   7.8786010  27.8970742  30.0288825  22.6789610   4.1641617
  30.8174567  22.7700513   4.6990204  29.8577075  21.7373221   4.1482639
  60.1465416  63.3660126  72.8683186  59.4202518  63.9794111  72.7566576
  60.7682800  63.8304186  73.4286737  67.9224448  15.0376217   3.4850311
  68.0650096  15.5124896   4.3038082  67.0913176  14.5808404   3.6146545
 103.7409878  79.3597317  76.2418032 103.6558151  79.9619341  75.5026627
 103.3678055  79.8363447  76.9832897   8.3013157  26.9966144  71.8604469
   7.6400570  27.3916072  72.4287415   9.0025906  26.7330092  72.4562263
  23.1230454  56.3741295  33.1010628  23.7910037  55.7808201  32.7574730
  22.6933913  56.7278378  32.3222733   2.6685575 105.0271702  82.7423477
   1.7613366 104.7379875  82.8401089   3.1822541 104.2202568  82.7773666
  95.1293755  96.2944317  89.9463749  95.1699257  96.5537453  89.0258598
  95.9644508  95.8556080  90.1086140  66.4301300  78.6976433  64.1988659
  67.0660400  78.8005638  64.9068594  65.5821180  78.6641932  64.6415806
  24.2515282  13.5352439  78.7771320  24.9655918  14.0878696  78.4594202
  24.2658428  13.6482734  79.7275257   9.7235874   4.5356673  54.7433472
   9.6999649   5.2320498  54.0870428   8.9552215   3.9984721  54.5503235
  44.4398837  29.5701592   1.2910461  44.7508578  30.3948681   0.9176922
  45.2352004  29.1239731   1.5819454  55.5395126  63.3433104  81.1337471
  56.0010862  62.5721645  81.4631557  55.5262280  63.9491653  81.8746948
  28.4307102  44.8168391  55.2609062  28.9620308  44.0666694  54.9941254
  28.9754776  45.5786342  55.0630903   8.4305195   9.3494624  71.5906525
   8.2332233   8.4698695  71.2687349   8.3755402   9.9065894  70.8142424
  23.9128736  98.8759422  43.6806536  23.1491712  99.3911839  43.9404821
  24.6551755  99.3302631  44.0791607   0.2353433  92.0957184  77.9833746
   0.7475713  92.8202438  78.3424187  -0.4438540  92.5194931  77.4586535
  68.1600814  32.9991810  14.6025085  67.8490405  32.4637978  15.3324699
  67.6731066  33.8193600  14.6824741  49.2100147  16.9802016  74.2543316
  49.2904476  16.4060134  73.4927130  48.5191349  17.5984687  74.0162754
  64.7606806  20.7071250   7.2512436  64.9029021  21.6524499   7.2999096
  64.8795752  20.4943793   6.3255882  40.9456543   3.5586661  41.4038563
  40.2007011   3.8557071  41.9263840  40.5597118   2.9881209  40.7392120
  32.7722840  29.3916886  30.6880665  32.6185231  29.8626416  31.5070915
  33.2121663  30.0283234  30.1246548  64.2830805  61.1044304   9.4406414
  63.8153319  60.3374188   9.1103077  63.6046366  61.6399186   9.8519707
  49.1847805  11.6742343  57.4809551  50.0352196  11.3647574  57.7927494
  48.7123588  11.9186038  58.2767725  25.5754188  13.0443305  75.5592108
  24.7919182  12.5005454  75.4775953  25.4195694  13.7794703  74.9663305
 100.3111172  76.2034655  83.0573273 100.8376694  76.3808680  83.8367462
  99.5452881  76.7699051  83.1516266  90.5335002  44.6526330  11.3437080
  90.6600718  45.2051919  10.5724239  90.6733851  43.7609284  11.0250759
  78.8481140 101.5606403  79.9727678  78.6596870 101.3414192  80.8852768
  78.1600094 102.1794128  79.7280884  87.7496910  80.1657391  72.5689125
  87.6388550  81.1158562  72.6038551  88.1595612  80.0035000  71.7192554
  20.9488300   3.7392539  75.2008438  20.9311584   3.0760497  74.5108557
  20.6504825   3.2775992  75.9844875  23.8081554   0.6841105  85.8908939
  23.2525543   1.3699836  85.5205822  23.4148888  -0.1334744  85.5857277
 101.3072205  94.4808388  63.3588028 102.1206665  94.2834282  63.8230991
 100.6298351  94.0241909  63.8576365  44.8447231  31.7653579  87.5538921
  44.7911743  31.2797469  86.7307568  44.0866569  31.4680976  88.0570984
  96.7022610  98.7652111  74.1644955  97.3132515  99.0231323  73.4742737
  97.1463585  98.0521011  74.6232891  68.5949711  37.8857345  86.7641735
  68.9716915  37.6035136  85.9307098  69.1796879  38.5797900  87.0685196
  99.0601826 102.3397446  77.5023460  99.0102863 103.2292843  77.8522825
  98.3172894 102.2764874  76.9020653   3.1401685 100.4966259  83.1677914
   2.1997216 100.6720257  83.1998920   3.5287622 101.1711311  83.7248230
  81.9259262  88.4623051  70.6407356  81.4172649  88.0578518  69.9379539
  82.5600624  89.0183067  70.1879930 106.2138081  66.2565804  70.0513601
 107.0475388  65.8198786  69.8769808 106.2272739  66.4315414  70.9923363
  86.6182093  19.4766276   5.5354786  86.9975524  18.8554995   4.9137688
  85.7622866  19.6931355   5.1656914  46.5568832   7.4645251  74.5730639
  45.9687809   6.8386859  74.1503382  46.6331962   8.1831283  73.9453602
 101.4916992  74.1100311  90.1183510 101.1918449  73.7489510  89.2841148
 102.2090244  74.6976805  89.8809910  79.7120285  48.9411402  51.1019468
  80.5518436  48.9723825  50.6437254  79.8092461  48.2269049  51.7317486
 106.6270542  73.3904791  87.8984261 106.4905548  73.8291073  87.0586586
 107.0413494  72.5584936  87.6695347   5.3334287  98.7020493  60.1589298
   4.9662831  98.0153179  59.6022987   6.1636117  98.3405018  60.4692698
 109.2441177 104.9055862  53.7131262 108.5782719 104.2207432  53.6509275
 110.0765133 104.4348717  53.6709499  90.6646685  26.8994753   3.9317226
  89.8494010  26.5497916   4.2912960  90.4025798  27.3286812   3.1172752
  77.5585413  93.0976868  83.2646942  78.3163118  93.6100864  83.5465717
  77.6665926  93.0115223  82.3175240  80.2009106  90.9809208  73.0284977
  79.9327517  90.6732845  73.8943386  81.1575890  90.9816265  73.0602598
  96.4511299  83.0813980  90.0833607  95.8992863  82.7518272  89.3740749
  96.4629745  84.0300846  89.9565792 107.9784012  95.9587002  84.3220615
 108.2270145  95.1305103  84.7325802 108.7998390  96.4440727  84.2453194
  45.2974991   4.4466609  78.3326006  45.2463917   5.1424045  77.6771975
  44.7592739   3.7405795  77.9748201 104.2515659  76.3827801  70.5808163
 103.7779427  77.0256519  71.1086607 105.0422955  76.8416071  70.2971745
  97.6125336  60.3442383  52.3846388  97.9113197  61.1864090  52.0415592
  96.7625141  60.5351353  52.7812004  26.4245895   1.0622520  85.2914238
  26.3901047   1.8691272  84.7776318  25.5815700   1.0300559  85.7436562
  22.4157337  14.5523471  76.1262465  21.9884018  15.2151793  76.6687107
  23.2962326  14.4736880  76.4933538   6.3401845  92.8757668  79.4109964
   6.0601762  92.1594334  79.9808264   5.8281758  92.7593040  78.6106730
  37.8727917  65.3385728   7.6708412  38.8002925  65.5567639   7.7623272
  37.5430016  65.3130906   8.5690689  13.5538200   3.8412398  65.1719809
  13.8127808   4.1677398  66.0337019  13.9185337   2.9571837  65.1312876
 109.5882130  92.7043152  71.7597866 110.2949905  92.0675850  71.6536522
 109.0128136  92.3158360  72.4187469  63.8917308  39.1660206  10.5433559
  63.1583838  39.2273419  11.1554623  64.6402983  38.9263814  11.0896587
  94.8804092  94.9281693  80.1751423  94.2209625  94.5057869  80.7255554
  95.7088757  94.7649956  80.6259823  77.7708769  96.0601616  68.5078669
  77.7279377  95.7585430  67.6004457  78.7001419  96.2327957  68.6591625
  14.3547490  83.0142117  61.8894482  13.5693601  83.3844280  62.2923660
  14.3268541  82.0854759  62.1194363 105.2591610  79.6561050  66.2128258
 105.6954670  78.8096333  66.3095284 105.0194550  79.6976280  65.2870560
  92.9820252  52.0008729   6.2754059  92.5941134  51.7400409   5.4401112
  93.8890744  51.6996814   6.2226868  13.3919048  89.7703403  85.5226803
  13.0257510  88.8862103  85.5008698  13.6649799  89.9388021  84.6208572
  61.7796946  12.2294962  81.4670563  62.5504255  11.9782281  80.9580803
  61.2379026  11.4406276  81.4865112  43.8021135  13.8770020  86.2342358
  43.4456921  12.9904711  86.1771584  43.4426785  14.3292558  85.4710197
  36.2186193  23.4617281  68.4058094  36.7608237  24.1272068  68.8293457
  35.3195763  23.7226105  68.6055422  28.5422421  30.5386186  60.9729815
  29.4714904  30.7522964  61.0570717  28.1765866  31.2582946  60.4585934
 104.1196581  95.2430063  73.1712008 104.1613122  95.6365794  72.2996521
 104.8253556  95.6670552  73.6594677 111.8332406  80.7463461  79.7277355
 111.4169832  81.5545517  79.4281292 112.1576377  80.9545570  80.6038952
  23.7024831 100.5887484  68.5073185  23.9322805 100.0226873  67.7704334
  24.2370223 100.2662146  69.2329025 106.4005419  86.9785958  87.3260021
 106.7020103  86.1417514  87.6796150 107.1654054  87.5514477  87.3812771
  93.5346890  39.5692657   2.0151138  92.9054356  40.2650903   1.8251133
  93.8546515  39.7693382   2.8947830  73.2779031  91.4164287  63.3435822
  73.5857502  90.8528596  64.0534067  72.3980483  91.0948735  63.1468868
  33.5392714   2.0520863  89.2901611  32.9605508   2.8133041  89.3333054
  32.9845023   1.3147202  89.5446301  14.9241971  73.5865456  41.9704199
  14.8492240  73.8951426  42.8734016  15.1687478  74.3654257  41.4706469
  58.1319952   1.9347765  74.8585939  58.6756420   1.1669916  74.6819925
  57.6834345   1.7272188  75.6783152  22.9513072  67.0495015  84.4056702
  22.6024579  67.9399043  84.3642139  23.7278556  67.0702249  83.8464069
  28.3778787   6.6811633  86.7923164  27.8196335   7.1051878  86.1405563
  28.0343318   5.7902062  86.8586922 100.8047029  92.0843905  58.8963413
 100.1218315  91.5741592  59.3317509 101.2596174  92.5330800  59.6090555
  99.0651894  23.1050490   1.9928169  99.4591809  23.7949012   1.4588547
  98.4246016  22.6909660   1.4145279  76.5759731  34.5414244  27.7514935
  75.9610558  34.5463978  28.4850311  76.0675264  34.2018067  27.0150280
  58.1836701  12.4822878   4.1477871  58.2063890  13.0373858   4.9272633
  57.2997285  12.5958799   3.7985325  76.3603190  94.2129868  89.9201870
  75.8703735  94.7861236  89.3305206  77.0061263  93.7859577  89.3573284
  72.0333433   3.8003480  55.3766537  72.1160603   4.7237921  55.6146479
  71.2715197   3.7694675  54.7979450  12.0241498  89.0424698  52.1724415
  11.7595624  89.9607628  52.2268915  12.3705386  88.8410717  53.0417442
  35.8126783   2.4231067  75.4705715  35.0440216   2.7503276  75.0033140
  35.4658580   1.7598900  76.0673046   2.6978444  99.0404516  60.7806110
   3.6524343  99.1108227  60.7864904   2.4766635  98.8592303  59.8671150
  98.9019700  86.6217714  75.9609652  99.0133234  85.6825822  76.1084652
  98.9129277  87.0049220  76.8380690  58.9233566  68.0060016  21.4547157
  58.8469888  67.0527040  21.4950180  58.0690337  68.3271311  21.7432308
  65.8532143  60.6243669  11.5850353  65.5035282  60.7692580  10.7058525
  65.3058959  59.9284141  11.9487953  16.3489747  16.5685141  66.1707306
  16.5475082  16.8241537  65.2699184  17.2058523  16.4606404  66.5834761
  70.4801035   9.6419603  58.9537668  70.5690002   9.7701943  59.8981667
  69.6180773  10.0009739  58.7434053  99.1357756  25.1310919  22.6595783
 100.0919772  25.1734875  22.6492405  98.9346314  24.4035624  23.2481956
  19.4045520   8.6284584  61.3437939  20.3315639   8.8125563  61.4954185
  19.0041101   9.4907832  61.2330055 105.0627185  14.0775560  27.7722836
 104.2284108  13.6392616  27.6047707 104.9673987  14.9380921  27.3640919
  45.5753756   3.4607857  64.5141220  44.9771547   3.7365210  65.2086258
  45.3820467   4.0488392  63.7840223  21.7528367  10.4250872  24.6445680
  21.4392781   9.7693801  24.0217018  22.3468137  10.9754932  24.1341996
  62.4774265   3.6671853  66.2826872  63.0879927   3.7336835  67.0168638
  63.0260944   3.4276387  65.5358219  18.9460658  95.2706867  55.8950996
  19.4848584  95.0906020  55.1247072  18.2887315  95.8946204  55.5871153
  36.0768509  10.0352192  87.4989414  35.7274222   9.1691160  87.2891808
  36.6557574   9.8853523  88.2463551  72.4349523  36.1979853  17.4277210
  72.9329491  35.5096887  17.8687191  71.7165948  36.3962256  18.0284691
  30.7255411  14.0008867  54.3615150  30.0807881  13.4629416  54.8210144
  31.5526581  13.8155985  54.8062420  54.3226528  11.4269757  45.2803183
  54.0000010  10.9885609  46.0676670  54.0523577  12.3390889  45.3862572
  96.8839570 104.6189441  59.2201805  96.4828178 104.4299012  58.3718967
  96.5018316 103.9736154  59.8149586  92.1467694 100.5392200  76.6376305
  92.8562387  99.9238276  76.8225002  92.0455381 101.0385048  77.4479961
  98.8002273  74.7198969  28.9465332  99.0240475  75.6143337  29.2036653
  97.8431913  74.7023660  28.9489579  55.8483076   2.0487268  73.5387707
  56.7368889   2.0689425  73.8940811  55.2823162   2.1597224  74.3026876
  31.2329292  75.6623035  78.6174536  31.8717288  75.0969535  78.1832361
  31.7566394  76.3676005  78.9976025  14.7658598  19.3449676  64.1343784
  15.3236866  18.5727584  64.2279482  15.0614142  19.7569835  63.3225155
  45.9432411   1.5402339  30.1384115  45.3647947   2.2062390  29.7668290
  45.5234575   0.7086211  29.9183297 100.8395287 101.3651481  24.5085812
 101.1204096 101.3391158  23.5938907 101.2198874 100.5780133  24.8984241
  41.4683723   6.1889076  61.7629671  40.7549143   6.4077592  62.3623943
  41.1550379   5.4187334  61.2887478  99.1859580  27.7216695   2.0484638
  99.3951512  27.4770449   1.1470032  99.2942000  28.6724876   2.0698833
  49.7000647   6.9612330  87.0050716  48.9527225   7.5568396  86.9506168
  50.4524136   7.5339496  87.1540833  91.1894131  45.1202099   0.7890224
  91.9581271  45.0266658   0.2263832  91.4138318  45.8355044   1.3841820
  62.6946163  10.6686103  57.7209616  62.8527451  11.5132439  57.2992706
  63.5685825  10.3068912  57.8678417  44.4322109  16.2855268  70.9563351
  45.1012468  16.9199002  70.6990576  44.2367649  15.8041966  70.1523733
  74.3400026  67.8337597   6.3224983  74.8173452  67.1171008   6.7405605
  74.2878366  67.5811826   5.4007053  65.9956264  32.0084167  90.6101894
  65.2496862  32.4816871  90.2416515  66.1580086  32.4350786  91.4515114
  52.2584771  84.1132051  70.3609467  51.4464902  84.2083841  70.8587980
  52.2674608  84.8669487  69.7710133  64.7320271   4.7147119  88.3022594
  65.1748800   4.5732623  87.4655342  64.1449213   3.9641035  88.3924103
  22.3765992  99.2454153  80.8119202  22.3851203  98.4111929  80.3426266
  21.4646148  99.3608129  81.0787582  99.4147273  91.6501707  81.9785309
  99.6291395  92.3628539  82.5804806  98.7161823  91.1664015  82.4192429
  31.3200616  80.2133518  67.3490715  30.6011867  79.5817238  67.3714352
  31.1415481  80.7521993  66.5783501  62.0716429  22.8911519  55.3659678
  63.0113649  22.9008889  55.1841450  61.6672325  23.1939363  54.5529461
   9.5551824  76.7748004  44.5586109   8.7941837  76.7011839  43.9826822
   9.3667793  77.5353604  45.1084137  50.8674335  27.8328109  33.8657880
  50.5237770  27.0644426  34.3215775  50.4745197  28.5772395  34.3215060
  94.8858162  64.0643340  20.8363461  95.2290245  64.9535972  20.9237790
  94.0396818  64.1757041  20.4028893 107.7382656  78.3198672  64.3550539
 108.4237953  78.3511287  63.6877441 107.2406741  77.5282031  64.1503525
  26.2859058 104.8751522  83.5271168  25.8353519 105.3846297  82.8535748
  26.1289882 103.9631140  83.2825851  81.8914904  82.3020488  59.4360876
  81.0541429  82.1153050  59.0115786  81.9349089  83.2576567  59.4701290
  17.4713516  84.6907550  58.3731318  16.5945815  84.3479329  58.5462618
  17.5075959  84.7861653  57.4213886   7.2480296  97.7201462  68.9088774
   7.1884059  98.4812420  69.4862938   7.9280233  97.1734947  69.3025875
  44.3542051  31.6907477  90.9524632  44.0580750  30.8441353  90.6181145
  45.3032923  31.6784501  90.8286858  27.0848464  94.1183358  65.2124596
  26.3463401  94.0421563  65.8166409  27.7402543  93.5121268  65.5576944
  48.6715603  29.9608588  32.2749853  49.0269613  30.2208853  33.1248736
  47.9681969  29.3472457  32.4870968  38.4534406  80.0425130  74.3851233
  38.6130761  79.1517883  74.6971464  39.1770362  80.5555898  74.7448397
  10.8259677  99.4677090  41.1657095  10.9903144  99.8232144  42.0391178
   9.9267720  99.7283351  40.9663343  84.3382778 100.1316458  35.1824093
  85.0321015  99.8366385  35.7721663  83.8487884 100.7770592  35.6923842
  71.4978313  22.5799036  50.7205057  71.9300508  22.5543666  49.8668289
  71.6009092  21.6938877  51.0677528  70.6350899  22.5445056  78.9911461
  70.1506090  22.5064564  78.1664848  70.5722332  23.4598851  79.2638445
  10.6205892  82.8083163  39.8203325   9.9444007  83.0809360  40.4405594
  11.3131522  82.4388605  40.3681421  37.0315909  40.4204798  56.7957258
  37.4143839  40.0885344  57.6078320  36.6054583  41.2393236  57.0489836
   5.8265685 100.7874760  66.4505100   4.8878526 100.8395073  66.2706852
   6.0492419 101.6456514  66.8113184   7.5947765  48.4122880   2.8507900
   7.5879387  49.1153537   3.5003185   8.5222439  48.2124718   2.7238750
  53.8379240   0.7418368  66.3326883  52.9379797   0.5883148  66.0450029
  54.1190863   1.5121749  65.8389711  81.1491963  92.0642024  51.3820028
  81.5839043  92.3369640  52.1899986  80.5098804  92.7552563  51.2089348
  47.5758696  21.6909099  50.0390768  46.6947651  21.6241479  50.4070807
  47.5187159  22.4097967  49.4096613  98.2921024  78.1519919  83.5079098
  97.9281708  78.1650215  84.3931293  97.5313755  78.2470709  82.9347706
  19.2866897  73.7276417  64.0541792  20.0827741  74.2132359  63.8381243
  19.1753816  73.1146604  63.3274746  35.1405978   2.0547535  69.4459629
  34.9799347   2.6736385  68.7336445  35.6840324   1.3722014  69.0522242
  31.3571452  99.9676913  75.7218933  30.4671811  99.6288377  75.6251049
  31.2389135 100.8701402  76.0182714   2.8981446  84.9969035  50.7400513
   3.1115627  84.9265510  51.6705036   2.0466828  85.4338509  50.7219982
  61.0868454   4.7547406  69.7694206  60.6371260   3.9824122  69.4266510
  61.2276220   5.3099728  69.0025234  68.0416442  34.8472785   6.5602970
  67.3934842  35.5512689   6.5375519  67.5393821  34.0532766   6.3771915
  33.2963872   0.5936576  74.8068810  33.5809088   0.3816439  73.9178753
  33.9741611   0.2207537  75.3706121   6.0030793  93.9535027  82.6456261
   6.7789983  93.4325725  82.4387169   6.3054179  94.5844942  83.2988262
  77.3932696  37.8463315   0.8409595  78.0642939  38.2941114   0.3257370
  77.8315497  37.6220785   1.6618443  15.9884071  33.5484362  49.4820786
  15.9155321  32.8629661  50.1461983  15.9107113  34.3665957  49.9728060
   7.6831340  98.7674504  81.1821079   7.0229387  98.0873251  81.3155556
   7.2078418  99.4830620  80.7599354  13.9771699  99.0873956  51.2226868
  14.5310783  98.3598125  50.9397697  13.1935691  99.0179914  50.6773520
  98.3373690  93.8236593  11.9990540  99.0647746  94.0252708  11.4104462
  97.5918723  93.6767124  11.4169312   3.5509300  98.0344867  78.2783937
   4.4784497  97.8610849  78.1175375   3.2905292  98.6219150  77.5689220
 106.5232416  89.4570261  80.7848644 106.0707446  89.8617607  80.0448227
 105.8841892  88.8456744  81.1510563  65.3875065  14.5810580  81.8162823
  65.4503202  14.5669055  82.7713203  65.7057571  13.7208164  81.5425491
  30.0943565  88.1739503  56.5936375  30.2987432  88.2098657  57.5280714
  30.2782678  87.2686785  56.3428593   2.1265005 105.2544982  62.4808359
   3.0596542 105.4597861  62.4232531   2.0561265 104.6691277  63.2349062
   3.9237737 102.7204278  79.4732285   3.5833310 102.4855289  78.6100054
   4.2834901 101.9036466  79.8192120  24.4632529  80.2689033  58.7141848
  24.0025758  80.7504612  59.4012833  23.8286781  79.6201759  58.4097195
  38.0751157  10.0438333  57.0344448  37.2792053  10.2225292  57.5352669
  37.7694178   9.9162012  56.1363983  89.7123146  15.6980050  65.2760315
  90.3850460  16.0108364  64.6712255  89.5314312  16.4484286  65.8420515
  45.0824022  18.7412405  60.2908516  45.7451010  18.5909832  59.6166897
  45.4560852  18.3569574  61.0838938  16.9747733  95.5116623  48.5143375
  16.4599418  94.7111827  48.4123039  17.3870563  95.6417644  47.6603317
  25.6266450  95.7946837  37.7564669  25.1045369  94.9945670  37.6977491
  25.5193137  96.0847783  38.6623120  99.7681733  91.9194060  49.2141438
  99.0730520  91.4078468  48.8002014 100.0336834  91.3953072  49.9698257
  20.8894824  94.9249345  73.1795883  21.6299485  94.8365789  72.5794792
  20.6077241  94.0254777  73.3463955  17.5232148   6.8010104  23.7558889
  16.7225230   6.6234648  24.2494488  17.8256607   7.6469219  24.0863323
  94.3295237  81.7590195  80.5089092  94.8611399  82.4453336  80.1056862
  93.8617059  81.3572293  79.7768259  21.4345836  96.7705440  68.9453745
  21.2392711  96.8219727  68.0097246  22.3166227  97.1334481  69.0262270
  60.3973103  28.5183263  75.1067638  61.1651802  28.0455589  75.4278612
  59.7477484  28.4211588  75.8030796  82.4834885  97.5900596  64.0180492
  82.9369249  96.7544740  63.9065838  82.4380233  97.7132827  64.9661922
  43.5927819  86.7535668  77.6646376  43.1935548  85.8966940  77.8150225
  43.2266187  87.0451909  76.8297052  63.4265566  26.5084505  47.5583792
  63.9350653  25.9729481  48.1673861  64.0723991  26.8409204  46.9350100
  62.4065876  22.5331187  33.3752704  62.3517132  21.6357112  33.7037182
  62.2943974  23.0800200  34.1527939  16.8613099  80.2869469  68.7334967
  16.6066074  81.0182410  68.1708574  16.5314817  79.5105344  68.2811403
  56.6496170  28.8682316  16.4215469  57.2120167  28.1785678  16.7741108
  57.2292043  29.3891333  15.8656979  56.8771648   1.3118847  53.5859299
  57.3342514   1.0323471  54.3791246  56.7603445   0.5073338  53.0806732
  31.6577052 101.4796981  27.9780316  31.4195632 102.3200810  28.3695364
  31.9041251 101.6957032  27.0786691  96.1074782  19.0438245   2.6121521
  96.3942624  18.3766340   1.9885731  96.8612290  19.1735004   3.1877136
  10.3072213  90.2624899  29.5046639  10.9327220  90.6658548  30.1065588
   9.4493341  90.4837185  29.8670411  35.1015090  81.3079816  55.8685923
  35.4275226  80.7381779  55.1719761  35.8911943  81.6601091  56.2792444
  33.6418247  70.4940301  78.1980944  34.5683717  70.2636581  78.2664204
  33.6420488  71.3909799  77.8638601   6.1013412  97.9600847  77.7074337
   6.4271259  98.7332165  78.1682634   6.8882417  97.5359326  77.3652220
   5.5075311 101.2889820  72.4847651   5.5964517 102.1876031  72.8022623
   5.9477710 100.7562884  73.1470776  32.3069000   0.3142823  90.8431721
  32.0406342   0.6455245  91.7008495  31.6697145  -0.3713559  90.6428528
  24.3626308  10.5851114  81.5374660  23.9372969  11.3867295  81.8419743
  23.8074446  10.2765632  80.8213615  50.9973049  23.8950062  60.3157043
  51.8292999  23.4425306  60.1768637  50.4403830  23.5985279  59.5958614
  83.4318638   5.5168426  67.1766901  83.1688786   5.2455258  68.0561590
  82.7883244   6.1804676  66.9283104   2.2198319  97.5820434  66.1158180
   2.9702234  98.1366235  66.3293314   1.9876003  97.8276515  65.2202892
  35.3025794  40.6185436  88.5089397  35.7326245  41.2455654  87.9274464
  34.9813414  41.1492538  89.2378902   7.6422166  95.0054472  80.2748108
   6.7980289  95.1863223  80.6881618   7.5665139  94.1047853  79.9596739
  58.3369160   4.8967639  79.7540855  58.7452698   4.6827847  78.9152193
  57.6767969   4.2151174  79.8799133   3.5062837  82.7791887  67.8452730
   3.3100986  83.2787662  67.0527029   4.3561458  82.3753220  67.6695967
 105.4754087  80.6086761  62.2946644 105.9309574  81.0334950  63.0214643
 105.3115364  81.3145977  61.6693211  28.8788652  22.8585362  50.2368069
  28.4411883  22.8072429  51.0865355  28.2956481  22.3916173  49.6384144
  45.5629969  11.4661288  60.9952641  45.5228281  11.8034923  60.1003838
  45.7332706  10.5299950  60.8908939  38.5867500  43.5009909  80.6855011
  38.7337518  42.5585175  80.6057262  37.9338431  43.5835695  81.3805771
  31.7841005  96.7221248  66.1028719  32.2293901  96.6443079  66.9466114
  32.4402093  97.1044689  65.5201483  31.6258335  11.1128759  84.0160847
  31.6672611  10.8350563  84.9311447  31.2417006  11.9890010  84.0489292
  24.2904949  64.9374866  55.5027246  23.7935400  65.7056284  55.7841969
  23.9491248  64.7375631  54.6311045  58.9015055  24.9918532  72.5208950
  59.7240877  25.3479147  72.1850204  59.0993643  24.0761518  72.7173042
  49.8698711  10.2456188  81.1727047  50.0459337  11.1690569  80.9924412
  48.9274883  10.2089822  81.3364220  73.8788795  32.9258084  63.6312914
  74.7230387  32.8289413  63.1905556  73.2341719  32.8889203  62.9247332
  75.5257393  44.7788255   6.3986111  76.3154507  44.4433288   5.9743118
  75.4398418  45.6741505   6.0711193  95.4090882  36.4655756  21.0345459
  95.8963013  36.5798079  21.8505192  95.9034634  36.9692145  20.3878880
  59.1650867  12.2465217  82.7892017  59.8584747  11.8292344  82.2780132
  58.8839722  12.9870951  82.2518444  79.7146845  25.0617266  72.5896502
  79.6539974  24.7207427  71.6973066  78.8847589  25.5179358  72.7286863
   2.2971749 103.4482519  75.1151037   1.8156170 103.0118416  74.4123363
   2.5572681 104.2898280  74.7404909  14.3586421   6.4652568  71.5826750
  13.6459279   6.9397438  72.0106173  14.0482092   6.3221675  70.6885910
  60.7244730  13.8089132  57.6370192  60.0006962  14.2647922  57.2074175
  60.4543257  12.8907382  57.6514721  70.2332258   3.9759547  65.9136009
  69.6782684   4.1117167  66.6815996  70.7289028   3.1818980  66.1136293
  57.1366405  12.7734530  47.4559498  56.3255548  12.9358065  47.9376316
  56.9582987  13.0937409  46.5717316  41.8189955   3.5529754  18.6211491
  41.3123274   4.1394621  18.0594087  41.2582016   3.4073782  19.3830812
  43.2049751  10.6935322  64.9786282  43.9923239  10.6299412  65.5192471
  42.6694965  11.3577616  65.4125500  18.0963743   5.5504501  89.6849823
  18.4747458   6.2832755  89.1991520  17.6111221   5.9621745  90.3999996
  11.6124200  93.6489361  84.8946953  11.7455148  93.9644819  84.0008545
  12.4523114  93.2601982  85.1390076  14.4895601  71.0101372  41.9410515
  14.6886682  71.9419294  42.0324278  13.6590671  70.9881788  41.4656258
  81.8456601  70.2871161  78.7672424  82.5789975  69.9686318  78.2409239
  81.5970849  69.5385080  79.3094921  62.8910446   5.2724397  32.5169659
  62.7216434   5.0706053  33.4371829  63.3252907   6.1252838  32.5348234
  53.1127883  63.7852238   8.2911301  53.7243808  63.3906506   7.6694393
  52.4370397  64.1833733   7.7424335  22.9922843   3.7386486  71.9664764
  22.9407263   3.7179634  71.0108900  23.9230919   3.8604587  72.1535349
  42.1438122  36.5712476  38.4278703  41.8792439  35.6542158  38.3551407
  42.9826784  36.5427375  38.8880038  28.4856749  17.0119858  45.3358507
  29.2568922  16.8862128  44.7830105  28.2905698  16.1391616  45.6769466
  33.3703756  13.0859864  65.5090046  33.4400988  13.9521790  65.9103537
  33.1924033  12.4961877  66.2415981  45.3904867   2.5497365  55.3763151
  45.5822897   1.7109683  54.9568987  45.6167078   2.4146526  56.2965345
  38.6618662  24.3195248  72.2720909  37.7925634  24.5320654  72.6117516
  39.1675258  24.0719318  73.0461979  88.6534405   6.2748873  73.9423275
  89.0102386   6.6547024  74.7452402  88.0140877   5.6303972  74.2457771
   4.9175548  99.2908948  49.4780302   5.7851838  98.8882458  49.4415760
   5.0641727 100.1998943  49.2163897  65.8733082  28.6506534  77.7368641
  66.1327744  28.8070536  76.8288708  64.9267483  28.7928462  77.7433538
  58.7683535  19.7662365  77.1328831  57.8954268  19.6548545  76.7562866
  59.3479919  19.2888689  76.5392780  88.8027526  79.5140146   1.5767002
  89.7539521  79.6165227   1.6074944  88.6447097  78.9773391   0.8000183
 109.9366542  84.1814857  89.9082470 110.3392979  83.6064464  89.2575264
 110.6474777  84.7559696  90.1927376  39.0706873   7.2904277  57.9969597
  39.5012450   8.1341612  57.8592491  38.9023638   7.2583067  58.9386988
  82.3795319  68.5177683  20.3857708  82.5258351  67.5750171  20.3079987
  83.2310105  68.8719271  20.6422710  27.9415512  24.8616862  54.0515423
  27.1201348  25.3309488  54.1974735  28.5730028  25.3013897  54.6208954
  30.3374767  94.3567675  69.3693113  30.9888410  93.8697332  68.8645744
  29.5368671  93.8380116  69.2909050  15.7324409  94.7111433  69.3699360
  16.6270971  94.7344190  69.7094631  15.5547046  93.7815493  69.2267704
   9.8793601  88.6331242  46.6658163   9.5661639  87.9754883  47.2868252
  10.6699657  88.9885908  47.0718002  66.4912891  13.0237818  68.1953764
  67.0305395  13.6556256  68.6709976  65.5975437  13.2045341  68.4865475
  42.6200771  24.2349577  64.4254732  43.2255697  23.6054397  64.0339136
  42.1101809  24.5680213  63.6870241  33.3114862  72.2202450  60.0862217
  33.0244111  71.3252669  59.9050236  33.6465167  72.5386530  59.2480087
  11.3127660  76.8158489  75.5964041  12.0689868  76.9017058  75.0158930
  10.7831382  77.5925594  75.4162741  23.1497291  88.0481576   2.9207993
  22.3195938  87.9488872   2.4546814  22.9474739  87.8058003   3.8244534
  18.3322096  27.4383712  58.8536406  17.8150392  26.6550517  59.0411949
  19.1783607  27.1017861  58.5587358   1.5499186  96.0804182  78.3177710
   2.2819876  96.6962123  78.3510113   1.9456004  95.2279275  78.4992313
  53.2745218   2.2300370  60.3057003  53.4880352   2.1161686  61.2318087
  54.1157436   2.1557829  59.8550749  25.0051307 100.7712111  77.1200371
  25.7845115 101.0750976  76.6547918  24.4145726 101.5245059  77.1155405
  67.1658707  22.5023580  50.5309153  67.8139019  21.8409324  50.2884245
  66.3481808  22.1897888  50.1437283  23.8130759  82.6429063  61.7974281
  23.8984584  82.9361373  60.8902597  22.8763866  82.4808651  61.9096136
  68.0397129  10.9973776  61.7687988  67.6667929  11.8614495  61.9435692
  67.2895145  10.4033709  61.7930555  27.4467849  86.6123169  61.0443211
  26.6169309  86.2896722  60.6929350  27.6205682  87.4136930  60.5505323
  41.2740278  16.7990589  53.9867687  40.9166813  16.8814874  54.8709297
  40.9649467  15.9459043  53.6820889  49.8055553  16.6902518  68.3392811
  50.1459074  15.8043134  68.2147598  48.8902807  16.6360402  68.0643940
  43.8878584  37.5539422  81.7274189  44.2675734  37.8205109  82.5646687
  44.6331072  37.2391129  81.2158394  42.9199743   6.5955693  85.2754021
  43.1661224   7.5182003  85.2091122  42.5469780   6.5096360  86.1527443
  84.9129725  36.5391301  15.5546284  84.3563748  35.7610189  15.5234337
  85.5656005  36.3943933  14.8695374  16.7962269  63.0017327   4.2414093
  16.9557766  62.5547646   5.0726700  15.8429626  63.0659233   4.1831017
  67.0535732  58.0352901  10.2196693  67.6782680  57.5180666  10.7280636
  66.8832398  58.8056164  10.7617188  73.2567596  14.0232027  64.9045992
  73.5970449  13.3160567  65.4526711  72.6152897  14.4680548  65.4585409
  28.4372424  66.4300567  64.1981983  28.7013625  67.1927911  64.7126961
  29.2529725  66.1026174  63.8192558  54.5036364  13.5004854  66.5056419
  54.6412945  14.3568039  66.9106150  54.3689585  12.9055512  67.2433043
  18.0076312  90.3923374  66.1328030  17.5676727  90.9780246  65.5166531
  18.9370059  90.4737407  65.9186459   4.0522813 100.9487909  87.8090382
   4.2342948 101.8601128  87.5797081   4.2734575 100.4544294  87.0197868
  44.4412804  31.5283608  44.6040678  44.6652222  31.9099545  45.4528713
  45.2556753  31.5654063  44.1024542  43.4845304   5.8965576   7.0127630
  43.3525038   6.8176371   6.7882365  44.0163088   5.5493081   6.2966168
  26.4138031  34.8738027  77.8799486  26.1489987  35.4488587  77.1620226
  26.1944008  33.9933991  77.5750160  81.5877295  76.9226764  22.7689075
  82.3959113  76.4778637  23.0242825  80.9060097  76.4987825  23.2902527
  43.7261819  81.2617832  59.0253210  43.8732290  82.1005922  59.4623661
  42.9834317  80.8764678  59.4901800   0.5346154  97.6338404  43.1961966
   1.0319661  97.6821720  42.3797798   0.2046012  96.7357236  43.2227993
  99.5405818  63.2422553   1.7015171  99.7268391  63.6448966   2.5497055
  99.1422272  63.9434193   1.1858463  22.6878881  78.6701327  69.9169922
  22.9121970  79.5069009  69.5098877  22.1247100  78.9057976  70.6542301
  48.4194993  98.6277002  61.7946529  47.8231286  97.8803986  61.8406820
  47.8994893  99.3248355  61.3948631  54.6510363  11.5300512  35.1372600
  54.7728205  11.9267392  34.2746830  55.2200937  12.0369029  35.7164836
  11.8031835  89.2233461  60.8865833  11.6689157  89.7240847  60.0819349
  12.7326631  89.3352419  61.0860395  35.3562140  27.5195360  59.5909691
  35.0788856  28.1451297  58.9216757  35.3077435  28.0096722  60.4117298
  36.7888211  91.5680188  75.0154924  37.5773429  91.7877453  74.5193243
  36.9197606  91.9815451  75.8687687  54.7355986  21.5871096  53.4921932
  54.0256548  21.7612362  52.8742170  55.4842329  22.0673680  53.1384563
  16.5003347  99.1724592  68.7391758  16.1961650  98.5688829  69.4169712
  17.4514627  99.1918933  68.8450623  47.9186010  29.4652128  65.4421854
  46.9767809  29.4276547  65.2754879  48.2538080  28.6318803  65.1113939
  44.7535610  13.2180572  79.5955276  45.4348040  13.7846100  79.9576855
  43.9996433  13.3529234  80.1696777  31.0966873  15.0120914  73.0228758
  31.6595268  14.8027730  73.7682819  31.3294888  14.3643999  72.3576450
  82.2094441  36.8507038  19.4486618  82.6220656  37.6285444  19.0732384
  82.6403666  36.1163198  19.0113735  93.3294345  69.2354058  10.8528709
  93.1985522  70.1675700  11.0265732  92.4765969  68.9267348  10.5468941
  87.2334862  30.7417129   3.6326885  86.9569255  29.8472713   3.8319969
  88.1156493  30.8067702   3.9984608  61.6676283   6.2203330  67.2785473
  60.8841324   6.1698949  66.7309809  62.1030569   5.3773755  67.1518373
  65.4318643  55.0949735   6.3248634  66.2005997  54.6970083   5.9163284
  65.3634167  55.9580039   5.9165478  36.7279458  22.7962923  50.0241280
  36.5553689  22.5345278  49.1197348  37.3045993  22.1127582  50.3654242
  39.6131659  28.4855413  85.8872128  38.9539433  27.9220772  86.2923908
  40.4439783  28.0404305  86.0541248  67.8051710  26.3907790  81.7688084
  67.6332045  26.7663956  82.6322746  67.7732182  27.1382737  81.1717606
  43.1442356  22.4688721  27.1181536  42.9792881  23.2951450  27.5723529
  42.3104477  22.2551489  26.6993999  55.3712702  13.4722078  39.5406890
  54.7635365  12.7450800  39.6755075  55.0347376  13.9254546  38.7676787
  83.7153530   3.1437704  39.6362877  84.1172791   2.4969438  40.2162027
  84.3529224   3.8564765  39.5940065  90.7893582 100.9966406  27.1385860
  90.8628961 101.8522262  26.7157412  89.9700829 101.0426742  27.6314354
  92.3735476  46.4293669  12.7104568  91.9974089  45.5503623  12.6646042
  92.4900866  46.6880094  11.7962646  84.0793992  78.6034392   6.7669964
  83.5326768  78.7957214   6.0051823  84.9134112  78.3146547   6.3965034
   9.3978643 104.2123238  63.3582020   8.6736011 103.6408573  63.6133480
  10.1620960 103.8421723  63.7999773  37.4896955  82.4121934  52.6337671
  36.7151975  81.9091564  52.3820925  37.6141071  83.0347806  51.9174290
  32.7419857  28.4692119   2.4325466  32.7307609  28.7501381   1.5175629
  31.8861202  28.0628179   2.5688267  62.3365068  92.6503104  69.6262264
  62.6464128  92.5379091  70.5248642  61.4462613  92.2986775  69.6341419
  57.3838520  21.9410563  86.2541866  57.4604750  22.0111489  85.3026390
  57.9506540  22.6345611  86.5918446  93.7971354  65.7446395  28.7746716
  94.3564130  65.8023070  28.0000019  93.0168439  66.2491797  28.5448456
 107.3026086  90.3643893   1.5852833 107.4262954  90.9170793   2.3569489
 107.5999118  90.9049200   0.8533859  89.7523261  48.6177670  17.4938679
  89.4236947  47.7217715  17.4202156  89.1131116  49.1472759  17.0171452
  57.0496416   5.4792398  68.0191755  56.1557961   5.8215976  68.0108976
  57.6048613   6.2586504  67.9972363  70.3023671  91.8336075  89.7813797
  70.3090715  91.8088418  88.8245201  69.6622323  91.1681872  90.0337124
  48.2435942  16.5344632  48.8185024  48.0191898  15.6346595  49.0556335
  47.9080153  16.6382861  47.9280853  53.3855534  43.6672974  56.5710783
  53.8631630  43.5846233  55.7456779  52.9064178  42.8428221  56.6541719
  38.0855703  15.0146532  47.0278931  37.5989318  15.2525926  47.8170681
  38.0116510  15.7819760  46.4604568  45.0767469 104.0173121  59.9595499
  44.2647599 103.6016920  59.6694517  44.7977018 104.6564743  60.6151724
  52.0566702  30.5349398  78.6889553  52.8803873  30.7620358  78.2575083
  52.1160746  29.5911169  78.8369513  68.7027454  19.3761659  67.6758623
  67.9950142  18.8127649  67.9888058  69.4754505  19.0794742  68.1566238
  54.0631104   1.9757152  87.6571941  53.9971447   1.0208425  87.6671314
  54.8500204   2.1667589  88.1675911  80.3350067  10.6545639  45.2393198
  81.1880589  11.0343134  45.0288153  80.0181484  10.3017235  44.4078541
  35.6949830  15.0551677  57.3404217  36.5045619  14.5740473  57.1691465
  35.8366680  15.4665864  58.1930017  73.9414740  20.9569335  50.7403517
  73.8708925  20.5508590  51.6042709  74.8122597  20.7091069  50.4296350
  47.9093504   1.7613293  47.5104856  48.5900593   1.4435437  48.1036806
  48.1091738   2.6899311  47.3921633  38.0140113  87.7529865  63.0111885
  38.3342170  88.6440056  63.1518602  37.7424525  87.4561530  63.8797331
  23.5242466  75.3325962   1.3317680  22.6742367  74.9139832   1.1958790
  23.3769897  76.2517117   1.1086750  14.7001660  18.4142375  75.0171900
  13.7927711  18.6097932  75.2509069  14.8443842  17.5248528  75.3403425
  17.0310831  29.5911479  49.6489096  16.6514397  28.7225723  49.7818661
  16.5210247  30.1654673  50.2200747  47.5971460  36.6537452  60.3616047
  47.6739120  36.4718914  59.4249773  46.7046976  36.9826078  60.4693842
  21.0441350  85.7346934  89.3549347  21.8554544  86.1820882  89.1144562
  21.2042999  84.8159390  89.1393566  82.6981068  58.1318699   1.6837978
  82.3781253  58.3801370   0.8165073  82.2456218  57.3115729   1.8802643
  14.9578237 100.8652764  12.4191701  14.9591731  99.9254137  12.2378206
  14.0543842 101.0597923  12.6685500  96.4330482  20.3210330  46.4084959
  96.5455055  21.0636735  47.0018530  96.2328148  19.5828342  46.9839954
  71.0773087  16.0383499  82.4642849  71.7304134  15.9157419  83.1532383
  70.3465414  16.4749825  82.9019642  64.5432568  13.5358870  49.3721199
  63.9340019  13.7220883  48.6577177  63.9925718  13.1816912  50.0703478
  56.9286776  35.2362657  72.6137066  56.7964888  34.2882729  72.6218414
  57.6328278  35.3744817  71.9802237  43.5279850  94.8273109   2.0297718
  43.5664562  94.3566106   2.8623486  42.6575092  95.2253078   2.0196438
  58.3018208  29.9371791  59.0470695  58.8614416  29.3237853  58.5708284
  57.9091835  29.4115710  59.7440672  60.1731443   8.2149374  71.0036469
  59.6832848   8.6765981  70.3231049  59.5368004   7.6137114  71.3907194
  38.6120677   4.3649945  28.0233669  37.8281784   3.9500761  27.6633763
  39.2012882   3.6360162  28.2173824  10.1726913  94.2605608  77.6217270
   9.7176599  94.7611850  78.2988882  11.0092782  94.7124022  77.5112820
  50.9309149  46.5572596  73.0391121  51.2784481  46.8860865  72.2100592
  50.0154257  46.3513041  72.8501892 108.5833693  71.2480675   8.0000877
 109.4123078  71.3954054   8.4554863 108.7205935  70.4380177   7.5089455
  37.1152734  93.4699684  77.2350597  37.9829311  93.6092287  77.6145506
  36.5192746  93.9332849  77.8235769  94.6184349  31.8886042  72.0868635
  94.2599201  32.1761417  71.2472105  95.3453445  31.3118243  71.8520069
  78.3140278  15.4948568  85.5695438  78.9612198  14.8590183  85.8746433
  78.6065340  15.7307172  84.6891785  18.3138645  34.3626642  59.5222998
  18.8754821  33.6865234  59.1432810  17.8230011  34.7111773  58.7781048
  53.8919783   0.7829728  81.8008232  53.7755013   1.4980085  82.4264336
  53.0044413   0.4687750  81.6282272  76.6168165  20.6451440  50.4268885
  76.9903564  19.7645521  50.4623270  77.3511934  21.2070513  50.1795292
  85.2291393  24.4695854  81.4835548  84.8440742  23.9299750  82.1740437
  86.0392380  24.8063064  81.8664360  82.8307533   0.4554365  53.5735655
  82.5173569  -0.3076851  53.0881166  83.7268257   0.2292974  53.8228369
  78.3945274  22.4793911  77.2483015  78.6638403  21.6153264  76.9367075
  78.7424898  23.0881453  76.5967083  81.8680477  50.4000664  83.3804226
  82.7540112  50.1246738  83.6159229  81.9951534  51.1818981  82.8430080
  64.2852545  19.1787374  50.9069347  63.9012289  19.4869888  51.7277479
  63.7999010  18.3799505  50.7005262 106.5791418   5.6757825   9.3453884
 105.7007600   5.3109257   9.4529057 106.9281675   5.7260840  10.2352715
  67.9651500  61.0702317  13.3801651  67.9075242  61.9512253  13.7499809
  67.1608973  60.9712790  12.8706360  43.5592222  46.6870499  59.8084688
  44.2946529  47.2533512  59.5746469  43.0370140  47.2111416  60.4158020
  85.2013922  82.3260234  18.7698746  85.4725838  82.0631336  17.8903389
  84.5153094  81.7015766  19.0056324  71.8570232  57.6309729  79.1754436
  72.0662594  58.5414505  78.9669323  70.9276104  57.5442266  78.9635372
  46.8234062  40.3912354  57.5745344  47.4945307  40.5890083  58.2277632
  47.3104572  40.2726316  56.7590904  95.7348633   2.0336159  72.4611568
  96.4940643   1.4533238  72.4053383  95.1979828   1.6591115  73.1595373
   3.6433271 103.7057184   2.0125580   3.9618544 104.5218681   2.3981380
   3.9538292 103.7312244   1.1074829  56.2283850  18.6694813  67.2446537
  56.2247992  19.5421183  67.6380062  57.1449184  18.3954644  67.2780704
  42.2521257  95.6910091  71.4153910  41.6015815  95.5027783  70.7389307
  42.8889322  96.2603593  70.9834719  72.9704094  12.8568959  48.6056137
  73.7552071  13.1597984  48.1489086  72.2511721  13.3262515  48.1829691
  72.3704673 102.6156210  14.7802353  71.4138056 102.6206897  14.8119450
  72.6317240 103.3674787  15.3119183  63.1689835  15.9934592  72.7634144
  63.7436771  16.1641872  73.5096121  63.5011482  15.1785600  72.3867989
  70.4792500  10.7062137  83.4767628  69.7338581  11.3014841  83.3975124
  71.1888075  11.1473966  83.0097294  46.4891529  29.6003485  41.0146666
  46.5590668  28.7619042  41.4711285  46.3125753  30.2364230  41.7078209
  29.5749997  79.9511128  64.4916725  28.9273690  79.5804959  63.8921261
  29.2545366  80.8344155  64.6742010  52.4037027 102.2623121  60.5224562
  52.6348638 101.7250782  61.2801981  51.4494752 102.2067490  60.4716063
  34.0176249  11.3825393  82.8248978  33.4637213  11.8238962  82.1809864
  33.4488583  11.2576509  83.5845947   1.2281346 102.9414426  72.6850986
   1.8764137 102.2637421  72.4935627   0.3891801 102.5423217  72.4546909
  81.3470078   8.7467527  90.4665947  80.7278442   9.1839939  91.0511398
  81.9643593   8.3110589  91.0542011  56.9730473  40.1627779  80.1263714
  56.7951107  39.9969745  81.0521603  57.8575134  39.8239231  79.9880409
   5.8020109   3.9241731  67.4394655   6.7106003   3.9776427  67.7358389
   5.3511369   3.4448946  68.1346178  62.6026058   9.1607386  66.8291616
  62.5106382   8.5352236  66.1104774  62.3921347   8.6557609  67.6146126
  41.8956995  21.2970901  29.8429084  41.7951059  22.1864343  29.5035267
  41.4252090  20.7470608  29.2165422  42.9460621  33.3536816  52.4898052
  42.5505209  33.0155873  53.2932138  42.2561884  33.2735944  51.8310976
  40.0258493 103.2085630  72.1673775  40.6051730 103.6906384  71.5772772
  39.1459083 103.3793986  71.8315840  87.2730923  27.1702719  32.7808928
  86.5177536  27.3541903  33.3393359  87.7266598  28.0099702  32.7072906
  38.7339354   7.3074567  60.6611300  37.8229380   7.1827579  60.9271479
  39.0976095   7.8974771  61.3213205  50.0069857  28.4486151  30.4316759
  50.5797243  29.0830612  30.0007701  49.7559643  28.8715887  31.2528419
  58.2990313   4.3407470  73.2936573  58.2219124   3.4720087  73.6880922
  59.2417145   4.4796312  73.2026243  52.0613055   7.7464383  32.1560955
  52.9548316   7.8833907  32.4708843  51.6609721   8.6153786  32.1861076
  85.2418137  45.6159137   2.3980141  85.5872250  44.9076276   1.8546391
  85.2985812  46.3934015   1.8425655  39.4034909 102.3832699  55.2400303
  38.7280273 101.7683923  54.9538374  40.2268171 101.9134071  55.1073933
  62.4368572  16.0334396  43.2614899  62.2799826  15.7571757  42.3585510
  62.7513027  15.2440941  43.7022734  62.5985098  23.9461756  63.3643389
  63.5263729  24.1751671  63.3108664  62.2109413  24.6399856  63.8978672
  42.6957368 101.4278674  77.3990107  43.3306455 101.7675209  76.7683268
  42.8876924 100.4915857  77.4515343  79.1838789  23.0868268  80.5782890
  78.5820675  23.2472181  79.8514271  78.9364147  22.2229338  80.9079647
  87.9695464  37.9114185  17.9819489  88.7000609  37.6842760  18.5572529
  88.1298114  37.4105083  17.1821690  77.5165272  47.2261667  78.3359718
  78.1849384  47.0113754  78.9866018  76.9656610  47.8805637  78.7655592
  76.9285774   9.7785705  53.1836843  77.4646711   9.4228250  53.8923979
  76.7497349   9.0271741  52.6183081  69.4208574  23.6858392  76.4165020
  69.1065168  23.3853316  75.5637932  68.9468861  24.5027518  76.5721941
 108.2401086  61.7587166  27.5159740 109.0565396  61.6920535  27.0207691
 107.5624562  61.4826600  26.8988705  39.8551226  13.3795476  69.0272427
  40.7705402  13.1815338  69.2248106  39.6989107  12.9674065  68.1775522
  54.2870617  30.1324129  45.4865360  53.7066078  30.8500695  45.7400703
  54.5972157  29.7705507  46.3166475  80.5806255  40.1386499  74.6683931
  79.8925209  39.5341516  74.9464655  81.3942146  39.7234845  74.9546576
  20.8214355  45.8844042  78.5294485  20.3535104  45.3819895  79.1964245
  21.5882254  46.2316084  78.9852047 103.1658173  28.2368255  47.9823637
 103.5402393  29.0277791  47.5945091 102.5055218  28.5601211  48.5953283
  46.6172028  21.3158607  65.1070404  47.3564243  20.8835077  65.5346489
  46.9636154  22.1639180  64.8294973  23.9399723  85.7617520   4.9443531
  23.9151195  86.3356970   5.7099915  23.1822685  85.1867245   5.0513744
  77.7376796  36.8993281  11.4440632  78.3535815  37.4847983  11.0034752
  76.9046832  37.0470451  10.9962654  36.0222912  47.5546360  48.7239170
  36.1066794  47.0066690  49.5041990  36.4674973  48.3700085  48.9545584
  47.6300157  47.2913145  12.0140934  46.9278920  46.6559212  12.1538448
  47.9420973  47.1121876  11.1271095  25.9546331  49.0881920  73.8116074
  25.8887246  48.8203621  74.7282124  26.0702756  48.2688618  73.3304024
  98.5829592 104.9753498  12.9795551  99.4655801 105.2821802  12.7720356
  98.0888749 105.7741617  13.1639671   9.4605731 103.1377555  89.8456573
   9.0885972 102.3399868  89.4695854   9.4693374 103.7627738  89.1207314
  18.7819242  92.5100046  88.3067703  19.0691804  92.4134618  89.2147350
  18.3113240  91.6984015  88.1168556  18.3087969  30.1074195  83.5863686
  17.9888511  30.1673651  84.4865227  18.0473542  30.9354663  83.1836128
  89.4274045  63.0475031  13.7884521  89.7242499  62.9365610  14.6916771
  88.5087777  62.7789329  13.8035488  49.2467164  95.4086095  62.1095610
  48.3427095  95.7167101  62.0457649  49.1939973  94.4712096  61.9231939
  82.2420406   0.1027110  71.5873766  81.4351177  -0.3988395  71.7038202
  82.0822430   0.9246062  72.0512581  82.9066849  45.6042004  63.6346197
  82.6295090  44.8204231  64.1090679  83.7845707  45.3936577  63.3164644
  67.4712873  81.0792779   1.9278336  67.4707556  80.2629684   1.4279652
  68.1221414  81.6278266   1.4899826  47.9390907  34.0238953  85.9295082
  48.5373688  34.7697330  85.9744549  48.3604527  33.4150720  85.3228664
  76.5158558  13.9184546  68.6619425  76.6277742  13.5999775  67.7662420
  75.5680180  13.9312637  68.7949085  64.0359402  16.8055367  48.1463385
  63.7383747  17.5539207  47.6290274  64.1022635  17.1430278  49.0396118
  83.0002499   1.9546774  47.9512787  83.7801456   1.4712754  48.2238865
  83.3357334   2.7967504  47.6437140  59.4953775  16.8435991  55.5381155
  59.0604830  16.1070037  55.9676790  60.0926065  17.1891344  56.2015533
  24.6575403  49.9315739  50.6739616  24.6417141  50.3033066  51.5558863
  25.3193164  50.4442406  50.2097893  89.6020794  26.3309479  67.4677563
  89.2063236  26.4860368  66.6101074  90.1740456  25.5750942  67.3344564
  61.2598228  15.9148121  67.0821524  61.8256092  15.3303313  66.5776730
  60.5178881  16.0887909  66.5029383  63.9977360  20.0953054  65.5317831
  63.3206081  19.4406831  65.7026672  64.5374680  19.7074282  64.8429680
  57.0295811  28.1309080  69.1468525  57.8719902  28.5801744  69.0780401
  57.2148180  27.3540902  69.6745539  84.8046494  51.7444468  48.9009333
  84.5750999  51.6585684  49.8262262  85.0329018  50.8560324  48.6273336
  98.1827880  53.2684439   3.5492992  99.0880538  53.0415373   3.3366203
  97.6679040  52.5303876   3.2231140  92.1650314  27.3935103  56.3908625
  92.9012871  27.9574203  56.6278410  92.3262119  26.5774727  56.8645096
  70.5679131  35.5994463  68.2486248  70.9398460  36.3182116  67.7374744
  69.9238110  36.0192680  68.8188124  39.2347836  22.3574162  55.5357075
  38.6372900  22.5258374  56.2643147  38.7424946  22.6177406  54.7571707
  74.1136122  14.8976636  42.8220081  75.0118971  15.1790762  42.9955626
  74.1595507  13.9416039  42.8134871  42.7241755  14.9934995  72.5110579
  43.2864141  15.5158269  71.9389582  41.8579769  15.0442731  72.1068859
  44.4268656  17.6625788  81.1309624  44.1577053  17.4480700  82.0241451
  45.3810549  17.5878417  81.1438751  12.2733115  87.2836297  71.9644976
  12.3675298  86.4170652  71.5689993  12.2536039  87.8855949  71.2205362
  59.5732355  10.7007909  54.7608995  59.3882656  11.6399109  54.7692966
  59.4951773  10.4331040  55.6765842  51.9089650  91.4856153  35.5913019
  52.8544664  91.3452691  35.6419349  51.6004419  90.8191567  34.9773979
  48.2169628   7.4198705  76.6475964  47.5498676   7.6711637  77.2863960
  47.7538395   7.4073654  75.8099842  60.8349037  20.3865910  53.4276056
  60.7320499  19.9409318  52.5867462  61.7610884  20.2789712  53.6440086
  41.8267488   4.9880412  44.3967104  42.7205992   5.1169515  44.0794468
  41.4170027   5.8492213  44.3148279  39.0533328  28.0097699  34.1401052
  38.7909937  27.3780584  34.8096943  38.3519506  27.9745340  33.4896779
  64.0015650  21.8229985  86.3983631  63.2580519  22.3884773  86.6072941
  64.7396374  22.2158313  86.8643665  51.5632153  44.7578049  82.4192333
  52.4299765  44.3700981  82.5402069  51.4454412  45.3238678  83.1820774
  63.8600349  22.6076746  60.4980755  64.4128418  23.1667042  61.0440826
  62.9726458  22.7558804  60.8248949  71.7955780  16.9278455  74.7535515
  72.5343990  16.8531847  75.3575373  71.0215282  16.8480158  75.3109598
  60.3291321  20.8712292   7.4449575  60.9759712  20.7738256   8.1437713
  60.8256245  21.2238955   6.7064762  71.8968082  60.3486483  15.0740528
  71.8467761  61.2866269  15.2582359  72.8235532  60.1331322  15.1785851
  73.6048841  36.3866639  79.5044470  74.3445730  35.8599234  79.8071623
  73.0841780  36.5433979  80.2921867  14.2383813 104.3058312  68.2439327
  14.7119569 103.4750926  68.2010889  13.7490367 104.2604851  69.0653419
   1.4982084  56.4468374   5.7742119   2.1574406  56.6076176   6.4493370
   1.7147879  55.5805408   5.4294586  60.3156900   4.0395382  64.2207718
  61.0459471   3.8556662  64.8116636  59.5556259   3.6465162  64.6498060
  78.1450796   7.4703974  37.1386933  77.2196293   7.6731116  37.0020175
  78.1454992   6.5825784  37.4964786  80.8871078  11.2157142  70.8547211
  80.0999165  10.7498741  71.1367846  81.4332771  10.5408514  70.4516268
  47.7461386  18.8212860  72.6022959  47.1534920  18.4976149  71.9238853
  48.2544088  19.5069969  72.1690607  84.2453768  89.9688238  52.7205801
  84.3623336  90.3928298  51.8704176  83.3233740  90.1114911  52.9345608
  85.6564331  18.2637525  60.6977415  84.8153210  18.1251109  60.2623892
  86.3018608  17.8945827  60.0949335  95.1012517  82.5253843   7.5424767
  95.1575709  81.8161129   8.1827927  94.1835261  82.5301860   7.2704697
  18.3569955 104.8339876  51.4063978  17.4786185 105.0454303  51.7225933
  18.3794069 103.8773283  51.3833189  25.5415010  89.6472174  58.0865765
  26.3961076  89.5006543  57.6811171  25.6640529  90.4265898  58.6286020
  40.9026909  10.8105338  63.5447550  41.7165089  10.8588445  64.0463448
  40.2668619  11.2933517  64.0728092  57.3198366  25.3507304  64.9248362
  56.9224548  25.5757952  64.0836096  57.3248100  26.1728978  65.4149866
  35.0780773  28.7913084  72.3307848  34.5665741  28.2275057  71.7505074
  34.4285607  29.1940093  72.9071426  58.1064081  25.1577759  68.0806351
  58.1146955  24.9570751  69.0165186  57.3674726  24.6571398  67.7348471
  50.8428335  10.9739482  47.9241467  50.6516838  10.4727519  47.1313667
  50.8848715  10.3166676  48.6187267  63.0647945  33.0907702  77.4005508
  62.8301620  33.1728101  76.4761877  62.5310612  33.7510085  77.8426456
  54.9953222  29.2024732  71.6651058  55.3786802  29.1469193  70.7897854
  55.7017279  29.5415425  72.2148800  67.6629400  89.2367297   8.9953935
  66.9563817  88.7213689   8.6062896  68.4216069  89.0618723   8.4385461
  34.0054274  43.7620544  65.1175642  33.4110808  44.3993378  64.7215128
  33.4727740  43.3138227  65.7745266  25.1158523  98.2024115  82.3144245
  24.8841190  97.6790815  83.0816650  24.3380212  98.7331950  82.1427250
  60.5554581  21.3341880  70.7359505  60.2857065  21.7210150  71.5689135
  60.7298803  22.0850587  70.1684999  92.1566200   7.9382175  65.1857662
  92.6806641   7.6857674  64.4255829  91.6434669   8.6880207  64.8845959
  47.9485607  46.1865234  74.4131279  47.0192099  45.9582567  74.3924332
  48.3643627  45.4564381  74.8717308  27.5285339   4.3217370  90.6288719
  28.2198238   3.9625108  91.1850262  27.7775884   5.2366608  90.4980373
 100.7322360  72.7465294  10.3986549 101.6653443  72.5331615  10.4022980
 100.7034350  73.6969493  10.5086708  70.2077246   4.4797891  61.9625139
  69.3781996   4.9476117  62.0587921  70.4147673   4.5486543  61.0305166
 110.0547076  53.1720033  10.1153374 110.7055999  52.6320941   9.6669292
 110.5260659  53.5470420  10.8592510 106.6069079  50.8842516   3.3647728
 107.1869565  51.5446858   3.7437153 106.1386395  50.5179413   4.1149521
  20.4454421 101.2381410  55.5216217  19.9756288 100.7401693  54.8526430
  21.2632226 100.7570398  55.6481266  95.6404639  45.8878093   1.4180946
  95.3840113  45.7584523   2.3311901  95.6368018  45.0078873   1.0413265
  36.3915992  20.3317904  39.0099311  36.9828200  20.0920558  38.2963347
  36.9022775  20.9327459  39.5524168  27.3485755 103.7663580  79.7892046
  26.6766977 103.3256802  80.3094101  26.9679546 103.8331455  78.9134789
  27.5224352  24.0472722  57.5609398  28.2000375  23.7341332  56.9617462
  26.7553067  24.1834402  57.0048761  40.2509689  29.0670013  89.5924377
  40.9412956  28.8512301  90.2194309  40.1266003  28.2635570  89.0872192
  39.4351005  90.3494066  67.7288532  39.7190522  89.7216028  68.3932829
  39.9774122  90.1517373  66.9652700  98.4933997  59.8015867   4.7707462
  98.4287692  58.8507281   4.6817398  99.2423964  60.0428073   4.2257309
  73.2197857  33.5680461  72.4849367  73.8596821  34.1090155  72.0222092
  72.5769520  33.3324480  71.8159914  97.8006554  43.5921144  68.2856369
  98.6918354  43.3775568  68.5613298  97.8281689  43.5468531  67.3299026
  49.9685955  12.1494424  52.2626591  49.7847462  12.0160866  53.1925201
  50.0417566  13.0990124  52.1667528  94.3735218  13.2407486  67.7750921
  93.4899998  13.5726213  67.9346895  94.2434597  12.3288262  67.5148726
  71.5225458  15.0163245  43.9059782  71.6777611  14.3869758  44.6102905
  72.3858452  15.1594138  43.5180759  65.0975800  11.8779957  44.5781803
  65.1692963  12.8324914  44.5728779  64.1662645  11.7069972  44.4380331
  50.6214046  11.3869250  65.6600428  50.1688337  12.2184014  65.5184031
  49.9478769  10.8044147  66.0111523  68.5391235  20.4273343  77.2865105
  68.2230997  21.2887573  77.5591087  68.9734173  20.5857563  76.4483404
  35.5459666  35.1112294  48.6012030  34.8699450  34.4850683  48.3420753
  36.3704371  34.6464849  48.4580517  27.2240400  92.4565094  71.4098024
  27.3652744  92.7979582  70.5268002  26.9902610  91.5378707  71.2768221
  54.9806643  47.7062416  64.4977236  54.3452120  48.3874035  64.7178411
  54.8239517  47.5228024  63.5714293  33.1719541  90.3486651  60.4806709
  32.9329013  89.8404342  59.7055674  32.3349761  90.6308967  60.8495283
  55.1843691   6.3405967  65.9597349  54.7094250   6.7130440  66.7026615
  54.5133066   6.2028265  65.2912092 105.5626345  72.1530710   1.7278957
 105.3867675  71.5835415   0.9789371 105.3904010  73.0366515   1.4025497
  40.2441596  99.3929988  65.6934214  40.5172776  98.8217169  66.4112473
  40.6001949 100.2516365  65.9219217  41.3258505  35.6954360  57.1841145
  41.9438410  34.9665904  57.1283627  41.8751049  36.4638138  57.3395109
 105.5181476  49.1483241  90.6640053 105.0831529  48.9325124  91.4888954
 106.3781592  49.4772035  90.9256363  84.3422604  63.7833630   0.5662537
  84.5140982  64.4634865   1.2175083  85.1000739  63.8139807  -0.0177097
  77.6852942   5.3652674  40.4631615  77.5546122   5.1123405  39.5492768
  78.5905886   5.1188427  40.6527710  45.2969646  45.6713486  74.8649073
  45.3644514  46.1609936  75.6846189  44.3690634  45.7169628  74.6343708
  21.5074730  39.2695665  68.9609003  21.4689326  39.1961002  68.0073023
  21.2027740  40.1580667  69.1451788  70.2380896  18.3246493  65.6359482
  69.9339390  17.5739264  65.1259136  69.5607281  18.4533703  66.2999105
  51.0501671  27.8368521  77.0381165  50.2075100  27.4546862  76.7929506
  51.1940956  27.5424480  77.9374743  23.4065818  73.8885814  45.3502989
  24.3488645  73.8102656  45.4993248  23.1488227  74.6638137  45.8490992
  29.6239734  13.4853864  66.0921240  29.3626428  14.2572594  65.5899811
  30.0918245  12.9370415  65.4623079  38.2866335  10.4088235  69.2837191
  38.7306404  10.5295396  68.4443617  38.8663316   9.8313957  69.7804642
  66.4016056  10.1299226  13.6820161  65.7517719  10.3065336  14.3622804
  65.9618521   9.5285052  13.0810606  70.8340263  12.4531305  61.8588018
  70.2043867  13.0053067  62.3223543  70.5846882  11.5586364  62.0910549
  19.9075055  49.0527868  70.3903008  19.1413379  49.1644192  70.9531116
  20.6048512  48.7797022  70.9864283  16.9465875 102.0051065  66.7471457
  16.5870189 102.0739305  67.6315689  17.1809911 102.9032260  66.5133333
  49.7960663  33.7093091  55.0600576  50.6711626  33.7130618  54.6722221
  49.8352051  34.3758368  55.7459450  92.6412201  22.0103383  75.1408005
  92.2605610  21.5085053  75.8615637  92.1459961  21.7348528  74.3693733
  61.9082212  28.6750555  29.8166919  62.1072054  29.4475961  30.3456688
  62.0586395  27.9359818  30.4060793  71.6817427  17.5716698  91.3441753
  71.5384245  18.4922576  91.5637493  71.2706947  17.4631858  90.4865646
  72.0121193  39.7634745  72.4305344  72.7769089  40.2858257  72.6723480
  71.9811440  39.8122334  71.4750767  35.9572315  19.0247965  21.2467837
  35.1140618  18.9880896  20.7951784  36.5807128  19.2861176  20.5691314
  72.5227594  27.8009248  75.2334642  73.1832457  28.3728766  74.8424959
  72.1301317  27.3447251  74.4891834  10.5336861  97.6813387  19.6945667
   9.9530510  96.9620250  19.4462204   9.9790005  98.4605621  19.6576405
  20.9299850  72.7564722  74.5772600  21.5940761  73.1089359  73.9848185
  20.9388303  71.8134886  74.4131374  67.1587969  39.6796833  15.0735474
  66.7312217  39.8055147  15.9206486  67.7421189  40.4334675  14.9853706
  49.2986393  17.2558415  82.5306129  49.1437960  17.5924087  83.4132099
  49.5077038  16.3307965  82.6602840  75.6535221  70.5452357   8.9196396
  75.4087568  71.1531793   8.2219791  74.8188329  70.2398740   9.2749977
 108.2104969  43.9120483  85.1027107 108.0661774  44.2212772  85.9970188
 108.9373302  43.2937002  85.1774502  11.6116527 102.3534988   7.9180336
  11.6574673 101.8961500   8.7576580  12.0845322 103.1725954   8.0653381
  97.3525763  61.4820694   6.5422630  96.5266944  61.0027228   6.4760780
  97.9595471  60.9910505   5.9884453  57.8099155   4.9673986  84.4498158
  57.3973560   5.2160883  85.2769661  57.1226931   5.0861382  83.7941742
  56.8348217  16.7495275  62.0292330  56.1521006  16.4196086  62.6134157
  57.5303221  17.0452833  62.6166344  76.5131760  23.2690501  58.0442381
  77.1951389  23.5824108  57.4501276  76.4048624  23.9770603  58.6792326
  88.5721874  19.9040246  61.7149639  87.8890705  20.3477407  62.2176647
  89.0006638  19.3288469  62.3488474  52.4296856   9.2392981  54.6235228
  52.8181124   8.7043160  53.9313126  51.6997719   8.7138730  54.9512196
  45.0277328  41.0050774  70.3927755  45.4189682  41.8785763  70.3800154
  45.7739305  40.4093790  70.4603195  62.9466867  37.8048062  66.9900179
  63.5548353  38.4162951  67.4053144  63.4978008  37.2695589  66.4190435
  20.1787233 105.6723499  25.9616375  20.2508735 104.7272470  26.0950804
  19.2865800 105.8013627  25.6396699  11.0763172  89.8218940   5.3002453
  10.5866245  90.2265309   4.5842075  11.9373897  89.6353363   4.9261093
  74.4228125  63.2779931   4.5728683  73.4737445  63.1537877   4.5641804
  74.7082282  62.8852259   5.3977966  96.9367886  21.9318867  88.2083321
  96.1316776  22.4316716  88.0732632  96.8741322  21.2048316  87.5889015
  71.3524055  31.6901922  83.4669781  72.1836662  31.2237978  83.3791161
  71.2809896  32.2057867  82.6636791  91.8325233  44.6908617  64.6839762
  90.8767414  44.6827030  64.6324396  92.0764446  45.5905056  64.4663334
  94.5420742  57.3294353  64.5379496  93.8967037  56.6654301  64.2954063
  95.3076363  57.1270657  64.0001774   1.4473108  96.2446474   0.8188725
   1.9821648  95.5266403   1.1574459   2.0815519  96.9067119   0.5438519
  94.5040847  89.1715501   5.8038425  94.2989159  90.1035761   5.8777809
  95.2476836  89.1369938   5.2020931  67.0145988   8.2399911  58.4225893
  67.0164013   8.0958235  59.3688679  67.5952101   8.9899588  58.2934666
 111.4004327  92.9396890  11.1803818 111.0363103  92.4597000  10.4365730
 110.8917714  92.6373075  11.9327450  55.5517244  13.3207858  85.3889179
  54.9162960  14.0233946  85.2517986  55.7734299  13.0228269  84.5067024
  79.0843391  35.1530504  79.8377943  79.7674417  35.5840564  80.3514385
  79.4851446  35.0070977  78.9808893  68.3511234  99.0489553  15.4467869
  68.5771323  99.6228956  14.7148418  69.1805149  98.9033102  15.9019089
  87.6747131  51.3292551  82.9481888  87.0497990  50.9165859  82.3520184
  88.5151386  50.9257793  82.7310944  85.7483101  50.6245899  87.0484924
  84.7920036  50.6581402  87.0726967  86.0263348  51.4803076  87.3751068
  84.3476868  37.2514963  80.3376007  84.3365860  38.2062817  80.2705765
  84.8891926  36.9660234  79.6017265  83.4461880  31.2749314  35.7757854
  82.5057888  31.2859225  35.5975318  83.6873627  30.3496265  35.7324958
  98.9914752  69.6198736  13.4599495  99.1677285  70.5589973  13.4032631
  99.8515273  69.2090248  13.3719349  79.6270752  39.8766518  60.7630682
  79.9188614  39.0828896  61.2114382  78.7726116  40.0693989  61.1490393
  65.5731392  29.1904855  59.2211771  65.6505346  28.2410669  59.3152380
  66.4238501  29.5289707  59.5003748  82.8544807   9.8531520  86.6245270
  83.1257153   8.9480889  86.7779064  83.6567783  10.3015995  86.3572311
  97.3576546  18.8568306  90.1939774  97.9305840  19.5030761  90.6067085
  96.8014050  18.5405552  90.9058666  83.8183784  21.2939882  55.9345865
  84.0033436  20.7904148  56.7273235  83.4752846  20.6492352  55.3158665
  71.7172432   2.9128668  79.7952652  71.3043833   2.2013164  80.2846241
  72.5649357   2.5585422  79.5267439  98.7221909  80.5042242   2.6591492
  99.3306971  81.2401436   2.7252960  99.2830182  79.7285412   2.6638794
  53.5065603  50.1144600  87.1327114  52.8783083  50.3912210  86.4656734
  54.3629551  50.2747583  86.7363167  92.6855659  22.8478599  64.8283958
  93.2855320  23.5753679  64.6640635  93.2557297  22.0861602  64.9330616
  99.5176601  32.0817637  67.9140806  99.9271679  32.9195833  68.1299400
  99.5320034  32.0475411  66.9575977 105.9282875  45.9532642  70.9247494
 106.3780880  45.1712227  70.6048679 105.0326157  45.8645153  70.5989790
  94.0361786  17.8596997  68.4609652  94.5568275  18.2749462  67.7734137
  93.3360577  17.4069238  67.9907894  68.6566210  36.4720988  69.7750902
  69.0932417  35.9075761  70.4129887  67.9029131  36.8274951  70.2460957
  57.4400854  16.2718976  45.1756096  57.4750471  15.3172612  45.1149559
  56.8629360  16.5364254  44.4592571  89.1308594  48.2592297  48.9310980
  89.8511219  48.8156366  49.2275143  89.3013859  47.4097252  49.3379068
  77.4096155  17.2080243  87.7570629  77.5431490  16.5971315  87.0323467
  78.1068087  17.8559995  87.6556683  99.6500969  17.3921478  43.1527424
 100.3933048  17.0752645  42.6394558  99.5047474  16.7110538  43.8094139
  73.1078196  26.4912534  63.1662607  73.1916237  25.9889293  62.3557806
  72.8317690  27.3621917  62.8807926  91.6591454  35.0487137  71.6281748
  91.0168171  35.6475449  71.2473249  91.8475437  35.4169440  72.4913931
  67.3445749  32.3493099  85.1208401  68.1775808  32.7814794  84.9322605
  66.8129158  32.5027800  84.3398094  26.6207409  40.3819942  65.4877234
  26.3975739  40.7304287  64.6245766  26.2264872  40.9989262  66.1043167
  92.1180725   9.6403813  90.9894276  92.2404575   8.7462944  90.6702614
  91.3006115   9.9296141  90.5840492  88.3055115  35.2642679  75.9564161
  87.6623058  35.8521891  76.3524818  88.3278370  35.5199718  75.0342751
  12.3635868  69.6800326   9.9164009  12.7545456  68.8892864  10.2880287
  11.9212822  70.0984107  10.6550217  76.7645121  27.4428153  67.2831106
  77.5884771  26.9711804  67.4050856  76.1702633  27.0572209  67.9268599
  96.9149590  53.9730406  78.9780951  95.9904957  54.1932440  79.0925694
  96.9635487  53.0364132  79.1693974  34.0391469  29.2715669  34.2608786
  33.9047837  29.7192550  35.0961947  33.4371710  29.7061086  33.6566997
  86.9242764  46.2136078  80.8760834  86.5485668  46.3416672  80.0050640
  87.5292492  46.9471741  80.9861946  65.1443481  16.0559320  75.0567055
  65.9422874  15.5661535  75.2558279  65.4134512  16.9740796  75.0853395
  48.0495834  46.1153078  58.0211926  48.6440229  46.4762783  57.3634911
  47.2623634  46.6557884  57.9549170  95.1974297  16.4795995  74.6823311
  95.3385925  15.7603359  75.2979326  94.2772961  16.7167079  74.7979450
  96.7427970  76.6975115  27.1489906  96.2215520  76.0614155  27.6388073
  96.1435033  77.4268244  26.9903088  61.7483186  92.9848557  45.7601500
  61.1718034  92.6381653  45.0792170  62.2388887  93.6828452  45.3261185
  45.2944231  26.9360328  64.5437813  44.8831320  27.7864933  64.3895483
  44.5815992  26.3781953  64.8551178  24.2559457  36.7823625  60.6082296
  23.8309717  36.0444546  61.0454082  23.9245558  36.7521787  59.7107315
  91.8897057  36.8420720  74.2456102  90.9702015  37.0752263  74.1176224
  91.8623257  35.9944654  74.6895075  74.1313410  33.8505006  66.1272049
  74.0416479  33.6534595  65.1948118  73.2855272  33.6099100  66.5052986
  51.6625404  14.0505326  75.3096581  51.0915709  13.4043908  75.7252645
  52.5476694  13.7807322  75.5545807  54.2334604  78.2360393  67.8319931
  53.9013147  78.1279498  66.9407988  54.8828458  77.5399071  67.9316521
  45.5115270  95.2060705  66.7054796  44.5721006  95.1314383  66.5376997
  45.7908200  94.3126434  66.9055128  96.1099529  46.3239145  62.2398615
  96.0932255  47.2116709  61.8823099  96.9571018  46.2591982  62.6807451
  54.3586302  48.3686066  73.2253838  54.9906397  49.0824366  73.1402922
  54.5433140  47.7952433  72.4814939 106.1309291  75.4803942   0.5614758
 105.4875184  76.1884140   0.5304527 106.1989499  75.1787041  -0.3443813
  83.4126091  20.4130888  74.0774775  83.7452221  20.8341742  74.8701286
  84.0418243  20.6524873  73.3970356  71.5778637  35.2425241  88.5846996
  72.2861767  35.7984328  88.2599068  70.8278942  35.8320069  88.6639690
  14.2573356 105.4465604  84.1954327  14.2081022 104.6555558  84.7321987
  14.8244380 105.2043154  83.4633541  32.0700216  37.8560567  65.8158684
  32.1422744  38.1890249  64.9213600  31.7454123  38.6001921  66.3229418
  17.0309257 102.0005613  50.8031750  16.6125440 101.1403283  50.8376646
  17.0006274 102.3179906  51.7056990  72.5843573  17.7274656  20.1840091
  72.7719164  16.8080699  19.9948978  71.8059206  17.7035546  20.7405114
  67.1002626  32.1429443  70.7622719  67.9669857  32.2276211  70.3649664
  67.0675135  32.8408074  71.4165974  85.2786636  31.6944695  82.1195316
  85.6398487  30.9267092  81.6764545  84.4429588  31.8532133  81.6806316
  57.6516866  92.4828154  75.4020882  57.7447747  92.4783224  74.4494390
  57.8948354  91.5968317  75.6706858  83.9066887  41.5471792  70.8195448
  84.8399067  41.3633442  70.9269714  83.8741207  42.4579620  70.5269051
 100.1060486  32.0383716  84.2618847 100.0316620  32.9256821  83.9106274
  99.4621849  32.0061159  84.9694443  25.6689361 101.1313366   7.1260071
  25.7790378 100.2861522   6.6903877  26.5561775 101.4845632   7.1912289
  78.3581924  11.5122676  64.1471195  77.7937078  12.0590806  63.6006880
  79.1998005  11.9682086  64.1535282  51.8724680   4.3230391  73.6669111
  52.8243494   4.2245436  73.6881685  51.7309809   5.2665359  73.5892820
  98.6017799  23.4313917  82.6434994  99.5157146  23.1657648  82.5414753
  98.4808922  23.5152316  83.5893250  77.5091219  43.2260370  55.5993938
  77.6711130  42.7091217  56.3885641  76.8152046  42.7521849  55.1409388
  68.7786674  24.7589779  60.9347296  68.4713984  25.6655145  60.9375811
  68.6347055  24.4601083  60.0368547  88.0546714  93.9952301   7.1449184
  88.1478787  93.1962322   7.6637077  88.6129523  93.8511776   6.3808441
  80.1794720  31.0045171  77.8542805  80.2768135  30.8690262  78.7968302
  80.7464409  30.3432322  77.4574375  18.9531949  34.5610690  46.2373924
  18.2864621  34.6964884  45.5640697  19.0894368  33.6137342  46.2524462
 109.4134903  41.5245819  72.6619673 109.3575859  42.0197535  73.4792280
 109.4428730  40.6086445  72.9384136 102.6197624  48.0057716  51.8769026
 103.2349682  48.5074377  51.3420391 101.7644215  48.3875942  51.6798306
  91.7510892  98.9364885   1.0641289  91.8261338  98.7612842   2.0021629
  91.2149049  99.7275947   1.0103798  65.2641534 100.5212030  68.3734655
  64.7430276 100.8733260  69.0950441  65.8944082 101.2132323  68.1732130
  58.7335443 102.9891711  45.7645893  58.2279634 102.6638064  46.5094042
  58.0945348 103.4579402  45.2277899  65.4982901  35.2059364  70.1016665
  65.8841562  34.6374893  70.7681513  64.8703814  35.7458591  70.5817127
 104.5431138  61.5571080  13.2652855 103.8697148  61.5879856  12.5857162
 105.0494529  62.3592810  13.1373501  28.1718878   6.5778201   1.1708069
  27.8028683   7.4450677   1.3379383  28.4729962   6.6165249   0.2630234
  78.6066628  21.5509224  67.7490234  78.8552761  20.9597659  67.0384216
  77.7418613  21.8759942  67.4986601  62.0625162  26.0791588  68.8401747
  62.5607443  26.8947506  68.7871504  61.3148499  26.2169838  68.2585955
  86.2548637  54.4665623  89.5370674  87.1050549  54.8813486  89.6832275
  85.8902836  54.9273920  88.7814522  45.6117968  15.8423798   4.5922947
  46.5008120  16.1681645   4.4517517  45.0496153  16.5968268   4.4162750
  18.0558876  98.2975172  10.5732441  18.5702328  98.5913633   9.8213577
  17.1504120  98.4997963  10.3378010  98.1824493  47.8656101  79.5373344
  97.5694942  47.1416092  79.6651697  98.4867001  48.0803728  80.4191208
  52.4833775  13.4857178  62.6623917  52.6720810  13.7557054  61.7636538
  51.5284252  13.5085523  62.7238417   7.8585915  78.1549286   5.7491016
   7.6792911  77.8632640   4.8552322   7.0473102  78.5780095   6.0302734
  11.0613064  86.4865850  16.8006611  10.8823780  87.1586155  17.4583817
  11.4047436  86.9713925  16.0501671  63.8040495  99.0315151  43.9296913
  64.2177916  98.2091999  44.1920805  62.9461622  98.7715626  43.5940027
  98.1601429  68.8356209  50.6375599  97.8387165  68.4552526  51.4550161
  98.9845467  68.3793640  50.4689598  96.2195396  84.0146828  86.7728615
  96.3569069  84.9195862  87.0530796  96.0752392  84.0756512  85.8285618
  85.5353069  54.4076109  75.2586508  85.0345993  53.8624048  75.8655119
  86.0177040  53.7826443  74.7174120  86.0667229  84.6122074  74.1852903
  86.4573669  85.4159355  73.8423014  85.2006245  84.8792934  74.4931364
  91.0687923  62.5028610  77.3846006  91.6940308  62.6153946  76.6686106
  90.2795029  62.1638870  76.9622803   1.4835790  43.3145285  81.7878628
   1.2183049  42.5540018  81.2707043   1.6479734  43.9994049  81.1396790
  14.1765645  92.9136086  61.5484476  14.9846128  92.7880383  61.0509348
  13.5544160  93.2632351  60.9105396  64.5980263  32.8395844  68.7058926
  64.7237873  33.4979653  68.0225515  64.7694635  33.3070922  69.5233727
  61.4954424  11.5602589  64.4785357  60.9739447  10.9644735  63.9406586
  60.8757877  12.2333264  64.7600269  98.9500713  30.8081746  71.8903351
  98.9598560  31.5046668  72.5468683  99.7504139  30.9454894  71.3835430
  95.7699871  58.2320452  76.7154694  96.1082077  57.8719664  77.5353336
  96.4645195  58.8125753  76.4042807  57.5447941  26.1031651  84.7316933
  57.4779177  26.5057635  85.5975246  57.8110504  26.8189573  84.1546440
  95.4540825  28.0086255  84.6320534  95.3824139  28.9407778  84.4266510
  94.9577713  27.5719762  83.9397717  91.8378735  50.6927443  47.5118828
  91.6346550  49.9150515  46.9921446  91.5386295  50.4756689  48.3948135
  85.8998775  45.4415464  85.1729679  86.1614418  45.0514174  86.0070038
  86.5184307  45.0831366  84.5364475 106.7739487  63.1452751  83.6115551
 107.2369385  63.9617586  83.7992573 107.4413681  62.5730658  83.2329273
  59.6390109  17.8372710   3.0727959  58.7953334  17.4861567   2.7878857
  59.6571688  18.7288468   2.7249527  66.4904742   1.1177819  13.4794521
  67.0857005   1.8452685  13.2986069  66.7368941   0.4436057  12.8462029
  73.5498905  37.8177404  49.9909258  73.1069422  38.6659265  49.9662924
  73.7955809  37.6493287  49.0812540 102.6084518  42.7748251  81.7617130
 102.1589756  42.5802469  82.5841141 102.2566032  43.6229467  81.4913082
  79.7400379  28.9137578  61.4718723  79.8355484  29.3630576  62.3116589
  79.2440796  28.1217074  61.6790390  48.2942824   1.6884463   1.5116978
  48.3927111   1.6469376   0.5604744  49.1044097   1.3097708   1.8530655
  99.6984483 104.1051077   9.3822002 100.1233245 104.9307369   9.1497231
 100.2042580 103.7764000  10.1253986 111.2828255  69.1667353   1.3496113
 112.0028353  68.8625489   0.7970810 110.7895232  69.7674392   0.7909966
   4.6528485   7.2519964  54.9033260   3.7193635   7.4240303  55.0267935
   4.9674657   7.9955512  54.3891573  72.5910664  30.1742196  79.0894651
  72.9938650  30.5143380  78.2905245  72.7260733  29.2277980  79.0415812
  99.3239021  65.5378246  79.7786856  99.1928005  65.4164219  78.8383102
  99.4375134  64.6512175  80.1211071 104.2431068  69.6104527  78.0809736
 103.4072113  69.4400024  77.6468420 104.4163704  70.5365229  77.9118538
 100.4763699  39.2014122  39.3367696  99.7152328  38.8672256  39.8113489
 100.1067257  39.7697687  38.6610723   8.2006124  47.0233536  76.1821127
   8.6204293  47.8772736  76.2860727   8.6100248  46.6485310  75.4022884
 106.6517067  57.4901819  35.0689077 106.4171219  58.3764553  34.7937369
 105.8736420  56.9663191  34.8781061  92.1337986  33.6185265  79.0095139
  91.3433743  33.8259578  78.5110855  91.8590260  33.6664820  79.9251747
  48.0318980  11.9769137   4.2248249  47.5326876  12.7846758   4.3453884
  48.6101298  11.9367497   4.9865723 102.8082085  41.2972116  66.2639332
 103.6808300  41.6578722  66.1068010 102.3126125  42.0245647  66.6401863
  93.8525105  64.9643278  80.8435822  93.9488602  64.1699266  80.3183460
  94.6582031  65.0103092  81.3583279  67.1886158  30.5665445  75.0246477
  67.2184515  31.3539338  75.5681181  66.2973070  30.5497575  74.6760559
  76.8487740  59.4020510  90.6559753  77.3307467  58.8826323  90.0124454
  76.0655165  58.8846731  90.8432102  99.0379715  25.1518989  87.5062943
  99.9534702  24.8760104  87.5506783  99.0713501  26.1056232  87.5806141
  13.6682609  16.5658587  40.4973030  13.5267548  15.9561366  41.2214947
  13.7460235  16.0061664  39.7246957  78.4514904  53.1202507  88.9201927
  78.5871649  53.0050421  87.9796886  77.5002575  53.1471109  89.0234470
  95.9241104  39.9698091  51.7526054  96.7327118  40.4729033  51.6561604
  95.6661034  40.1036358  52.6646137  92.7937126  31.8039060  58.9617729
  93.1860733  31.9249415  59.8264265  93.5374641  31.8031883  58.3592224
   3.9868405  33.5238385  85.3328705   3.1021169  33.1584859  85.3300095
   3.9467481  34.2435026  85.9627151 101.9204521  56.0687780  60.7523203
 102.3268127  56.8264437  61.1730957 102.6573563  55.5197477  60.4844141
  86.1260700  35.7287383  54.7608900  85.7175922  35.0797582  55.3337812
  85.4769897  36.4287591  54.6909046  55.2452330  20.9600203  15.2560711
  55.9953742  20.3767913  15.1405048  54.7249751  20.8414261  14.4614029
  72.6801443  80.3752804  54.1202593  72.3968410  80.4002666  53.2062864
  72.0747328  79.7655487  54.5420885  49.1384082  36.5915101  23.2889366
  49.8045973  36.5713875  22.6018906  49.5642523  37.0350545  24.0225410
  80.4012108  39.5435262  90.1292133  81.1497879  39.0154386  90.4066753
  80.7109833  40.0083828  89.3519306  80.0326157  37.4471283  85.4797173
  79.2752028  36.8651628  85.5419350  80.5598927  37.2372317  86.2505341
   5.1747945  16.5416002  73.5349989   4.6696141  16.2320387  74.2867947
   4.8098615  17.4048150  73.3402681  85.0158024  34.2138004  78.2760048
  84.1823769  33.7682843  78.4281540  85.3177071  33.8756990  77.4329329
  63.0718613  31.6848969  71.2395620  62.9755783  32.5879884  70.9372568
  64.0031672  31.5984559  71.4430904  79.8954821  18.1746638  84.4118214
  79.1880274  17.7599144  83.9181423  80.6941032  17.9052186  83.9581299
  77.3435688  35.1063848  69.0587997  76.6022587  35.5220008  68.6183929
  78.0006266  34.9981189  68.3712053  63.8776112  70.1917648  91.1795330
  62.9333401  70.0475073  91.2409687  63.9657927  70.9686565  90.6273651
 100.8698559  63.6052275  65.7434416 101.1720753  63.1239653  66.5136909
 100.2040958  63.0389309  65.3531837  58.9531231  79.3277931  75.0628281
  59.1085625  79.7736835  75.8954430  59.0967703  78.4015083  75.2567101
  35.1042942  95.2286886  39.7472095  34.7866634  94.3301748  39.6576977
  35.5428890  95.4115747  38.9163017  81.2599182  37.7493572  66.5646029
  80.4059219  37.3991680  66.3110352  81.0788536  38.2876825  67.3350954
  42.8825335   6.0580247   0.3619385  41.9539313   6.1577075   0.5716991
  43.1148963   5.1960652   0.7072830  79.3767500  74.0210199  63.9232302
  79.2292929  73.1084633  64.1716814  78.5169792  74.3348837  63.6430216
 102.6081276  26.6294026  62.6842546 101.7906284  26.8310404  63.1395149
 102.9761314  25.8904433  63.1687641  74.9534178  42.9792500  74.8478603
  75.7885075  43.2855844  74.4942808  74.4170475  43.7692976  74.9139261
   0.4002146  90.1670312  50.4041195  -0.2635761  89.5664452  50.7431030
   0.2073339  90.2341102  49.4689560  76.9475365  55.8535719  51.2855768
  77.7785826  56.2700987  51.5138388  76.8693304  55.1229954  51.8990707
  78.7286663  42.5761509  90.0663757  79.2542934  42.1023464  89.4218159
  79.2850637  42.6193190  90.8440590 110.4966354  39.3747044  71.0685062
 109.8866177  38.6893988  71.3413954 110.0842857  40.1899815  71.3540268
   6.3936093  18.6343217  64.5799017   6.0643438  17.9739010  63.9702559
   7.1237519  19.0449679  64.1167688  99.3919849  17.3246658  64.2074156
 100.3430176  17.2244966  64.2490721  99.0663242  16.8358147  64.9631929
  63.7558174  78.7919331  49.9342060  63.3424616  78.3795738  50.6927109
  63.5434294  79.7211933  50.0214005  84.3658829  19.5049405  87.9996395
  84.6058846  19.7571492  87.1079922  84.7104454  20.2092314  88.5487175
  83.6009693  68.2738113  34.9429798  83.8233662  67.6706219  34.2338037
  84.0966988  69.0685415  34.7457623  53.2593012  47.1700907  86.7893600
  52.7247572  46.9387674  87.5489521  53.3192396  48.1249046  86.8204975
  99.4941616  14.0995777  88.2047749  98.7865829  14.3043137  87.5934982
  99.3295765  14.6647000  88.9596081  96.3485718  43.5607910  60.5607939
  95.7703114  44.3145704  60.6777096  97.2018147  43.8629103  60.8721495
  10.0511459  82.4887870   2.5644016   9.4242767  83.0401968   3.0326080
   9.6522526  81.6186617   2.5654411  17.2527222 100.3954338  15.4179096
  17.4666408  99.9657510  14.5897484  18.0057911 100.9584640  15.5971336
  93.7586689  78.6825275  60.6915331  94.1758823  78.4111738  61.5091705
  93.1549644  77.9696989  60.4826212  77.1241951  59.7801113  77.8584433
  77.1681976  58.9746761  77.3431063  77.2367620  60.4814434  77.2168064
   5.5962709  86.3556290  83.7714005   6.4808801  86.6801453  83.9398766
   5.0465539  86.8199158  84.4026566 101.0755157  82.9196930  52.0644712
 101.1488914  83.8095284  52.4094963 100.5681896  82.4478054  52.7249098
  73.0340052  69.9786949  56.8676615  73.4956312  70.7883739  56.6496086
  72.7087450  70.1204062  57.7566814   2.7649835  85.8877754  78.0875349
   3.0765298  86.6403008  77.5846624   3.2129815  85.1371002  77.6976347
  93.6137104  59.5950317  79.0612078  94.1179562  60.3861904  78.8713789
  94.2720699  58.9437485  79.3033314  14.8820642  86.2847614  59.0737438
  15.1115754  85.5489445  59.6412992  14.6784166  86.9987774  59.6778488
  99.9618244  57.8894043  80.7245255  99.1581440  57.4542236  81.0090446
 100.6152058  57.6357985  81.3764477   1.3407281  72.0126867  73.9399767
   0.8727029  72.7490473  74.3336248   1.6309026  72.3407650  73.0888605
  88.7413216  61.2838745  65.8082914  89.1873932  61.4925146  64.9874878
  89.3547153  61.5571642  66.4904213   1.1217359  59.1634798  69.7113752
   0.4446176  58.5528374  69.4200659   1.5924791  59.3984175  68.9117241
  99.6928501  49.7108459  67.2451878  99.1109753  48.9812899  67.4582672
 100.4292774  49.3043232  66.7884064  87.2909641  61.2876844  55.9634590
  87.9953766  60.7470942  56.3209343  87.0378971  60.8459806  55.1528454
  95.2519989  37.1244335  82.2120476  95.2872372  38.0756354  82.1110344
  95.9577847  36.9224954  82.8263092 101.8351936  86.9948101  70.2985477
 101.4951801  87.8508377  70.5589962 101.7493439  86.9829273  69.3452787
  13.8612369   1.7731494  72.8478718  14.1228870   2.6217860  73.2050705
  13.0952839   1.9666404  72.3074007  39.0151858  93.0527496  37.0724201
  39.0818095  92.5148869  37.8614068  39.7969818  93.6046886  37.0920897
  27.7743104  47.7707529  86.9578838  27.9677251  47.8871441  86.0276794
  26.8850568  47.4169540  86.9751740  95.8455849  58.0175924  79.8338413
  95.4193974  57.1607208  79.8145866  95.8554173  58.2594442  80.7599354
  77.6145649  79.4792891  76.7392206  76.9803667  79.1299200  76.1131477
  78.1019878  80.1377773  76.2442017   2.0214322  49.3239117  75.7092237
   2.6121572  49.9668646  76.1015081   2.5967458  48.7411451  75.2136087
  56.3618140  14.2275612   2.4518108  56.0984854  14.4906275   1.5699387
  55.5373816  14.1233723   2.9268742  70.7451391  55.5575848  87.5240993
  70.0747967  54.9851704  87.1509743  70.8838177  55.2191019  88.4086514
 110.9863758  49.1420031  65.0208282 111.6035366  48.6375904  65.5508375
 111.3038921  50.0432968  65.0762987  97.8027534  70.6017160  68.0301237
  97.7062893  69.7137833  68.3743668  98.6881065  70.8622026  68.2841444
 100.5191612  71.5500259  57.1551514  99.9046421  72.1527958  57.5738001
 100.9020519  72.0572042  56.4393330  88.1348948  16.8208497   0.5238724
  87.3398642  16.5193074   0.9634495  88.5863547  16.0167592   0.2672482
  86.5889549  57.7772713  73.2982683  85.8882713  57.3502398  73.7911367
  86.5300369  57.3985052  72.4211740 109.5011234  49.9899912  87.7556801
 109.0407276  49.8541164  88.5838223 110.3951359  49.6941805  87.9273224
  83.5484505 102.1566963  43.2043743  82.8195477 101.7447853  42.7404118
  83.4937000 101.8079853  44.0941143  19.9963143  23.1874299  55.7330465
  20.4111436  23.6756086  55.0218248  19.5251134  22.4790859  55.2943563
  36.0492805  91.0585259  11.9645500  36.4853290  90.8937691  11.1285210
  35.4895214  91.8167852  11.7973804  76.5211105  92.0555878  78.6308336
  77.0661116  92.5731182  78.0380726  75.8151054  91.7219830  78.0772161
  87.9496574  61.8606615  61.4408541  87.7558231  61.2362528  60.7417297
  87.1026707  62.2525549  61.6536045  84.1420937  69.6590614  77.1876812
  85.0214100  69.8901415  76.8882799  84.2844391  68.9809465  77.8480864
 111.2656212  92.4681664  55.8043623 111.7555141  91.7373371  55.4273796
 111.6697884  93.2485104  55.4249525 101.1805439  74.2160177  65.6208992
 100.7252026  74.9923944  65.9466839 101.6549873  73.8799143  66.3812733
  21.2160733  43.9926815  71.9126034  22.1491101  44.0793037  71.7172480
  21.1855939  43.7756538  72.8443766  73.5340023  52.3575592  51.8511581
  73.5442591  51.4110279  51.7090178  74.4580364  52.6022530  51.9013023
 101.8280125  55.2636147  31.7295623 102.0244312  54.5404053  32.3250604
 101.0192108  54.9997282  31.2908769  74.8687696  56.0135698  68.1669760
  73.9536810  55.9397125  68.4378815  74.8476410  56.5969706  67.4084044
  95.3918171  72.7654743  90.6674290  94.5631409  72.2892475  90.6151772
  95.2440357  73.5602808  90.1549149  94.8108292  66.7918825  66.1417961
  94.5183945  66.7097521  67.0495224  95.7664394  66.7885065  66.1967850
  73.9780092  56.3712311  77.9952669  73.4904337  56.7874527  78.7060833
  73.3361483  56.2684441  77.2926426  65.9732676  67.8910303  47.8102064
  66.1643600  68.8193607  47.6763487  66.3467693  67.6909494  48.6685133
  93.6952019  76.1803675  47.8633070  93.4853268  77.0839405  48.0994129
  93.0195808  75.9348774  47.2312450  88.0699305  25.6761973   4.3588448
  87.8893237  24.9332326   3.7829876  87.8062300  25.3749745   5.2283001
   0.4339650  55.0634527  83.0219078  -0.1081035  54.3870497  83.4279537
   0.0048593  55.8865547  83.2555771  27.5067000  19.6097510   6.4755440
  27.6163821  19.0134041   7.2161961  26.5891175  19.8788636   6.5185738
  93.7536144  26.9940734  53.4233379  93.5997391  27.1160412  54.3601799
  92.9319382  27.2580242  53.0093050  71.1923504  28.5270095  90.9032536
  70.7508898  27.8127742  91.3628292  72.0985889  28.2315373  90.8157253
  84.1427326  56.6159248  74.0966415  84.4348621  55.8220148  74.5445251
  83.7322807  56.2996340  73.2918358  75.2001858  68.3270597  57.4689484
  74.5048332  68.9834309  57.4254942  74.9038553  67.6254559  56.8891430
  19.5245366   7.2714226   2.9414749  18.9299111   7.3139994   2.1925831
  20.0377040   6.4768021   2.7949715  97.7057552  89.1788101  80.2651215
  97.2513676  89.9186134  79.8620701  97.6092052  89.3225002  81.2065315
  56.0958719  70.8050299  73.5568857  56.4129591  71.5114594  72.9941750
  56.5446138  70.0230217  73.2354403  97.0043850  70.4885674  65.3031492
  97.0662117  70.5061960  66.2581873  97.8824520  70.2441263  65.0107622
  90.6952381  89.0769958  67.9286289  91.5135860  89.5708942  67.8776741
  90.7711411  88.4160519  67.2404242  91.0280132  90.5275440  44.6743917
  91.9017220  90.6018543  44.2905426  90.4456425  90.4115963  43.9236355
   8.5415128  59.8310518  61.1561680   8.6111405  59.7932339  62.1100855
   8.3294538  60.7452059  60.9675503 106.3443756  77.9294491  69.8029613
 106.3813877  78.6351538  69.1573286 106.3172817  78.3788204  70.6476879
 107.0878983  61.8170452   5.7695925 107.0961857  62.7683783   5.6641060
 107.3178864  61.6758823   6.6879654  86.0667419  48.3413029  26.8041611
  86.7553139  47.9768038  26.2480712  85.4054928  48.6590862  26.1893487
  68.2828903  76.2198830  73.6900949  68.4816933  75.3175259  73.4401751
  67.6880980  76.1364841  74.4354105 108.5927963  60.8255577  41.4610291
 108.3008003  60.3591824  40.6777859 108.2822800  61.7222595  41.3355637
   0.9704927  43.5135746  78.7362385   0.9208158  44.3305874  78.2400036
   1.8062451  43.1259584  78.4763956  17.5549462  86.7638397  60.7025433
  17.6274255  86.3074970  59.8642540  16.7325357  86.4479828  61.0768652
 103.1699181  48.7233162  35.9728122 103.0261707  48.0146503  35.3456235
 102.3100567  48.8736153  36.3655972  84.7723484  52.3583746  22.1637368
  85.0277901  52.0503807  23.0332875  84.8397064  51.5834999  21.6058326
  85.7448578  74.8968649  66.4306641  86.0042667  74.5108128  67.2672653
  85.9491920  74.2229891  65.7823038  77.6298428  80.5757904  72.1424675
  76.7462873  80.2432251  71.9844580  77.7895355  80.4003048  73.0697918
 108.3874702  79.1083241  53.5168076 108.5116005  78.2197380  53.8503408
 109.0503025  79.6291351  53.9702892  91.8443160  11.7219393   0.4225063
  92.0006137  10.8040707   0.2004051  91.4378028  12.0920889  -0.3610516
   3.6205056  46.0298586  50.4587078   4.3909886  46.5472507  50.6929970
   3.1505826  46.5730619  49.8259926   7.6654294  72.4867678  78.8570499
   7.0312265  71.8123388  79.1002941   7.3599580  72.8079605  78.0086613
 105.9518623  85.1745129  51.9847965 106.7530537  85.5306911  52.3688126
 105.6652451  85.8445930  51.3642550  59.3480778 101.5985775  84.7407627
  58.8304806 100.7982635  84.6523094  59.3887091 101.7544842  85.6842995
 100.1355171  70.4128170  28.5720825  99.3816853  69.9491549  28.2074094
 100.7206631  70.5428839  27.8258109  98.0588055  34.3485808  84.4911861
  97.4734306  33.8908577  85.0945568  97.5226212  34.5125198  83.7153912
  45.7926705  77.1805525  54.5280266  45.1974538  76.4651871  54.7520685
  45.2199033  77.8770971  54.2071009  91.4029121  82.2924232  48.3138180
  91.6992283  81.8573284  49.1132689  91.0200596  83.1156731  48.6169958
  12.7114347  59.6768141  58.7249851  11.8819287  59.1991758  58.7293530
  12.4717096  60.5708981  58.4813023 111.5050316  83.1439209  55.6899500
 112.1635342  82.4947834  55.4425049 110.7467079  82.6253605  55.9587765
  56.2597708  25.6802170  14.0854836  55.5962138  26.0243170  14.6834183
  56.6277461  24.9253504  14.5448303 111.8802929  60.6024265  63.7420702
 111.2744713  61.1504984  64.2408943 112.0456123  61.0972691  62.9395533
  98.0909781   3.0307477  10.1086140  97.5122218   3.5965579   9.5976162
  98.9587550   3.4218495  10.0074673 100.6700420  43.0830240  84.2511845
 100.1171017  42.9616785  85.0230503 100.0525761  43.2346439  83.5356617
 102.5617218  47.5604677  47.3746061 102.5189972  47.2934914  46.4563847
 101.6648483  47.8144503  47.5921679  34.7513251  50.2735036   5.7361031
  34.7093920  51.2072651   5.5297947  35.5213647  49.9580472   5.2630711
  41.7764811  36.0168736   8.0913353  42.5266795  35.8485882   7.5211430
  42.0262103  35.6375592   8.9339352  86.4653015  75.9603930  71.6931820
  86.4284134  76.2398338  72.6079369  87.3426819  76.2087584  71.4020681
  71.0650444  95.9306526  19.4340813  70.3539419  95.5578709  19.9552357
  71.2489843  96.7737865  19.8482418  12.6572994   7.2019786  41.2588358
  13.2881073   6.6304130  41.6965866  13.1502251   7.9995746  41.0662079
  74.4776964  40.6481266  73.4000492  74.8583460  41.4444780  73.7703943
  74.8339272  39.9402690  73.9369583  79.0665913  61.4036798  71.3211060
  79.2872095  60.4752302  71.2466717  79.9129295  61.8506098  71.3349247
  88.9157443  14.1795628  13.5598946  89.0264754  14.7625487  12.8088284
  88.0082564  13.8811057  13.4996796   6.9600300  51.2099068   1.3000202
   7.6030545  50.8345311   1.9015598   7.3304515  52.0567887   1.0514164
  90.3669930  65.0958538  64.6704340  90.2627850  64.2151594  64.3102217
  90.0829887  65.0172853  65.5811501   7.2003606  72.6893091  75.9730816
   6.4555791  72.8189993  75.3859663   7.1596673  71.7629290  76.2105656
  15.4249623  34.6267128  87.9732323  15.6898740  35.0837827  87.1750259
  15.3712991  35.3146863  88.6365891  22.5301937   1.8932361  58.7489843
  22.2283653   0.9882850  58.8276625  22.4217323   2.2590751  59.6268415
  89.9373150  81.0816574  43.9786911  89.3456173  80.8121300  44.6811676
  90.7805347  81.2119293  44.4125652  96.2141800  36.7816973  47.1848488
  95.7308769  36.4947438  46.4100504  96.0187912  37.7159905  47.2566032
 101.6324902  46.5821171  53.9078665 102.2939587  47.0339632  53.3839083
 100.9786606  46.2935209  53.2711172 108.6175060  61.4847612  82.3286057
 108.8454342  62.0274496  81.5737820 109.4430923  61.0751343  82.5871277
 103.7537289  74.5102644  83.8123322 103.4181118  74.8034430  82.9651928
 103.1859207  74.9353981  84.4550514  73.6331701  94.8341274  60.3407335
  73.3297825  93.9289570  60.4104233  73.5885620  95.1712418  61.2354946
   3.7687543  68.6547613  23.1162548   4.0910676  67.9666376  23.6983395
   4.5296434  68.8983774  22.5890636 104.3398380  40.2432728  55.3523970
 103.6316204  40.8333731  55.0946331 105.1329708  40.7738686  55.2773333
  73.5127926  63.3824921  74.1602659  73.1981707  64.0649748  74.7531080
  73.7976265  63.8565350  73.3789968  95.0309849  33.3939266  41.4404058
  95.1916313  32.4831963  41.1934376  94.1083050  33.4140420  41.6943502
 104.8550701  26.2097669  48.8698339 104.1070366  26.8042707  48.8127851
 105.6038189  26.7400670  48.5970926  61.2374835  24.0445845   7.8900242
  60.3806643  23.6450665   8.0399609  61.5021662  23.7268107   7.0267773
 106.6159248  59.2610407  48.0212402 106.2976837  59.8988008  48.6601543
 107.5454712  59.4661283  47.9207039  83.6116791  93.8862038  79.0859222
  82.7157497  94.1497040  78.8759041  83.9661121  94.6207047  79.5870447
  73.9084435  71.2289810  44.2112398  73.7704468  70.7184172  43.4134197
  73.0343866  71.3221502  44.5901537 105.6561661  75.1317358  15.3178823
 105.0632477  74.7461796  14.6728826 105.4083729  76.0557938  15.3487432
  82.0126490  26.2922280   1.1843872  81.6161399  27.1185916   1.4603138
  81.7332320  26.1842816   0.2752686 111.0972309  80.9709167  86.0296535
 111.8848419  80.9807110  85.4857731 110.6901836  80.1241589  85.8464813
  67.4704981  52.0351934  51.9313574  68.3460379  51.6770172  51.7851639
  67.0235109  51.9251871  51.0921144  82.4583626  61.1375809  65.2831650
  81.6898727  61.7041779  65.2151012  83.1589127  61.6320133  64.8577261
 104.6300507  97.4385452  28.0969858 104.9647713  97.7136040  27.2434449
 105.4128838  97.2161198  28.6009049 108.7197876  64.1520071  66.8248892
 109.6627426  64.3142748  66.7976856 108.5837841  63.6658144  67.6381207
  70.4747057  66.9312429  89.2095566  70.3344488  66.1375046  88.6932755
  69.7335768  67.4950838  88.9880943  31.1410526  98.8526462  15.8665752
  30.6491379  99.5539640  16.2936592  30.5045513  98.1462406  15.7566357
   0.2943757  32.3019457  57.4406672   0.1396421  33.0304670  56.8393755
   0.3842881  32.7151179  58.2994080 108.9281464  91.7442513  65.7797289
 108.4911060  92.2414494  65.0883341 108.2166767  91.3029003  66.2436771
  92.2972107  92.6045704  61.2949800  92.9480934  93.1012726  60.7991266
  91.5469837  92.5365639  60.7044172  43.1978373  55.5471985   2.9212284
  43.6194758  55.4678433   2.0655632  43.4285788  54.7382157   3.3778858
  73.2937050  85.5480099  85.3817463  72.7779722  86.3498497  85.4672432
  74.1209745  85.7474518  85.8200169 109.0199852  53.9530468  68.9408875
 108.7619686  54.8748064  68.9444113 109.3632507  53.8037777  68.0599117
   0.5712751  75.7942772  70.1190376   1.4961484  75.7512665  70.3619242
   0.5739453  76.1388636  69.2260170  87.6936054  67.1232891  66.5557194
  88.3938789  67.2499561  65.9155560  86.8928051  67.3493052  66.0825825
  99.9516773  96.6938400  69.7904730 100.1896858  96.3445187  68.9316654
  99.2306519  97.2975826  69.6120262  82.6584435  55.7424736  82.0821285
  82.0265388  56.2257385  81.5497971  82.3987865  55.9235954  82.9854584
  69.7410440  76.1038542  49.6146727  70.6734037  76.0214520  49.4142914
  69.6145487  77.0369720  49.7865009  75.7065868  68.5306883  72.5550699
  75.8399773  69.0266848  71.7473412  75.0945759  69.0621567  73.0641937
  92.8748131  75.3469419  59.6482944  92.7745628  75.5567646  60.5768204
  91.9979000  75.0878239  59.3652582  11.8767933  79.3937992  14.8388290
  11.4264587  78.6955212  14.3635941  11.3107304  79.5768474  15.5886936
   5.9506753  31.9236922  82.4408054   6.4068463  31.1229730  82.1819973
   5.4968789  32.2079372  81.6473961 101.4360142  46.2672567  77.9923105
 101.6946507  46.9604635  78.5996056 102.0508099  45.5545664  78.1664753
  94.6915436  71.8680334  83.7988949  95.2550220  72.6231813  83.6301136
  95.0141239  71.1908340  83.2042694  37.7144292  28.0793238  66.4118147
  38.3760980  27.3978233  66.5300417  37.7037576  28.5499501  67.2452593
  21.3345436  67.1314632   0.5357075  21.7278675  67.0052301  -0.3277779
  22.0382599  67.5033914   1.0673904  74.8651271  57.7314561   5.4090786
  75.8182482  57.8075211   5.4537582  74.6030669  58.3831112   4.7587681
  76.2904978  93.5662651  32.5662065  75.6995964  93.9354134  33.2225609
  75.7110834  93.1372452  31.9365644  73.8509321  87.7983665  70.9912443
  74.4378996  88.5461617  71.1030531  73.2113791  87.8881550  71.6977453
  84.5038795  99.3226719  32.7583146  83.5671997  99.2577744  32.5721765
  84.5504093  99.7874260  33.5938215  81.9993114  72.1541119  43.6945772
  81.3970184  72.2731113  44.4289494  82.3333359  71.2633801  43.8006783
 110.0292587  88.0474186  70.3154993 110.7723427  87.6357651  70.7566452
 109.3164349  88.0003548  70.9526014  86.7834377  37.6881313  81.8494987
  85.8626938  37.4493432  81.7425442  86.7659378  38.6220264  82.0586967
  90.1026249  75.8813381  68.2695341  90.2328205  76.5995646  68.8887501
  89.8443604  75.1385117  68.8151884  87.1746826  60.2911472  59.4002295
  86.4387608  60.8918762  59.5176220  86.7734241  59.4777393  59.0943050
  14.5652440  45.7303190  74.9932384  14.3406728  46.3177347  75.7148647
  14.9568132  46.3015032  74.3324423   2.2102502  21.7279792  82.0017529
   1.7681554  22.5729108  82.0846748   2.4982026  21.6968441  81.0894299
  17.4185613  84.2948818  43.3803320  17.7922013  84.1644382  44.2518854
  17.8302434  85.0978565  43.0609703  11.2500241  59.8099804  71.6985321
  11.5323403  60.5400038  72.2495222  11.7080262  59.9449587  70.8689308
 101.3947964  67.3999786  25.2679324 101.5677166  67.8452110  24.4384170
 100.4462433  67.4624586  25.3801060  16.3684610  25.5581641  73.2690001
  15.4519799  25.5433202  73.5448074  16.3382772  25.3846788  72.3281384
  81.8002987  52.7482414  90.3908062  81.3033390  52.0787525  89.9206448
  81.8947220  52.3984003  91.2767696  50.6628179 105.5908334  65.1709652
  49.9185800 105.9354833  65.6644821  50.6166124 104.6432878  65.2984524
  76.5031147  73.3773613  60.6789303  76.5627670  72.5108051  61.0811138
  76.5421200  73.9867306  61.4160728   5.6137136  79.9260664  61.9424629
   6.5176538  79.7715759  62.2167921   5.3560022  79.1171312  61.5003729
 110.3036308  40.3213120  47.3459196 109.3715954  40.4466629  47.5243378
 110.5158615  40.9929180  46.6977406  96.5879059  61.5801334  57.8595591
  97.0740509  62.3770475  57.6478434  95.7221794  61.8909359  58.1244326
  12.6572755  49.0796661  59.0794754  13.4196332  49.6441889  59.2073965
  12.9508927  48.2132292  59.3610954  24.0569261  96.9385242  78.6548805
  23.8608697  97.4096966  77.8450775  23.7468675  96.0472488  78.4944820
  91.6366196  87.4895763  76.0160637  90.9239388  87.4452782  75.3785992
  91.7047787  88.4189224  76.2349176  72.1920013  75.7398844  61.8661261
  72.9013109  75.1176453  61.7051077  72.4186850  76.5039301  61.3359547
  58.3030319  81.8317604  83.5414410  58.2980633  82.7396393  83.8446808
  57.6689434  81.3877106  84.1044617  84.8715401  27.3984146  45.0585365
  84.3415165  28.1795573  44.9000454  85.5388355  27.6842833  45.6824160
 102.7402401  57.8665543  78.1790400 103.0855274  57.1760988  78.7449694
 102.7004528  57.4666357  77.3102951  97.9986763  40.2515507  78.4514570
  98.4991455  40.0468302  77.6616144  98.1844425  41.1753035  78.6199951
  78.2314396  51.6333199  41.6977787  77.4739790  52.1392155  41.4035749
  78.1036425  51.5376616  42.6415730 105.5109119  63.3368731  59.5823288
 105.3943157  62.6109266  60.1952219 106.3667774  63.1788301  59.1838932
  83.3620696  14.9872868   1.0969162  83.3843665  14.6004288   1.9721794
  82.8814559  14.3518584   0.5663776  99.9058342  40.0513220  34.4856334
  99.0893936  40.2776909  34.0402007 100.5901241  40.2473068  33.8456655
  99.1167927  41.0154009  48.9927721  98.5680389  41.5771246  48.4454441
 100.0134277  41.2591982  48.7628841  68.1538582  78.0347729  42.8671360
  67.8364658  77.4044609  42.2204590  68.9722729  78.3658695  42.4972630
  93.7993050  21.5933061  80.8255672  94.0570450  21.4857197  79.9100208
  94.2015934  20.8509469  81.2764549 110.9769058  52.1198177  73.9534235
 110.8693790  52.8284502  74.5878601 110.4434586  52.3858547  73.2044983
  89.4494438  49.9711800  36.3050771  89.2533779  49.1913462  35.7858014
  89.7322655  50.6218910  35.6625700  27.9172615  79.6353935  22.2002506
  28.1892208  80.0199483  21.3669586  28.5660080  78.9528988  22.3721504
  84.4329357  65.8305454  66.1852551  84.6877003  66.7524624  66.2226725
  83.4758854  65.8465815  66.1793327  74.9803591  73.4880924  84.4162750
  74.1352272  73.7888193  84.7502518  75.6222153  74.0558147  84.8428154
  89.6983910  62.8333759  63.2749176  89.1092968  62.4637222  62.6172256
  90.4072380  63.2278776  62.7668524  89.4742775  76.9778061  83.0265808
  89.4770622  77.9259586  83.1578445  90.3978348  76.7472219  82.9260540
   5.7633355  19.8897374  61.7233324   6.6806367  19.8308933  61.9904041
   5.3830960  19.0515649  61.9862318 101.7642307  46.1192560  66.1805820
 102.3376942  45.6161451  65.6024408 101.5143585  46.8847752  65.6631088
  96.8830109  58.1514645  48.9584303  97.0179558  57.6750946  49.7776318
  97.5925636  58.7934971  48.9350319 100.4776669  66.6236210  53.1373787
 101.2030888  66.0217619  52.9707479 100.6305504  67.3545885  52.5385952
  85.7225132  18.7566578  57.0564747  86.2775517  17.9827082  57.1522379
  84.9809647  18.4560764  56.5311289 102.4469090  90.8328629  43.2512712
 102.9498291  91.5137768  43.6981106 102.0983505  90.2897167  43.9581871
 111.6127968  66.2259674  88.0861473 111.1683655  65.7746887  88.8038254
 111.1130619  67.0333004  87.9648876  64.5313597  68.6186934  44.7545433
  65.4292202  68.9402533  44.6728277  64.6229506  67.7487326  45.1431417
  84.6738052  74.7753143  48.6848736  85.2440929  75.4729891  48.3619928
  83.9045429  75.2326632  49.0244389  77.2414684  54.8295641  69.3535709
  76.4458132  55.1908493  68.9628839  77.9422760  55.0938368  68.7575340
  99.1145420  51.5141010  74.8462915  98.7343407  51.0950375  75.6183434
 100.0478935  51.3079643  74.8970938  69.8435402  63.9250708  60.3790855
  68.9638901  63.9994907  60.7491016  69.7986746  64.4103384  59.5552349
  15.4591850   1.9784087  91.2100506  15.5167869   1.7708797  90.2773952
  16.0795978   2.6966399  91.3343716  68.2909250  96.2231636  38.3063245
  69.1202307  96.1734772  38.7817359  67.6657391  96.5572357  38.9495730
  97.8458595  43.8466549  27.9403353  97.3247814  43.0450678  27.9868746
  97.2552681  44.4942522  27.5555706  70.6393433  54.6761799  79.8654318
  70.1143122  54.9389124  79.1094255  70.6015444  55.4282856  80.4563141
  23.0663827  97.5525188  88.5214710  23.0627397  96.6583061  88.1799984
  22.9391244  97.4493027  89.4645405  85.4960728  86.8306065  61.9396019
  86.0322857  86.5333271  61.2045240  85.6387520  86.1738396  62.6211691
  18.2407048  95.6837082  46.0753918  19.1130403  95.9283447  46.3843155
  18.4032872  95.1419353  45.3032017  98.4898090  91.5786457  67.6522207
  97.9776955  92.1721458  68.2015276  98.9340591  91.0011387  68.2729912
  93.3418560  52.3915958  58.8879347  93.4908009  51.4665651  59.0838146
  93.4709263  52.4598980  57.9419374  96.4759541  64.7547007  52.7968740
  95.7951927  64.1468096  53.0854368  96.7051697  64.4572020  51.9164276
  96.0994816 104.5286274  88.7231731  95.5526638 104.3207645  89.4808197
  96.9323349 104.0919971  88.9018917   6.3975003  87.3122597  51.3668728
   6.8874124  86.5068626  51.2008476   6.9098619  87.9971600  50.9371805
   2.7407125  77.5525427  54.8346567   3.2577184  77.7928066  55.6035519
   3.1152776  78.0710840  54.1225863  76.3793711  45.0084298   3.0311489
  75.4846720  44.8218148   2.7467060  76.9311862  44.6544831   2.3336887
  96.1640167  63.6777210  47.1032763  96.5221882  64.5545149  46.9647932
  95.5248547  63.5661936  46.3995218  95.6083584  54.8994637  66.8288517
  96.3360786  55.4286766  67.1553373  94.8287392  55.4216290  67.0179892
  61.5959549  84.7575665  68.9159155  60.8646870  85.2954102  69.2195654
  62.3656893  85.1400280  69.3371773  98.0766392  53.3112240  27.1811390
  98.8481808  53.6382103  27.6437879  97.8096867  54.0374041  26.6175532
  95.7495594  40.7605791  71.3438034  95.9398365  40.8251858  70.4079342
  95.5036449  41.6494274  71.6001368  84.4636536  49.5891142  84.1291809
  85.1488400  50.0928211  84.5685387  84.3668365  48.8003063  84.6626949
   7.1280053  94.6498680  76.4300346   7.7154687  94.1559315  75.8580685
   7.7077058  95.0609970  77.0712376 106.3603974   7.0797271  60.1663733
 106.9064713   7.6032084  60.7528877 106.9790221   6.6851729  59.5516682
 109.3000412  61.8636322  50.5104971 110.1990700  62.1641636  50.6433916
 108.7774754  62.6655865  50.5069590  42.9151634   2.6830691  62.0805216
  42.4468998   3.3195895  61.5403461  43.3992485   3.2150096  62.7121305
  67.1994352  88.9655590  46.0009146  66.6062355  88.6972713  45.2992296
  68.0670738  88.9588928  45.5966997 108.6349010  93.6441517  63.6073923
 108.0668736  92.9612064  63.2507801 108.1302547  94.4514275  63.5080767
  97.0021439  91.2173557  37.8847027  96.4344597  90.7691097  37.2577691
  97.6350021  91.6870880  37.3414922  96.5622330  88.4666157  32.7767134
  96.3084316  87.6127720  32.4263287  96.1991119  89.0979385  32.1555805
  13.8009885  65.8948040  75.7593632  13.3504632  65.7007265  74.9374199
  14.0461591  65.0370932  76.1064339  76.4102507  95.2698040  61.9954062
  76.8448305  94.4801998  62.3177242  75.5654764  95.2789116  62.4454117
   2.8877404  96.5751171  69.0619087   2.3515561  96.5668106  68.2690191
   3.3378461  97.4195480  69.0378284  62.3725796  89.8049736  76.6418552
  62.4286413  89.9043846  77.5922251  62.3984337  88.8589954  76.4980507
  83.0994892  98.9904499  69.5464420  82.5109005  98.7537766  68.8296652
  83.3643341  99.8894882  69.3519640  20.2769521  88.3185196  66.2882614
  19.8791268  88.6193466  67.1052504  19.5797208  87.8336334  65.8466816
  11.9067720  40.1854610  77.7037191  11.0408166  40.5692196  77.5655985
  12.4956658  40.7282066  77.1794415  86.4660835  76.8132782  48.1894445
  85.8330059  77.5166130  48.3335495  87.2131348  77.2447157  47.7747107
  54.5587067  78.5814832  12.0643139  53.8609795  78.6555027  12.7154064
  54.1987423  78.9946316  11.2794781  91.7639351  64.9936152  75.2678776
  92.0962524  64.1093254  75.1135206  91.9241238  65.1506424  76.1984253
  35.0478986  66.6955233  57.3470879  34.1971353  67.0573044  57.5951862
  35.1870683  67.0032930  56.4514637 101.7431641  50.9151316  74.3167925
 101.9431591  51.1697626  73.4160185 102.4466705  50.3121519  74.5570517
  37.0243505  43.7192011  61.8610907  36.6155198  44.4484234  62.3272657
  36.5398076  42.9468536  62.1525097  66.1894941  61.1378956  77.1571779
  65.8141422  61.8566608  76.6485310  66.8199348  60.7287025  76.5644407
  56.1445384  30.1663296  12.5123787  56.9561724  30.4395669  12.9399586
  56.4262919  29.5543282  11.8324471 111.4115715  64.3813753  66.3003922
 111.0533810  65.1375484  65.8354998 111.0211468  63.6245489  65.8633423
  11.8393425   0.8212585  62.6778936  12.2610954   1.5730971  62.2618580
  11.4063839   1.1862487  63.4496212  20.6894974   0.5298823  64.7786045
  20.9041695   0.5569285  65.7110310  21.3876823   0.0049418  64.3872070
   9.9378541  83.1434441  68.2318544   9.2810968  82.8206730  68.8488770
  10.7330850  82.6588535  68.4532404  24.4076542  68.2419275   5.4711723
  24.3839268  67.4712692   4.9039364  24.2570213  68.9793466   4.8797703
 108.7684870   1.0014171  71.2149477 109.3867398   1.7238158  71.1047506
 108.4041358   0.8625335  70.3407669  85.8907890  52.8235388  70.5902147
  85.7190704  53.2675505  69.7597933  85.0221729  52.6475143  70.9518003
  91.9279532  19.8394101   4.2817593  92.2318034  20.7025712   4.0009308
  91.4810710  20.0014250   5.1125908   8.6829522  60.2457523  69.1609526
   8.0839589  59.7263098  69.6972513   9.1575292  59.5997429  68.6378098
  21.4697793 100.7064438  64.1709709  21.7849782 101.4611816  63.6737299
  20.5423692 100.8892822  64.3216801 107.5306702  87.0040512  77.3826647
 107.6148319  87.8371048  77.8465366 107.0023441  87.2114182  76.6118860
  46.1395793  26.5673678   9.9571228  45.4719023  27.2205250   9.7477722
  46.8913989  27.0800583  10.2540398  75.8144426  89.9985409  70.7587051
  76.5003347  89.9083138  70.0971556  75.1558971  90.5574894  70.3462410
  94.1042519  80.7042408  52.8667021  93.9047050  79.8713303  53.2940960
  95.0473404  80.6712437  52.7063084 108.1972790  57.2318649  56.3602591
 108.2219505  58.0985308  56.7658567 108.4290218  57.3891020  55.4449415
  30.1752236  82.3668957  69.6830893  31.1258748  82.4691486  69.7282314
  29.8504785  83.2404327  69.4646406 101.8451786  61.1406946  63.3203363
 102.3899841  61.9277096  63.3261919 101.1406040  61.3417101  62.7043867
  47.0346121  15.0348275  13.7893009  47.8516440  15.2650397  13.3469486
  46.7108493  14.2708819  13.3120155  18.1772092  56.0593796  90.3924656
  17.7058366  55.4613686  89.8124409  18.1395105  55.6391287  91.2516499
  79.6132135  79.9791956  70.2218390  78.9966011  80.1325512  70.9377337
  80.0720978  79.1762924  70.4688406  28.6495594   1.2149829  49.7992516
  29.0920929   0.8743876  50.5766773  28.4358887   0.4364890  49.2849302
  12.0539334  85.0271320  38.5751081  11.5305761  84.4629574  39.1443467
  12.8336862  85.2311230  39.0914392  56.0108618  35.6824582   1.7162704
  55.8793788  35.0585835   2.4302197  56.7636733  36.2058537   1.9911480
 101.9805431  75.0547218  55.6422234 101.2874794  75.0674200  56.3023233
 101.7700768  74.3029261  55.0883865  85.9880447  67.6888084  62.7772093
  85.2923679  67.1533155  62.3957586  86.7770100  67.4319220  62.2999525
  12.7315286  73.0917215  58.7771463  12.7015451  73.6787558  59.5326090
  11.9460252  72.5513935  58.8623619  18.4261850  93.0427647  41.6947937
  18.0656293  92.4169827  42.3229933  19.3583921  92.8296375  41.6525698
  85.8763027  68.5846567  65.2481461  85.9910107  68.2330513  64.3652821
  85.2145195  69.2691183  65.1492500 102.0413876  68.1965494  63.5248756
 102.7692318  67.9207039  62.9677677 101.8541908  67.4324512  64.0701675
  90.7010651  53.6710882  71.1016846  90.3203773  53.4378672  70.2549744
  91.3633823  54.3299437  70.8931875  96.9591236  88.1630039  67.9717922
  96.1346149  88.0701542  68.4490728  97.5583076  88.5601997  68.6038113
  79.5833397 101.2431908  54.9453163  80.2943707 101.8802357  55.0148726
  79.7721577 100.5981350  55.6268454  11.4334348  77.1933460  47.2158384
  12.2241166  77.5145578  46.7823839  10.7376435  77.7723169  46.9045687
  10.5377153  54.6257114  54.1670752  10.7010701  54.9665928  55.0464773
   9.9581674  55.2718782  53.7635565  29.6041111   1.0149402  57.1889782
  30.1920513   1.7684573  57.2415543  30.1144222   0.2876586  57.5451851
  96.0759406  19.0026753  39.4566250  96.6984992  19.0034907  40.1837158
  96.5013270  18.4789364  38.7776661 110.5600596   8.0531329  60.3543186
 111.3539124   8.3298511  60.8119917 109.8736859   8.6248034  60.6982899
  98.2238007  63.4024715  56.8137693  98.5796356  64.0829277  57.3852491
  98.9314651  62.7629423  56.7334557 102.3714256  72.8556824  49.3311119
 102.8114796  73.6323595  48.9856243 102.7358150  72.7446604  50.2092457
   1.1783841  85.7465839  54.7056532   0.5778173  86.0842133  54.0411520
   0.7856229  84.9197578  54.9855232  34.8828177  43.7737267   7.3057365
  34.4323115  43.5732739   6.4853191  35.7934765  43.9195721   7.0494938
  32.9520276  48.5795116  61.5491724  33.0454686  49.0746117  62.3630333
  33.6005071  47.8789425  61.6192102 101.1490536  83.0027962  86.7760181
 101.5878296  82.1818161  86.5530968 100.2786446  82.9228020  86.3858700
  81.5725136  76.8144417  81.7120457  81.1561966  76.1621380  81.1486435
  80.9861374  77.5702000  81.6772461  90.1360989  87.6252556  56.6235352
  89.2219067  87.3466682  56.6769981  90.4994488  87.1167374  55.8985329
   5.8818582  84.5718384  88.4548187   5.2962258  85.2192783  88.8473511
   5.3057817  84.0126610  87.9335880  90.2293968  97.2272968  58.5762358
  90.2085018  98.1551552  58.3419847  91.1515617  96.9819736  58.5009575
 107.0502853  77.8661394  51.1973429 106.8411636  78.6067915  51.7664957
 106.6474152  77.1120596  51.6278028  14.0945104  74.0041065  51.6331244
  13.6995271  73.1440163  51.7761707  14.2598203  74.0380383  50.6909180
  52.0031261  68.2664061  78.2848597  51.5018892  67.9612923  77.5286198
  51.4721489  68.9713001  78.6555576  69.6093512  73.3263111  47.6431751
  68.7483072  73.0149078  47.3641300  69.8018122  72.8220177  48.4336662
  65.1696734   5.7906430   8.5660267  65.5569510   6.1350720   7.7612782
  64.9780516   6.5676062   9.0912342   7.6754811  46.3508844  84.9810410
   7.0562699  46.8238211  85.5370426   7.2872308  46.3855743  84.1068077
 101.1032104 102.6444340  30.9599614 100.1637554 102.5336266  30.8137155
 101.4151382 103.1004333  30.1782990 104.4171143  92.7867985  81.7317295
 104.1617584  93.2117748  80.9129429 105.3195953  93.0705357  81.8775368
 106.1009121  62.6175022  56.0819912 106.7616463  62.6645994  55.3910160
 106.1009502  61.6989422  56.3512087  81.4366913  73.9755726  47.0295715
  80.8416080  74.0737438  46.2862921  82.2523594  73.6571074  46.6429186
  14.2953828  84.4259739  52.7884817  14.3410161  85.2467442  52.2980881
  14.1455510  83.7562752  52.1211815  13.8674119  74.5873499  81.1638546
  13.6614564  75.2410603  80.4956627  14.8204854  74.6209288  81.2460423
  76.2985277  86.8636608  69.7135448  76.1606073  87.2343159  68.8418674
  75.4640865  86.9940472  70.1640320  90.5598640  94.6002102  35.5931020
  90.9133148  93.9181900  35.0220037  90.4225540  94.1619587  36.4329338
 110.1408005  75.2371740  71.8232346 109.9154186  76.1452436  72.0253325
 111.0355377  75.2818203  71.4860630  57.4679141  56.6701310   9.8314571
  57.8121619  55.8998006  10.2834511  57.6840167  57.4027913  10.4082966
  61.4961052  79.6277761  60.7295179  61.9690228  79.5930815  59.8980284
  60.7260036  79.0766144  60.5902386  82.9400349  65.0467062  80.1579189
  82.7158070  64.9331045  81.0815239  83.8153648  64.6681881  80.0756550
  63.3040432   5.6175918  61.7189217  64.0642170   5.9790439  62.1746826
  63.3599762   4.6741694  61.8708229   3.6143501  28.3847420   8.5874081
   4.3704231  27.7978032   8.5780239   2.8657539  27.8137772   8.4146786
  88.5313754  18.1521456  14.1007137  88.9134555  18.5216467  13.3046436
  89.2845301  17.8641789  14.6165276  66.2490511  81.1578369  83.1177998
  66.1595964  80.3310108  82.6439095  65.6282139  81.0867119  83.8428783
 103.3078480 103.8073254  63.3348608 103.3771038 103.1118870  63.9889288
 104.0250969 103.6347675  62.7249336  70.4660034  88.9704323  68.4562111
  70.1964331  88.5296917  67.6504135  69.6835709  89.4396305  68.7458467
  33.1238034  72.3196411  84.4228172  32.8384259  72.3875856  83.5116768
  33.5239366  71.4522743  84.4844246  66.5408950  27.1676724   1.4114952
  66.1017470  27.5037758   0.6302071  66.2490134  27.7447121   2.1172333
  63.1689790  75.8684254  71.7501593  63.8390115  76.0589600  71.0936737
  63.5560372  76.1546230  72.5775051 104.7089481  62.0140123  76.4945030
 104.8713589  61.1978722  76.9675493 103.7787342  61.9804478  76.2713099
  78.4000492  42.0900393  75.0981045  78.6722755  42.3128891  75.9883070
  79.1025448  41.5313148  74.7656059  84.9933867   5.0874131   9.2845249
  85.7196574   4.4643872   9.2601013  85.0974803   5.5440037  10.1193428
  33.6039880  98.5634804  64.4747114  33.4872201  99.4892502  64.6881390
  34.4819883  98.3532619  64.7927523  57.5159983  22.9871218  12.9666138
  56.6851287  22.8529780  12.5106525  57.3022799  23.5848801  13.6830139
  52.0345926  93.1217575  78.6388540  52.1121454  93.6286545  77.8305960
  51.0921192  93.0057049  78.7592888  99.0264130  92.9817104  64.6140814
  98.9022160  93.6636257  65.2742338  99.2826653  92.2072983  65.1149416
  72.0696688 101.8199635  80.9112930  72.4415159 100.9388256  80.9507561
  71.1580801 101.6838837  80.6529999  66.1217213  78.3939171  81.4148331
  65.3516579  78.5095119  81.9714928  66.7482567  77.9260111  81.9668770
 107.0558357  69.2578506  78.7216091 107.0728302  68.3275366  78.9462519
 106.2302303  69.3757629  78.2518196  39.3413452   6.0843486  81.2336159
  39.3568806   7.0060557  81.4913845  40.1829151   5.9426612  80.8001232
  62.1128230  50.2839272  13.1759739  62.8663497  49.8926346  13.6179161
  62.3542933  50.2887242  12.2497463  70.3413820  92.7722549  41.1027908
  70.6851006  93.6649799  41.0692835  69.5333099  92.8073597  40.5909109
  41.1042885  12.3933906  55.8605909  40.9006790  11.6971988  55.2360106
  40.8646015  12.0285529  56.7124557  29.5337823  72.0765495  66.3286686
  29.6491960  72.4430895  65.4519939  30.2980474  71.5144300  66.4557695
  17.9181484  10.3254146  86.2634563  18.1548599  10.5074805  85.3540325
  18.6053852   9.7373408  86.5766907 103.9754009  62.5973177  73.5819101
 103.0418968  62.4524975  73.4275150 104.1895962  62.0191574  74.3140841
   9.2116693  79.7308588  27.6472020   8.3992055  79.4440365  27.2302127
   9.4082692  80.5722046  27.2352433  84.2889023  75.5751801  87.5198650
  83.4533310  75.3959942  87.0886517  84.9370575  75.5225086  86.8174648
  99.2994308  36.5830588  48.1688023  99.3115139  35.6321526  48.0598879
  98.5655403  36.7469954  48.7610483 104.6732330  56.5074682  73.4692526
 103.8848305  56.1040974  73.1060219 105.2216911  55.7679939  73.7311792
  97.0417023  31.0035968  58.8359594  96.2212467  31.1320877  58.3599520
  97.3151684  31.8865633  59.0845966  77.5512695  33.2801771  75.7155514
  76.6658020  33.5682702  75.4937840  77.7767277  32.6503420  75.0309324
  97.2105312  86.7463017  60.0025272  97.3404598  86.8294811  59.0578413
  97.7782917  86.0197067  60.2593136  97.7945137  68.0931854  77.7871895
  97.2453308  68.2543755  78.5544205  97.9057980  68.9554977  77.3868608
  94.6975613  62.0440578  63.1717587  95.2179813  61.3046312  62.8576851
  95.2826500  62.7978706  63.0965042 109.5596313 102.2992802  89.2203617
 109.3530464 101.3691616  89.3122292 109.6879387 102.6059246  90.1179981
  89.8695755  82.3591614  55.1706743  90.6712341  82.7482319  55.5202436
  90.1733971  81.6318035  54.6276474 101.5651035  65.9453917  64.6996927
 101.3936234  65.0791645  65.0691223 102.5122166  65.9639978  64.5623589
  97.6193523  96.9910622  87.1118355  98.5312271  97.2136307  87.2994137
  97.4629879  96.1858463  87.6051998 102.2960663  49.6641684  44.6500254
 101.8912601  49.0275097  44.0609360 103.1023598  49.2399693  44.9435902
  77.5017071  78.0549526  35.5976486  78.0105495  77.2689629  35.7964635
  77.1399355  78.3258629  36.4414239  52.9693893   1.7519301  70.3031874
  53.8189320   2.0072383  70.6627989  52.8015045   0.8866805  70.6765318
  75.9747314  74.1252518  67.1237373  75.9971046  73.1703568  67.0612812
  75.8930159  74.3021345  68.0608988  50.1740694  58.2378817  28.1134605
  49.6731806  57.4222136  28.1184626  49.6034670  58.8720179  28.5476398
  85.3378296  79.0500307  82.7191544  86.0412502  79.6310186  82.4295139
  85.7093525  78.1706667  82.6490688  63.4223799  54.0966599  20.4325962
  62.8502612  53.9448826  21.1848450  63.8356261  53.2485097  20.2709961
  21.8259481 100.4032421  87.6092148  22.1142247  99.7059631  88.1982231
  20.8772996 100.4424858  87.7307224   8.0311158  68.5941935  67.3677397
   8.7494710  69.2139864  67.2410536   8.4482148  67.7334166  67.3313046
 103.1550026  88.6987782  50.7876158 102.9690838  89.2253208  51.5650558
 103.0146885  89.2972279  50.0538540  28.0999807  87.0489311  48.7074041
  27.3298791  86.7543602  48.2211924  28.3678201  86.2846851  49.2177248
   5.2380040  47.3697281  75.7731199   6.1830094  47.2463417  75.6837606
   5.1192811  48.3195353  75.7717133  78.1886530  61.5480375  64.5938253
  78.9308500  62.1521854  64.6132803  78.5082436  60.7917881  64.1017151
  19.5975689   3.7221259  63.5331964  18.9487270   3.4856242  64.1959858
  20.3607563   4.0067214  64.0359735  83.8170624  92.4476910  68.0088377
  83.2719231  92.3971176  67.2236681  83.8720131  93.3835030  68.2023954
  14.4317105  75.1251459  75.3265190  14.8596242  75.4802990  74.5474195
  13.6257604  74.7276068  74.9969053   5.9009698  89.2971230  78.1008577
   6.1742738  89.6558666  78.9451599   6.3757089  89.8189735  77.4539185
  90.2294731  82.4015141  74.0476131  89.4139004  82.8749657  74.2116880
  90.1282215  81.5776730  74.5243406 110.8832645  88.3365917  82.5392151
 111.6640472  87.8051186  82.6945877 110.6736183  88.7102127  83.3951855
 111.0749245  57.2333050  69.3311787 110.5763245  57.4094296  70.1290560
 110.4142189  57.1936512  68.6397123  20.9091046  92.6974678  39.8691654
  21.0048154  93.4672737  39.3083811  21.7192224  92.6698017  40.3782606
  90.7451916  96.5165806  67.9540205  89.8019314  96.3780499  67.8685379
  91.0859871  95.6710052  68.2457399  76.6927004  88.7557793  75.6254101
  76.5444756  88.2150173  74.8496294  75.8276081  89.1015053  75.8452320
   6.8268159  27.1241879  84.3786144   6.0631707  27.2127724  83.8083267
   7.3923638  26.4983869  83.9261055  82.1889496  85.3147316  69.7018862
  82.8245640  85.5943871  69.0430927  81.5709400  84.7649097  69.2202282
 110.3655624  42.0395660  77.4881840 110.9621811  42.6877880  77.1138859
 109.5487976  42.5185871  77.6283789 104.5672417  48.3434534  49.0194035
 104.0516663  48.1366825  48.2398748 104.1268826  49.1015100  49.4036770
  27.4383167  12.8298301  61.9446611  27.2515110  12.2925395  62.7145004
  27.8186802  13.6331958  62.2998428  52.6945548  58.2857220   1.6781902
  52.7624278  57.3322194   1.7277050  51.8785529  58.4434216   1.2033176
  62.9560618   4.8748868   6.0163975  63.1467490   5.7384055   5.6500530
  62.7594809   4.3296282   5.2546310   7.0521310  61.5477848  76.0385466
   6.2730744  61.5197229  75.4831076   6.8258336  61.0080290  76.7959690
  36.7427162   9.6552009  26.7681217  36.0648731   9.2502326  26.2270498
  36.5122703  10.5840892  26.7853093  78.0671787 103.4119129  31.6171885
  78.0542612 104.3689537  31.6050768  77.2423983 103.1560040  31.2042999
 102.9121113 102.5762939  42.7569199 103.6712837 102.0006657  42.8492451
 102.2384262 102.0227432  42.3619890  13.7861016  55.1289797  61.0646486
  13.2068399  55.8748055  61.2209702  13.2621530  54.3644953  61.3039684
  62.6371479  66.1140871  54.6600485  62.0206308  65.9335899  53.9504290
  62.8554916  67.0404291  54.5578003  54.2524581   2.7179330  12.5153923
  54.3135981   1.8453114  12.9040146  54.9320368   2.7280944  11.8413639
  14.1983369  99.8853207  57.0929527  14.6872666  99.2671299  56.5497923
  14.8661187 100.3140163  57.6282310  18.8125375  76.2426519  82.9959393
  19.2412427  75.4101324  83.1943035  19.3490556  76.6294432  82.3040009
 106.2889290  79.0535355  83.8179779 106.6576481  78.1777000  83.9328480
 106.2939453  79.4326782  84.6968746  13.8661435  34.3529868  69.3008137
  13.5564187  35.0774884  68.7573099  13.1341890  34.1641474  69.8880243
  12.2847894  51.0450554  48.0420065  12.0502236  50.2451324  47.5715494
  12.1436360  50.8307076  48.9641571  17.5284722  88.9111042  83.2608700
  18.2509568  88.5168743  82.7721596  16.8793252  89.1312218  82.5927544
 111.0441113  76.2669754  56.6002274 111.5616512  75.9733248  55.8504581
 110.2237606  76.5784025  56.2177753 111.0465908  65.8121300  72.3281717
 111.3744259  65.7934427  73.2272816 110.1415539  66.1130142  72.4094343
  72.5885153  63.5981560  77.0241880  72.6155806  63.4942245  77.9753447
  72.1098900  64.4155121  76.8860817  76.3095236  98.3598042  58.5896826
  75.7212496  98.0172157  57.9167843  75.7290363  98.7821579  59.2228365
  92.8096771  99.2289734  40.2899790  92.9016781  98.2913399  40.4591608
  92.5453472  99.2818260  39.3715215 106.9758129  87.0039845  62.3701668
 107.4310398  86.9276619  61.5316153 106.2526703  87.6065063  62.1961546
  64.0087795 100.1746655  87.2118473  64.6989155 100.7707119  87.5028324
  64.4322252  99.6193314  86.5572262  42.4697594   8.8969344  51.5829325
  41.7854694   8.6044806  50.9809065  43.2096485   9.1157836  51.0164452
  82.1866894  34.9476051  77.9651880  82.0222855  35.7562327  77.4800825
  81.5709877  34.3159389  77.5935221  30.5465558  78.1490564  37.1381593
  29.9506620  78.8266468  37.4575472  31.3997224  78.5809803  37.0957971
  38.3702759  31.7893117  17.0907688  38.0891137  31.0372346  16.5696621
  39.0996651  32.1637433  16.5967751  31.5300564   1.3401431  30.3499150
  30.5798153   1.4507216  30.3176379  31.6660503   0.4003257  30.2295899
  71.4072943  82.1969128  58.9298868  70.8130169  82.9042625  58.6794472
  72.2270250  82.6394272  59.1500044  80.7301903  95.0191784  45.1610518
  81.6219044  94.6831989  45.2515745  80.5527401  94.9774170  44.2213726
  87.9631329  57.8019238  83.7294006  88.4772873  57.1643734  83.2340050
  87.6250935  58.4040070  83.0664825   1.2201742   2.9268760  81.4599133
   0.9092811   2.0233649  81.4029598   2.1640781   2.8471583  81.5974522
  36.7895035   1.2728614  28.5138178  37.4548344   0.6632728  28.8331294
  36.3731293   0.8127421  27.7850127  18.8539795   8.9701003  37.5770259
  18.2386879   8.6349887  38.2292199  19.5284943   8.2938308  37.5143695
  76.0259295  99.2703342  19.1174316  76.7131042  98.6041355  19.1031897
  76.1619854  99.7371769  19.9419177  18.7807229  83.7684536  55.0672913
  17.8834489  83.9343643  54.7781610  18.7889341  82.8405857  55.3023052
  28.8785652  12.4093074  55.9171343  28.2938484  13.0411071  56.3356590
  28.5919002  11.5595263  56.2516737  81.3681698  79.5745468  74.0153265
  82.2619724  79.3015766  74.2223263  80.8400059  79.2317057  74.7362471
  74.2055368  73.2693768  26.4930892  73.7002897  74.0427971  26.7436433
  74.9694586  73.2852125  27.0696354 104.8549938  87.9040718  82.2250652
 105.1955318  87.5416851  83.0429554 103.9422607  87.6170063  82.1975994
   9.7379307  41.2603587  11.5873122   9.4540409  42.0886725  11.9740260
   8.9266971  40.7737559  11.4412141 100.5119133  98.0684566  34.4452238
 100.5299091  97.6807785  35.3202152 101.4336109  98.1970692  34.2212319
  11.8652204  62.2815418  73.3642149  12.2666505  62.7983141  72.6656199
  10.9395650  62.5240135  73.3398581 107.8056812  65.5008698  83.9645195
 107.1213818  65.9516287  84.4592857 108.5717869  66.0693550  84.0428162
   9.7719148  73.7061262  34.6713996   9.9958566  74.4603634  35.2165651
   9.8647645  72.9529333  35.2547646 100.3884177  42.3831360  10.9397793
  99.5176749  42.2828763  10.5550861 100.2592425  42.9877465  11.6705322
  98.1478214  82.6652336  83.1827736  97.4402046  82.2017002  82.7348423
  98.8861656  82.0565701  83.1580544  87.4093056  81.5442467  54.6723986
  88.2444859  81.9283867  54.9391222  87.6376343  80.6696415  54.3574858
   8.1707719  77.4058628  71.3111115   8.4543088  77.0335817  72.1461248
   7.8430417  76.6565514  70.8137608  83.2211304 104.0558910  38.5673141
  84.0562057 104.1398907  39.0275526  83.2730484 103.2059669  38.1300974
  58.9668040  54.1040413   0.2190781  58.3321051  54.5897858  -0.3076553
  59.3221240  54.7538750   0.8254433   2.7108338  66.2188721  83.9702034
   3.6205915  66.0506868  83.7246895   2.2209409  66.1245871  83.1532955
  36.6817955   6.9374579  56.8392992  37.6102451   6.7110557  56.8937635
  36.6638855   7.8922767  56.9042683  33.7780002   7.7834147  29.1804624
  33.9420513   6.8614215  29.3785667  32.9267887   7.7865428  28.7426662
  90.7608084   0.3306286  10.4784393  90.8899645   1.1834185  10.0633526
  89.8719077   0.3682797  10.8315182  95.6436157  75.8023167  67.4047661
  95.4826546  75.9353924  68.3389091  96.0966587  74.9604559  67.3573351
  15.5210355  43.3839130  69.4738770  16.2259153  43.3655119  70.1212025
  15.5682042  42.5299311  69.0440798   1.4209035  93.1087208  70.0056791
   1.3579801  94.0453529  69.8186255   0.6296399  92.7336025  69.6191263
   6.9148258   5.5401629  85.2792454   7.2584728   6.4253158  85.1582432
   5.9810165   5.6169242  85.0834465  94.8234367  60.0033188  48.6206627
  95.2218628  60.7218027  48.1294632  95.5445004  59.3949223  48.7823629
  94.0200233  75.3109360  54.5795393  93.7997341  74.8800468  55.4053926
  94.6279526  74.7090960  54.1500854 109.2489910  78.4401131  66.7503929
 110.0313854  78.1753063  66.2666845 108.5588837  78.4766912  66.0880899
  24.1241745  27.9699439  83.4587002  25.0278191  28.0156821  83.7710381
  23.8282207  28.8801784  83.4476471   7.9738668  90.7560349  30.9964514
   7.0702508  90.7652855  31.3120699   8.4318689  91.3768005  31.5631342
  48.3678059   5.4331512  36.8250799  49.1168693   4.9200839  37.1282482
  47.6258472   4.8312110  36.8834019  36.9842961  85.0799751  90.6287575
  37.5222829  85.1657581  89.8417187  37.4836400  85.5296993  91.3104057
  54.3737748  96.9478035  53.1069756  54.0417245  97.6421833  53.6760187
  54.4670060  96.1895752  53.6837244   7.9949906  99.4539738  20.0749731
   7.3947766  98.7464619  20.3103518   8.0342343  99.4266701  19.1189682
   7.9513028  87.3855686  88.4608650   7.5360063  87.9359627  87.7969170
   7.8425172  86.4925385  88.1339264  14.9216798 100.2239418  62.8923798
  14.7784665  99.3281078  63.1976795  14.0801767 100.6600189  63.0262709
  95.6306605  26.9281619  12.7387905  96.3318495  27.5689309  12.8570080
  95.9337287  26.3709920  12.0218945  79.9076557  61.6161823  58.6743641
  79.5542955  61.8935680  57.8291321  79.2308378  61.0478973  59.0420580
   4.1352227  92.0513344  50.4745865   3.7425473  91.2426567  50.1458120
   4.2054227  91.9165230  51.4196444  93.0503802  36.7051785   1.5822697
  93.4662394  36.4815514   0.7496357  93.0767302  37.6614945   1.6139317
  22.8999284  74.7145748  36.9437504  22.5983384  75.0311327  36.0922384
  23.7937692  74.4117403  36.7838287 105.5700397  60.5104733  71.6317844
 105.1488686  61.2333536  71.1667109 106.1629581  60.9368658  72.2505474
  17.6950887  72.4152565  59.2439985  17.5140050  72.0661497  58.3713198
  18.3523801  73.0956411  59.0981340 101.8856907  96.0546875  58.0237579
 102.1372700  95.1715183  57.7536440 102.4381065  96.2393284  58.7833452
  69.2337656  78.0520153  71.6433859  68.3107281  78.2830572  71.7475796
  69.3914366  77.3872805  72.3138332  83.3528709  92.5522041  83.2359982
  83.4938145  91.8726254  82.5768089  83.9006519  92.2866535  83.9746761
   1.0580495  89.9665356  69.4351673   0.4045060  90.3999615  68.8862944
   1.8320611  90.5262566  69.3732500 110.0253582  78.3049965  85.3687572
 109.2334175  77.8305578  85.6216717 110.6929970  77.6251650  85.2775288
  28.6587289  98.5163403  44.7307587  28.7132409  98.2479286  43.8135815
  29.5110849  98.9105511  44.9160147  19.3240884  78.2787800  66.3327837
  19.4301370  79.1947651  66.0759687  19.9754384  78.1461954  67.0215464
  55.2097797  43.6859608  77.9249096  54.7161674  44.4748640  78.1489944
  55.9505701  43.6866760  78.5310984  95.7480574  38.6078464   6.3899803
  95.8138371  37.6564954   6.4726543  96.6508437  38.9175688   6.4626408
  31.5141296   1.6936757  84.3234062  31.9069886   0.9022147  84.6914959
  31.7840815   2.3937520  84.9177551  30.5212592  76.6672259  42.5065374
  29.9983501  77.4048882  42.1924496  29.9014568  75.9397393  42.5597811
  73.9732456  30.7697082  76.4588261  74.8645401  31.1048698  76.3613939
  73.7869406  30.3386402  75.6247330  48.9730882  82.8715259  69.7167635
  48.4208726  83.4422785  69.1824055  49.5904588  82.4854642  69.0954399
  32.6081609  94.2641276  65.2397871  33.3939170  94.2406970  65.7859278
  32.1109962  95.0135904  65.5674505   7.8869771 102.1059191  64.1443205
   7.5248384 101.3126999  63.7494898   7.3331451 102.2676101  64.9080992
  13.4985160  94.0504426  66.1251974  12.9007720  93.5670119  65.5549097
  12.9491090  94.7164446  66.5385008  64.8012781  39.7656989  88.0023861
  65.4422188  39.1544437  88.3654213  64.0384769  39.6806121  88.5743427
  27.5466323   1.1277184  88.0632877  26.9180560   1.8439905  87.9734135
  27.0055389   0.3496784  88.1978321  15.6709384  98.5671603  24.3143582
  15.4318570  98.5813677  23.3876038  14.9912500  98.0357617  24.7289324
  74.8794603   4.8310778  74.6754026  75.2029371   4.0570858  74.2143917
  74.3143797   4.4809124  75.3640985  25.1775932  80.0220257  53.1050491
  24.6193408  79.3103152  52.7919149  26.0400581  79.6207505  53.2116461
  45.8124447   6.4705527  39.9048638  46.4315844   7.1953094  39.8175383
  45.5878735   6.2375295  39.0040302 109.2348957  15.7139623  74.3232632
 109.2187881  14.7579777  74.3687296 110.1655388  15.9377491  74.3159914
  97.3338509  12.8509104  68.1098318  96.3903904  12.9664218  68.2228231
  97.4592590  12.8181291  67.1614456  51.3822842   0.0263058  74.3857098
  50.7061148  -0.4467347  74.8707390  51.3439703   0.9186547  74.7299147
  42.6974916  79.2966443  86.8391323  41.8888807  79.2807418  87.3511124
  43.2924222  79.8473555  87.3480606  83.7635326   2.8744155  18.8995314
  82.8419876   2.8873217  19.1580272  83.7465858   2.9712006  17.9473877
  17.1704244  79.5397883  50.3492117  17.7238845  79.0907413  50.9881735
  16.6424703  80.1433617  50.8718920  11.1378526  90.5504662  16.7868626
  10.8294915  90.1294440  17.5892866  10.4383182  90.3969687  16.1517882
  26.8744516  88.1982213  78.2116985  27.0566606  88.1267088  77.2747231
  26.9300079  87.2992748  78.5357952  56.5862035 105.2054775  52.5821590
  56.1825036 105.9481880  52.1331215  57.1161985 104.7780931  51.9093418
  62.4036837   5.8888745  43.1033134  61.5878677   5.3914905  43.0460072
  63.0580807   5.3237736  42.6926327  89.5976543  11.4293683  71.5298319
  90.0508976  10.6485784  71.8479204  89.8817539  11.5172529  70.6199980
  77.8504610  14.4625652  52.7615929  78.6121368  14.5188785  53.3385801
  78.0638838  13.7566137  52.1514177   7.3615555  46.2823008  18.5882282
   6.9079784  46.9979029  18.1427956   7.3480514  46.5290032  19.5129967
  97.7605534   9.4900042  45.5706072  97.3162365   9.2702091  46.3894510
  98.6874390   9.5343262  45.8054686  15.7907819  91.7299396  27.5157809
  15.8259963  91.0724288  26.8210340  16.6897296  91.7840582  27.8401208
  56.6678286  26.9081426  57.1723604  56.4629793  26.3349605  56.4336252
  57.5470591  27.2364378  56.9841719 103.3393689  68.5334807  59.1948509
 102.5563785  67.9922944  59.0934753 103.4810158  68.5750180  60.1406002
  36.3368416  16.8882334  42.6103020  35.5198407  16.8751276  42.1117306
  36.1725259  16.3092458  43.3546162  57.0032071  84.7967201  42.1099806
  56.2715101  84.3426734  42.5279474  57.7835511  84.3715077  42.4656296
   5.1653770  24.3675541   8.1443405   5.2896646  24.4361161   7.1977234
   5.5761722  25.1566504   8.4976101  86.6808510  20.9920382  54.5966768
  86.7217541  21.5742373  55.3553629  85.7557011  20.9831285  54.3512106
  48.6040640   7.9824018  83.9389324  48.7433147   8.5550892  83.1846905
  47.6538134   7.8785622  83.9886093   3.2594442  89.5276648  64.3974447
   2.7456760  89.8062795  65.1554966   4.0677165  89.1771048  64.7716618
  64.4181490  16.4382291  64.6203279  64.1626644  15.8386254  65.3213501
  63.9582205  16.1121666  63.8467789  74.7688150  94.5769506  75.5494165
  75.3137063  94.8406738  76.2908840  75.3782605  94.5167321  74.8137617
  70.8718491   0.8065166  76.5759230  71.0709572   1.7125052  76.3397646
  71.1511898   0.7298826  77.4882412  83.0167436  95.5735850  31.5247869
  82.6892137  96.3468498  31.0654163  83.6830186  95.9139812  32.1218061
  37.3987102 102.7806958  40.9479618  37.0603942 103.4380051  41.5560007
  37.5475072 103.2616076  40.1338243  26.3037538  83.9379483  67.3345852
  26.6511869  84.5510202  66.6867685  25.3883409  83.8164907  67.0825911
  48.8004064  87.8108674  75.0041533  47.9133081  87.4650424  75.1025772
  49.3282747  87.2926312  75.6116247  15.7010602  98.0529654  55.5411816
  16.5973853  97.7772891  55.3492641  15.2623271  98.0503583  54.6904564
  64.4128227   9.7717178  46.5996361  64.3534708  10.4902029  45.9699631
  64.0258789   9.0229863  46.1458683 105.2823969  68.6475068  57.4975348
 106.0729357  68.6917168  58.0354261 104.5641466  68.7814909  58.1159163
  68.2892036   6.4928144  65.8821774  67.7037191   5.8025610  66.1936092
  69.1680622   6.1314976  65.9974432  33.6253929   6.0445809  63.3344650
  33.8749886   6.9559097  63.1814432  33.0328870   5.8341092  62.6127529
  83.0114746  29.5287967  45.0712824  82.3622894  29.5264387  45.7747030
  82.5110817  29.7443390  44.2842770  71.5843821   7.1527559  48.0889559
  71.6340542   8.1032389  47.9872370  71.8867159   6.9913965  48.9827061
 100.5958224  41.9714116   0.3541088 101.3292695  41.5622579  -0.1051140
 100.5574322  42.8600000   0.0003147  63.4805059  20.7350469  70.4209661
  63.8523054  21.6089773  70.3016090  62.5378656  20.8838773  70.4951572
  64.2419434   8.9135808  82.4890041  64.3109941   9.3262947  81.6281128
  64.3038511   9.6404439  83.1087399 106.1420436  36.5898199  86.2454981
 105.9081312  37.5172372  86.2078851 105.3737445  36.1348493  85.9006053
  45.0015687  96.8032676  49.0710783  45.3388643  97.5148195  48.5268736
  44.0637063  96.9806438  49.1429901  19.4692373 101.2625533  75.7571220
  18.5596036 101.0522833  75.5459738  19.6595382 100.7443747  76.5391159
  93.4629031 105.1613084  46.0698891  93.0428108 104.3016726  46.0978365
  93.9697929 105.2066511  46.8805885 101.0627934 103.5401633  70.9998083
 101.7317339 103.9864450  71.5190220 100.9550615 102.6905441  71.4273310
  95.6754828  59.8803841   4.4027138  95.2908946  60.2135067   3.5919380
  96.6126872  59.8221676   4.2170048  55.0115490   3.5369322  71.2690163
  55.6182957   4.2259240  70.9981346  55.3877068   3.1911585  72.0784473
  36.0709523  94.7151309   1.5741296  35.7882118  93.8219934   1.7705838
  36.8006562  94.6066600   0.9642115  36.7151450  70.0996715  81.5174866
  35.9894227  69.8402315  82.0851517  37.4823045  69.6733790  81.8995571
  34.6013593  77.2154790  86.0901451  35.5431461  77.2688204  86.2526894
  34.4485854  76.2974888  85.8661270   6.1755561  81.8631249  81.8192005
   5.8334970  82.6004821  82.3247051   5.6040668  81.1301619  82.0481014
  31.7577981 103.5988462  34.6399546  31.3104867 103.0050359  35.2428937
  31.6171741 103.2129635  33.7753463  82.7769279   8.1036508  40.2841902
  82.3705387   7.2371542  40.2679873  83.2605839   8.1259620  41.1099100
  61.9576406   8.4014088  30.6304908  61.4309788   8.5909379  29.8540020
  61.8130922   9.1517723  31.2069392  55.5168390 103.4591250  23.1720877
  55.6554174 104.3807604  22.9538751  55.4292344 103.0228828  22.3245931
  35.6518459  94.5676034  21.3483286  35.5154084  94.0906030  20.5297399
  34.7886180  94.9179977  21.5680933   2.1351265  93.4612018  61.9614363
   2.8592633  93.2321685  62.5440216   2.4807452  94.1679150  61.4161539
  54.7114896 103.8906446  53.8726759  55.4378652 104.2808968  53.3865547
  53.9280843 104.2892547  53.4937048  38.6831764  41.0507511   1.1463833
  39.5427994  40.8243679   1.5014172  38.8009743  41.0216926   0.1969051
  63.0378580  35.2369118  33.5167193  62.9881668  34.8048329  34.3694019
  62.1724129  35.6274080  33.3952880  72.2379255  27.1933365  28.4329438
  73.1950760  27.1839046  28.4303546  71.9931984  26.4976454  29.0431523
  90.2289772  23.1563544  54.5633888  90.2899361  24.1088939  54.6353817
  89.6370029  23.0093074  53.8257074 102.6406765  31.0589290  34.3656659
 101.8764877  30.4876113  34.2891979 102.3051262  31.9346809  34.1741109
  64.3069410 103.5325503  58.4281921  65.2156591 103.3598403  58.1819534
  63.7953424 102.9174864  57.9026461  65.4020548  39.5835209  22.7233315
  64.8807001  39.4862294  23.5201740  65.8214664  38.7311411  22.6059580
  30.8452033  64.9869042  63.8261604  31.4398717  65.5212480  63.2997751
  31.4060020  64.5907289  64.4930792  46.0194492  20.9657598  73.6355019
  46.5999460  20.3705859  73.1611395  45.1498795  20.7888651  73.2766294
  82.4625301   9.4064260  54.5963001  81.9789028  10.2276695  54.6851254
  81.8972015   8.7502587  55.0038242  64.1444969  22.8911042  57.7537107
  63.8096809  22.9012084  58.6503887  64.4294739  23.7908864  57.5943041
  82.5585698 103.2148459  48.4216833  82.2477960 103.8530200  49.0638542
  83.0949067 103.7263413  47.8159189  72.2112560  28.8177967  40.3090429
  73.0172729  29.0831733  40.7519197  71.5569878  28.7770295  41.0065460
  41.3624048  42.8464508  60.5803585  41.0623264  42.1149874  60.0407791
  40.5665874  43.1818295  60.9931850  71.3652992  18.3656180  68.7132168
  71.0233116  18.8439894  69.4684935  71.1821795  17.4466777  68.9087868
  45.8381128  25.6454992  88.8794231  46.5970039  25.9580255  88.3868408
  45.3643894  25.0885606  88.2616615  60.8376789   1.5407217  57.7550411
  61.2175226   2.0091319  58.4983730  61.0444355   2.0870161  56.9967222
  52.2887849 105.0314979  38.0426097  52.4698304 105.4707717  38.8735676
  52.6627874 104.1566759  38.1476831  22.9995584  98.9770794  47.7165794
  23.5149001  99.7707373  47.8606653  22.5327300  98.8416338  48.5411787
  55.7160901 101.9653931  85.5394840  56.0101270 101.4933213  86.3185406
  54.8905133 102.3718166  85.8030701  74.4786214  92.1501297  69.8204374
  74.5607614  92.2989994  68.8784599  73.6344957  92.5378102  70.0514841
  29.5859384 103.8686819  57.9382277  30.4969024 103.8450230  57.6452827
  29.1686820 103.1377277  57.4823427  43.0932950  90.8920473  65.5709600
  42.4319600  91.3499146  65.0520849  43.8446855  90.8109385  64.9835396
  12.6950216  91.9399386  73.1597710  12.5978374  92.3566442  72.3035336
  13.1956577  92.5704223  73.6775398  62.7032280  20.7080245  38.8904810
  63.4086561  20.5829906  39.5252752  62.9494953  21.4993334  38.4115124
  26.2864255  97.3337787  35.0171614  26.0805034  96.7912584  35.7784104
  27.2368192  97.4426728  35.0506854  67.2577858   2.9184672  37.3371696
  67.4660254   2.3996876  36.5601659  66.3259649   3.1187764  37.2487569
  34.3044353  23.5177159  52.4545622  34.6631503  22.6385736  52.3334742
  34.8844004  24.0850925  51.9466686  11.2726020  98.3792525  46.3786507
  10.9876727  98.1701421  47.2682142  10.4787683  98.3044314  45.8490705
  59.3293667  20.2346253  87.7272129  58.6395836  20.0305700  87.0957088
  59.2831898  21.1847639  87.8336716  95.0121117  21.6329718  78.1305170
  95.6589794  20.9448338  77.9747581  95.5245686  22.3754168  78.4505224
  11.0747818  63.1429349   4.1836357  10.6501297  63.5879158   3.4502220
  11.0208801  63.7679146   4.9066353 108.6242724  27.8815149   8.2875538
 108.5141040  28.2403778   9.1680717 108.3653403  28.5947822   7.7040863
  14.4386017  21.4142561  78.6149645  14.5585704  22.3561549  78.7360525
  15.3257358  21.0719895  78.5050535  26.3746547 103.0031655  68.1478500
  26.7806148 103.6829862  67.6100111  26.6844415 103.1831723  69.0354633
  67.3592878  97.9670499  13.1727314  67.3050595  98.8633178  12.8410721
  67.5498892  98.0678915  14.1053200  55.9996700  17.5738466  53.0743837
  55.5472469  18.1123936  53.7236214  55.6342936  16.6972232  53.1938076
  38.2679080  91.8216008  70.1613760  37.9256868  92.6912182  70.3684521
  38.9299869  91.9788140  69.4881964  13.8274097 100.8647597  48.6696148
  14.4285058 100.1512408  48.8836384  12.9873037 100.5880937  49.0355539
  70.4970217  10.3705657  54.9120522  71.1042643   9.6461165  54.7615004
  69.6874571  10.0982273  54.4800043  66.5401602  24.2776608  69.2144442
  65.8237410  24.0370512  68.6270094  66.4132977  23.7251735  69.9857378
   2.3177484  63.2526957   9.5865726   1.6151813  62.6166783   9.4519806
   2.0387939  64.0252946   9.0951347  87.7568340  30.1103687  84.0657997
  87.2111797  29.6554303  83.4243011  88.6530590  29.9702930  83.7602043
  40.2886295  22.6570249  26.0379791  40.3102064  22.1322060  25.2377725
  40.2880049  23.5633421  25.7300520  58.5550165   0.1080549  64.7327328
  57.6700497   0.1079879  65.0975132  59.0189075   0.7818390  65.2297783
  52.4888944  97.8917318  75.7753801  52.1223115  98.2397711  76.5882254
  53.3804845  97.6315003  76.0068560  16.3542127 100.7730824  58.3086443
  16.0652208 101.3650453  59.0031147  17.2258090 100.4886412  58.5836792
  59.3298626   1.8698630  40.9356976  60.1890087   1.5619808  41.2243271
  59.1079569   1.3028723  40.1971102  13.5858539  53.6054016   4.5433331
  13.6721901  52.6903964   4.8108101  13.9718250  53.6364898   3.6679554
  70.5441118  49.2773239   6.8324471  70.6998492  48.3419092   6.9627380
  70.0213052  49.3238746   6.0319805  92.4014568   6.8672466  67.6232433
  92.2268200   6.9252187  66.6838932  92.3116112   5.9362108  67.8265476
  34.0958785 103.4879178  63.5803556  33.3026790 103.4021441  63.0514860
  34.6886968 102.8215766  63.2328033   4.4079451  32.9534386  11.2482166
   4.8111204  32.0998763  11.4066982   3.8434938  32.8142296  10.4877853
  84.3415356   0.1831857  86.6999435  83.8383484   0.8429886  86.2227631
  85.0968361   0.0062001  86.1392021  80.0157261   2.1659650  79.7191811
  79.1967297   2.6613358  79.7100353  80.5804920   2.6480412  80.3232193
 102.7859639  96.5280497  26.1233783 103.4226846  96.8655723  26.7533731
 102.1134233  96.1115670  26.6623235  54.2443943   2.4682544  75.8558702
  54.4762945   1.5440717  75.9471989  53.4719467   2.5773096  76.4105463
  48.9526510  35.8990669  16.6006184  48.5204983  35.6979156  17.4306881
  48.8352633  36.8428111  16.4920080  64.2186165  14.3625426  44.6991587
  64.9333763  14.8339343  45.1271105  63.6271429  14.1247833  45.4132032
  70.1932812  15.2660787  85.6036186  69.7904730  16.0421395  85.2141285
  69.4918251  14.6149957  85.6203938  61.3545513  22.5751066  35.9883046
  60.7790327  23.3346176  36.0786152  62.1410370  22.8106952  36.4804101
  82.3855782  10.6044602  42.1209764  82.0697689  11.3503051  41.6108608
  81.8242645   9.8766267  41.8537331  60.8092451  17.9077876  51.3254595
  59.9556875  17.7884734  51.7419147  60.6105900  18.3256793  50.4875278
 107.4953695 100.8786598  25.9874320 106.9435664 101.0438192  26.7519355
 107.8544613 100.0038492  26.1357236  55.7918930  14.1904020  56.0928392
  55.2609253  13.3941472  56.0759020  55.4443169  14.7252762  55.3791618
  83.7761784  30.1335573  53.8640118  83.5872078  30.0903893  54.8013830
  84.7038651  29.9077129  53.7960434  87.6643848   3.9527294  91.2446690
  88.0155659   3.0624825  91.2638474  86.9101334   3.9000812  90.6576729
 107.8363372  37.4946283  11.8438244 108.1517411  37.1459530  11.0100555
 107.3671866  36.7640697  12.2468376  51.7416239   1.7067067  23.1344509
  51.4602566   1.8612225  22.2326803  52.5707102   2.1789387  23.2109118
 104.5436240  58.0140500   4.0096283 104.1011763  57.8877978   3.1702709
 105.3629637  57.5265904   3.9241982 109.7375965   4.8460954  45.2034903
 110.1292706   5.6035143  44.7685862 109.7356606   4.1607296  44.5352840
  72.3878241  22.5603557  48.0523586  71.7322159  22.6292038  47.3583364
  73.2123613  22.7961564  47.6271820  97.8120995  11.8304980  28.0620813
  98.5564327  11.2650597  28.2682157  97.8947258  12.0027888  27.1241474
  77.7023745  17.8001988  73.2101297  77.3284435  18.2918155  72.4788809
  77.3662853  16.9110191  73.0977154  50.1699495   9.5466781  50.5389595
  50.4244804  10.4242527  50.8241081  50.6358004   8.9575136  51.1323404
  17.3254085   3.1885391  50.0616455  17.2349000   2.2387478  49.9845982
  17.3424125   3.3518013  51.0046673  59.7276306  27.4099207  62.7931070
  59.2336273  26.6777611  63.1620789  60.4147577  26.9961715  62.2707129
  28.1817388  90.2148586  63.5316753  28.7405586  90.1082200  64.3014669
  27.4834728  90.8016699  63.8220406  21.3252739  69.7083865  27.0249462
  21.2465099  69.4981204  26.0944557  21.9191746  69.0425132  27.3715305
  99.6293354  43.0633497  20.3926778 100.3421021  42.4245596  20.4047227
  99.2346859  42.9982948  21.2623048  77.9194784  16.2796509  78.1735897
  77.4269676  17.0085037  77.7961826  78.3961821  15.9039605  77.4334240
  69.1911602  23.1779385  58.4749174  69.5706129  22.3374176  58.2184505
  68.4486866  23.2962728  57.8824997  43.1223536  17.2438812  26.5274429
  43.4890652  18.0730104  26.8345213  43.5726023  17.0747411  25.6998563
  42.6750851  30.2949286  59.2599249  42.0693302  30.3456831  59.9993277
  42.6825428  29.3684268  59.0195704  98.3771801  14.0570378  24.1735005
  97.6130772  13.6448407  24.5765758  99.0982533  13.4543490  24.3553114
  24.8334146  37.4974656  64.1815758  24.1478539  36.8298721  64.1580200
  24.5673800  38.1373715  63.5212898  58.5809660  18.3088183  46.5265083
  57.7094364  18.6353099  46.7502594  58.4170389  17.5748610  45.9343386
 103.9892101  35.7611609  37.2669172 103.4292126  36.5326428  37.3532295
 103.8304901  35.2593374  38.0664253  76.8500805   7.0565844  82.6385593
  76.6871452   7.9832530  82.8145409  77.1446228   7.0338744  81.7280865
  97.6754761  18.9468646  41.6380453  97.6516247  19.3960619  42.4829626
  98.2627964  18.2041264  41.7781544  75.2246046  20.7486892  80.7019615
  74.5696592  21.2814355  81.1530209  75.3303432  21.1703706  79.8491812
  58.9961720  18.0942261  34.0585208  58.4443617  18.3556259  34.7956824
  59.8078346  17.7885509  34.4634914  62.0121621  91.6109460  16.2725449
  62.2112416  90.7464486  16.6320479  62.8668069  92.0286077  16.1659014
  82.0249653  25.8361816  54.5232821  81.8358135  26.6389918  55.0090313
  82.9028988  25.5842257  54.8095894  55.2128744  16.7413116  39.8997331
  54.7680569  17.4572146  40.3534460  56.0642910  16.6759825  40.3322363
  36.7455816  84.2003232  33.8791037  37.1689414  85.0585252  33.9011765
  35.8968305  84.3410903  34.2986703  73.5483313  94.6340679  21.0697460
  73.9813138  95.3893541  20.6718731  74.2364741  93.9722894  21.1385727
  46.7576837  87.0549148  72.7398062  46.0902833  87.7329296  72.8452110
  46.3486146  86.4025074  72.1712494  12.2850274 101.3293549  60.7100773
  12.5187110 101.7514518  61.5367937  11.6567706 100.6506645  60.9568691
  79.9247837  12.2378075  79.3920183  79.8120642  11.3074410  79.5868111
  80.5431271  12.5478375  80.0536537  90.2522469  29.3191695  83.4530640
  90.4600716  28.5378456  83.9654827  91.0152721  29.8868179  83.5617161
 105.4969311   6.3700646  25.1459813 106.3075447   5.8821839  25.2912259
 105.7862377   7.2573614  24.9333000  53.9356851  96.8259930  73.2976103
  54.2631196  97.7184838  73.1858826  53.3219480  96.8859243  74.0297079
  94.5358658  17.4074137  18.3430970  94.4934082  18.0597925  19.0422606
  95.3650761  16.9524097  18.4901071  66.9794321   0.4853578  75.6929970
  67.4280310   1.1582755  75.1809692  67.2602797   0.6432705  76.5943384
  59.9311209  40.4042530  34.0617275  60.7383776  40.6652164  34.5049715
  60.2254534  40.0091696  33.2410526  94.4888496  10.5368662  68.0139208
  93.9460468   9.8766708  67.5829411  95.0985909  10.0317109  68.5517550
  83.7990475   1.9563591  31.6676044  82.9295540   1.5561084  31.6637278
  84.0540314   1.9841599  30.7454109  82.4891758  21.4659452  62.2064543
  81.8552017  22.0427394  62.6326227  82.6301479  21.8596125  61.3454151
  49.9782991  89.5267206  19.1798127  50.8475732  89.2721838  19.4893384
  50.1444864  90.0128370  18.3721590  80.8023883  32.6938795   3.7305641
  80.5092574  31.7895912   3.8426685  80.0068522  33.1777965   3.5088062
  64.3229198   5.1059914  46.1357260  64.6161222   5.6865978  45.4334736
  63.6998940   5.6320810  46.6370249   6.2185959  87.6033567  23.0079842
   5.8184723  88.0197953  23.7713432   5.6819729  87.8910731  22.2694111
  70.4169416   2.8678626  59.2720842  69.5122862   2.7217305  59.5486212
  70.3415489   3.3808580  58.4674835  35.9505796  29.3174624  57.2331238
  36.0836935  30.2382779  57.4581003  35.4936314  29.3399692  56.3923359
  47.2727250 102.7699846  42.5999308  48.1780576 102.5010866  42.4440479
  47.3139238 103.2997539  43.3960962  79.7876215  16.4112282  54.9294090
  78.8504601  16.2861407  55.0787830  80.2107430  15.8671880  55.5936527
   5.4038047  72.6394206  52.1156931   6.0013961  72.3369819  52.7995396
   5.9394979  72.6630956  51.3227844  76.0065222  20.1444888  88.1303596
  76.3179922  20.0925088  89.0339756  75.4990864  19.3425369  88.0054283
  37.3173904  21.2905669  73.5282278  36.7233729  21.4235806  72.7895260
  37.2840858  20.3487325  73.6957741  15.3476910  74.7243284  21.2053299
  15.2554230  75.0964712  22.0823860  14.8465637  73.9094041  21.2369919
  79.6308613   2.5164202  70.7790184  79.0479231   2.9465067  70.1533604
  80.4065704   2.2890194  70.2663851  28.9229608  36.7058420  26.3673282
  29.5292902  37.0416570  25.7071567  28.7321305  35.8115387  26.0844231
  29.0570617   4.8579350  59.7040224  29.7133183   4.9685353  60.3920126
  29.4555545   5.2509332  58.9274979  12.9596046  71.2940119   7.7042198
  13.2677750  70.7611214   8.4372234  12.2076229  71.7714356   8.0546856
  49.0690755 105.4454705  69.0355110  49.0181779 104.4936786  69.1234493
  48.2944154 105.7701811  69.4945240  95.4843521   2.6315582  31.8141174
  96.2829494   2.1842062  31.5341949  94.8015785   2.2843732  31.2400842
  33.2854747  68.8161117  46.1182451  34.1681480  68.4908515  45.9412384
  32.7206182  68.0524546  45.9999514  66.9480180 100.3881585  61.9255209
  66.5091466  99.5722860  61.6847467  67.8805398 100.1729977  61.9070148
  77.5733709   5.4402131  55.2486372  77.6683712   5.1146626  56.1437464
  76.7992544   6.0023940  55.2791357  26.9258260  96.9338178  80.4742622
  26.4110469  97.5321245  81.0157967  26.3575172  96.7352450  79.7300625
  71.6914177  31.2518930  35.8461523  71.8233538  30.8319116  34.9961877
  71.9371939  30.5825591  36.4847612  60.7318354  24.1894913  44.4309378
  61.6053820  24.3598962  44.7832298  60.4675722  25.0194502  44.0339899
  83.8703537   9.3720829  72.6420879  84.5169258  10.0630677  72.7860451
  83.1894016   9.5418638  73.2930136  53.7381649  14.9331927  69.2482185
  54.3857765  15.6368160  69.2900372  54.0855455  14.2533255  69.8255777
  47.2112322   4.7599113  41.3869333  46.7080736   5.4573512  40.9666443
  46.9913483   3.9725223  40.8890343   3.4979108  10.8713436  75.4685783
   3.2851461   9.9647290  75.6899691   4.1815713  11.1160779  76.0922384
  18.6431741 100.1083177  87.5179863  18.6707448  99.1590297  87.6376724
  18.2866334 100.4432034  88.3407688  10.1591313   8.9034688  58.6150646
   9.4208443   9.1071051  58.0408764  10.7348633   9.6648681  58.5441017
  39.3616819   4.3962499  57.6627159  38.4103251   4.3543813  57.7596521
  39.5840573   5.3034472  57.8719378 109.2925739   5.6689900  63.0483532
 109.4730186   6.4189899  62.4816322 108.3393002   5.6575215  63.1341982
  69.3000793  12.1344161  80.9854889  68.9272738  12.2544658  81.8588924
  69.8091364  12.9301536  80.8309174  28.2240248  25.8654356  62.0830727
  27.9519582  26.7204356  61.7496204  27.9167295  25.2426147  61.4243650
  59.6523142   9.5265913  34.3762183  58.8020992   9.9565315  34.4685149
  59.4444466   8.5937655  34.3227601  75.9621286   9.8700058  64.5399523
  76.3002968  10.7583022  64.6531153  76.7422152   9.3153071  64.5370960
  51.5735102  38.8475299  67.1028614  51.4100409  38.3769488  67.9202127
  51.0683250  38.3688068  66.4457130  69.1167831  17.1434700  83.9769650
  68.4021378  17.2464836  83.3485508  69.0617466  17.9214394  84.5319080
 100.6797409   3.8402185  16.4386642  99.7587013   3.7015659  16.6593492
 100.8978939   4.6818405  16.8390560  68.9265871  13.5048878  63.6052036
  68.7003803  13.4741604  64.5347834  68.0888844  13.4112966  63.1516314
 109.1967393  26.7942237   5.0401306 108.9579011  27.0261644   5.9375668
 109.7588111  27.5121282   4.7487164  93.6153698  19.1174805  57.8512526
  94.3398952  18.5322678  58.0721807  93.4669399  19.6263695  58.6482716
  56.0727930  15.8151126  34.7579503  55.6406307  16.6668594  34.6947408
  55.4559469  15.2691495  35.2454519  66.5829706  10.3822780  52.8433371
  67.3121977   9.7680897  52.7582836  66.1732912  10.1536000  53.6776638
  46.5512657  31.2968349  43.0503607  46.8266630  32.1831298  42.8161192
  47.3076773  30.9224749  43.5019445  88.7137985  10.9107208   8.1328332
  88.7057209  10.4345894   7.3024929  88.3034897  11.7515826   7.9307675
  60.9284163  15.1413214  22.8715134  61.1292887  14.2587316  22.5601983
  59.9799013  15.1398313  23.0001426  86.6034317  17.6519954  71.6416359
  86.5732670  18.2074714  70.8626842  85.6853580  17.4673724  71.8398571
  51.6710472  32.1932936  82.8652573  51.9583702  33.1060934  82.8435326
  52.4760389  31.6918230  82.9946804  69.7128057  11.7647159  50.4671097
  68.8193607  11.9973469  50.7198238  69.6758842  11.6715133  49.5151711
  93.8448334  11.0457838  86.7857075  94.7834492  10.9315395  86.6367817
  93.5255337  10.1662457  86.9874287  89.9342060  14.9532139  45.5836105
  89.3859768  14.1698277  45.6281424  90.5401516  14.7808433  44.8629522
  46.1450005  30.9941816  54.5027781  46.3682604  31.9246078  54.5291710
  45.5859518  30.8602118  55.2681160  88.8414955  27.1498942  43.5111570
  88.2487297  27.9014635  43.5145807  88.6978912  26.7277336  44.3581438
  94.0696430  11.6882157  83.2557106  94.9169064  12.0755041  83.4756756
  93.6493778  11.5350199  84.1019630  85.8446312   3.9731860  53.0246925
  86.0198879   3.1499872  52.5687742  84.9899197   3.8423303  53.4352684
  63.9698005  86.7686485   1.1887646  64.6931053  86.3527511   0.7196236
  63.2552076  86.1337780   1.1385345  40.8583163  98.6979252  78.6995792
  40.7809686  99.5121336  79.1968822  40.3322410  98.8463217  77.9137945
  70.1053429  22.6179051  46.5943575  69.4703341  22.0395947  47.0169115
  70.4358625  22.1100068  45.8533907  63.3143902  20.6001759  44.4419146
  62.4219084  20.3987908  44.7232533  63.5055351  19.9487758  43.7670994
  27.3157548 100.6460398  67.8020763  26.8333005 101.4539700  67.9773426
  28.1819057 100.7974416  68.1803465  82.8836346   4.5844114  24.9612117
  83.3043957   5.2333409  24.3972278  82.2303772   4.1668290  24.3998694
  40.6064986  97.3631394  63.4842730  39.9729871  96.6795242  63.7023735
  40.7386255  97.8378641  64.3048906   1.8598560  54.9806784  17.3594284
   2.1307043  55.6154131  16.6961193   2.5998739  54.3776915  17.4302292
  11.8108225   0.2315016  54.7561979  10.9266126   0.3509646  54.4095945
  11.7766798   0.6093775  55.6349897  65.5716372  13.2366431  64.5888090
  65.2108288  12.3757136  64.3770266  64.9973774  13.5745549  65.2760315
  62.1666145  18.4335721  66.7254639  61.7809010  17.6241493  67.0605612
  61.6241980  18.6628866  65.9708548  76.3146496  19.5786238  74.6718216
  76.2645245  20.2038121  73.9487314  76.6951561  18.7915540  74.2819929
  12.4932384  82.2498899  81.2520599  12.4845838  83.1356555  80.8893204
  11.6458844  81.8808108  81.0030556  61.1848879  21.1364460  57.4042606
  61.5709782  21.3797426  56.5628481  61.9351625  20.9257746  57.9600811
  91.4163113  36.0899258  48.0011988  92.0990467  35.8488321  47.3751163
  91.7666054  36.8570948  48.4539413  10.0342178 102.7800074  67.3494148
  10.6831121 102.6991269  68.0484343   9.6496534 103.6469656  67.4787426
  65.8309317  10.9152508  18.2462764  66.7636061  10.8065665  18.0604470
  65.7991171  11.1796939  19.1656733  54.5529317  94.0145701  35.5138874
  54.6182966  93.6970871  34.6132421  54.5089006  93.2197374  36.0454249
  84.2419052   0.1618211  82.4294567  84.3903542   0.7867312  83.1391621
  83.3746529   0.3849524  82.0913506 102.2079372  24.1719055  64.9183464
 101.4376545  24.2526197  64.3558693 101.8933392  24.4088864  65.7907581
  33.5729217  95.8456135  83.1298637  32.9328489  96.0494828  83.8117504
  34.2998218  96.4456576  83.2965660  51.3598061   3.4951359  54.0345812
  50.6842947   4.1001791  54.3409061  51.1045122   2.6472020  54.3979883
  85.0977516  14.0481627  84.4152832  85.2132320  14.8755658  84.8825073
  84.3318272  14.1918552  83.8594532  70.4705715  22.5139713  14.1578329
  71.0627365  22.2454309  13.4553683  70.6202364  23.4548259  14.2506921
  70.2059603  14.8703253  49.5824099  70.4633331  15.7632029  49.3527079
  70.2880001  14.8350847  50.5354357  55.1698685  10.0692797  70.4108429
  55.6925488  10.0321865  71.2118816  54.3398905   9.6550441  70.6470251
  61.6730833   4.1822368  83.3688164  61.8918991   4.6678877  82.5735188
  62.4525452   3.6573935  83.5510540  67.1629333  20.3147650  86.6107559
  67.4383640  21.1000395  86.1377716  66.2563419  20.4919076  86.8616390
 102.3880577  29.5679140  65.1496363 101.9623661  30.3957200  65.3727007
 103.2211876  29.5925641  65.6202984  85.7452965  20.6945968  67.1090031
  85.4819679  19.8915052  66.6596317  85.0101662  20.8973980  67.6875257
  89.8320198   3.7604931   5.8985013  89.2571735   2.9953197   5.9158754
  90.6349945   3.4666446   6.3287526  89.1202736  65.1968622  46.7193317
  88.6014843  64.4282055  46.9565058  88.5568237  65.6919193  46.1246347
  38.9828395  90.0219363  60.4512548  39.0234136  89.0722507  60.5638695
  39.1736984  90.3745645  61.3204241 101.2416172  51.9072676  43.4512806
 101.7773056  51.3439369  44.0097857 101.5213680  51.6969681  42.5603533
  69.2364836  43.7254858  83.6547852  69.3063641  44.0438223  82.7547741
  69.1401005  42.7772379  83.5666275  89.6341038  36.3439155  50.0487900
  88.9775562  35.6506538  50.1163197  90.1403904  36.1190987  49.2681742
  28.7541532  96.5172618  78.5297918  28.0503844  96.5964311  79.1737461
  28.5107898  95.7572323  78.0012417  88.4558582  56.4256048  60.8899355
  89.2390156  56.6549540  60.3896379  88.6083412  55.5242300  61.1736631
  56.1668205   5.4419762  82.1002293  56.2415886   6.3524169  82.3861313
  56.4686012   5.4506230  81.1918926  80.3703785   6.5011287  59.3589115
  79.6860409   6.6098553  58.6985397  80.0444889   5.8048123  59.9291515
  81.2162209  19.4670653  76.9451046  82.1000099  19.1159511  76.8361902
  80.9932327  19.8252594  76.0859156  88.3608055  46.2278223  17.4873996
  88.6939526  45.4202700  17.0961165  87.7317429  45.9331274  18.1459343
 101.4207458  31.5648770  18.8696671 101.6767120  32.4724174  18.7050760
 101.2232208  31.5377593  19.8058724  73.8940382  42.8801107  56.4420891
  74.4397640  42.4436808  55.7879114  74.5072222  43.4123611  56.9489861
  82.0833683  27.5091457  64.7361088  82.1099377  27.2642279  63.8111544
  81.8194485  28.4292364  64.7327614  91.0256672  24.2982745  62.4649858
  91.0836506  23.5198116  63.0189419  91.1326885  23.9664102  61.5735579
 102.1168137   6.3979948  69.5282364 102.1458244   7.3477095  69.6441317
 102.7397919   6.2236565  68.8227320  68.0348825  13.2258630  56.8855906
  67.8292418  12.9735792  55.9854269  67.6980639  14.1181254  56.9671535
  64.9956942  26.2846971  65.3383732  65.5944014  25.8748960  64.7139978
  64.8433352  27.1608901  64.9843884  94.6649075  25.5187893  31.8145776
  94.1626930  26.3164234  31.6478562  95.2347279  25.4304457  31.0505581
  76.0499477  32.1601009  61.1833048  75.9444189  31.2553668  61.4774990
  76.9761276  32.3528838  61.3291216  68.8684845  26.2176132  37.6155090
  68.4149313  26.2526751  36.7733145  69.6960115  26.6732168  37.4610400
  79.1203117  51.5276480  52.1525812  78.6449528  50.8469009  52.6288700
  79.2013836  51.1850452  51.2624788  87.7115059  20.5435705  57.2060061
  87.8117561  20.5358076  56.2541008  86.9063473  20.0513029  57.3660755
  83.7286091  15.6717563  68.2767296  83.5772133  15.1863623  69.0877199
  82.9439640  16.2093639  68.1693268  43.8513803 100.4633751  65.9837151
  43.9531278 100.7159531  66.9013643  43.0128335 100.8437329  65.7221699
  95.1623107  64.4302665   1.7930126  96.0388470  64.6915756   2.0752144
  94.6576739  64.3697129   2.6041317  99.5543194  29.3370628  67.9748821
  99.5545959  30.2344751  68.3078718  99.5377922  29.4348598  67.0228338
  73.2237625  35.1661491  49.8300934  73.2688808  36.1221886  49.8437119
  73.3376217  34.9079442  50.7447481   3.1027130  44.1651885   0.2206421
   2.4636225  43.7859558  -0.3826618   3.7775282  43.4920876   0.3089142
   4.0171292  22.7406836  76.9670010   3.5034326  23.1687784  77.6518917
   3.7718061  21.8173027  77.0254183  69.8851728  22.3181415  36.3296819
  69.5045853  22.9211950  36.9682074  69.4775963  21.4742875  36.5246820
  56.0601902  38.8823557  82.8247929  56.5962124  38.3797979  82.2113228
  56.6331673  39.0315843  83.5768986  83.1724072  10.7684708  34.8324823
  82.3962879  10.8756828  34.2825890  83.2161140  11.5756631  35.3450847
  68.4674835   7.2147465  81.2998676  68.3083916   6.7046058  80.5057144
  69.2749405   7.6955301  81.1179638  78.9319992  21.4557767  60.9829473
  78.6358500  22.3657918  60.9629154  79.8067379  21.4970231  61.3694191
 104.7167015  36.9688702  60.7261610 104.7706318  37.4587083  59.9055624
 105.3569221  37.3905563  61.2993383  56.6670274  99.7854423  66.0235119
  55.7623243  99.5878112  65.7812595  56.9958734 100.3231561  65.3031254
  96.5914822  50.9020185  58.3426285  96.9591045  51.7832136  58.4103394
  96.0956669  50.9116077  57.5239086  64.1072416   3.2823154  34.5998955
  63.3655453   2.6873922  34.4894910  64.1166925   3.4821787  35.5359507
  96.5559673  36.4322114  42.0065022  95.8205891  36.2217402  41.4310455
  97.3327351  36.2756634  41.4695168  62.0073652  34.0545487  27.6167703
  61.2671995  34.6605253  27.6511312  62.7639866  34.6108794  27.4317098
 108.9024639  11.9233644  54.6058941 109.8114586  12.1423650  54.4009352
 108.9637089  11.1611187  55.1816225  92.5342274  36.4720368  43.2681322
  92.6905441  36.4072967  42.3260021  92.3690701  37.4025464  43.4201336
  96.9574070  41.1041355  69.0360165  97.0488358  42.0352173  68.8336277
  97.6443291  40.6788683  68.5226774   5.9095147  37.9446030  32.8369808
   6.7821172  38.0249381  33.2221293   5.3647664  37.6046085  33.5468340
  46.0183620  38.8516307  61.8432665  45.7009363  39.5726919  62.3869038
  46.9717550  38.9321208  61.8714714  95.2217102  34.5671415  25.6789374
  95.3478718  34.4358611  26.6186619  95.3439522  33.6979365  25.2971339
  11.1080602  21.3257766  62.9466057  11.3883165  21.2448335  63.8582754
  11.8426183  21.7544317  62.5073814  10.7530358  22.3707414  66.9916105
  11.1934045  21.8175268  66.3464260  10.3737310  23.0832481  66.4771175
 105.6549549  50.5011654  65.8353424 106.6064930  50.5062246  65.7315159
 105.4627323  51.3033724  66.3208771  84.3268108  22.1914458  76.2190580
  83.5614395  22.7254415  76.4318800  85.0667477  22.7945781  76.2895107
  54.1115713  28.2893825  43.5794115  54.0353346  28.9837503  44.2338371
  54.9979305  28.3849812  43.2309103  97.8074074  24.8052549  39.0435290
  97.5458717  25.6215262  39.4695926  97.1804619  24.1565394  39.3634295
  79.4360018   8.9631891  72.1183348  78.5090303   8.7486714  72.2229147
  79.8987436   8.2304615  72.5247908   4.6381047  27.1581721  49.5832396
   5.0831464  27.4898672  50.3630733   3.7624696  26.9220400  49.8894119
  54.7721243  24.4844675  59.0857506  54.6028757  24.7228646  59.9972057
  55.6911850  24.2171836  59.0747881  71.1386538  31.2469983  68.3065701
  71.0729361  30.5555463  67.6479292  71.2349653  32.0528412  67.7990532
  82.0053673   2.7366927  45.1950979  81.4797401   3.4936157  45.4539776
  82.9021931   2.9769418  45.4279470  95.7011223  40.4703760  54.3357611
  96.0775089  39.6417689  54.6323633  95.2998829  40.8454132  55.1197100
  80.5920315  20.4453826  52.8641176  79.8198605  20.9971333  52.9888344
  81.2715340  21.0487914  52.5634384  94.8134232  16.4243853  70.6107712
  94.9525070  17.1418190  71.2289715  94.6032333  16.8581700  69.7837973
  71.0922432  24.7723508  64.5194864  70.8958149  25.2661848  65.3155851
  71.6379166  25.3627133  63.9999247 100.8966923  32.5101900  58.0493450
 101.5137291  32.4077630  57.3247719 100.4201412  31.6805172  58.0772114
  83.8396358  20.4014945  30.2128100  83.3548069  19.5988333  30.4049110
  84.5662117  20.3973818  30.8359575 106.6368484  32.9891515  49.8963547
 107.5459290  33.2776952  49.9772787 106.4004326  33.1931996  48.9915323
  38.0146884 101.7226565  32.0137954  37.0993900 101.9910514  31.9336081
  38.1251811 101.5230214  32.9434013 107.9859401  54.6993821   9.6174812
 107.3216344  54.9141570  10.2723122 108.5584737  54.0692069  10.0548840
  89.3181992  35.9742665  53.8805342  89.0035152  35.2977538  54.4801521
  88.5575104  36.1881828  53.3403254  96.3591194  29.8689890  71.6947699
  97.2886467  30.0619078  71.8171978  96.1708546  29.1819572  72.3341227
  77.0242643  49.2925358  53.8222980  77.9039812  49.3179083  54.1987038
  76.6850853  50.1790142  53.9461803  85.8449554  11.1448658  73.2348728
  85.1565266  11.7501986  73.5103178  86.1807728  11.5187418  72.4202061
  98.8612938  45.0558519  63.0112839  99.6442699  44.5191240  63.1341887
  99.1238976  45.9312439  63.2958126  89.3830109  75.9800625  64.2888498
  88.4857559  76.3043737  64.2114115  89.3512440  75.0972605  63.9202213
  74.2826843  23.9163327  67.7509212  73.4420347  23.4975004  67.9356241
  74.2004061  24.2320204  66.8510342  90.9122562  39.6262264  74.0612650
  91.6199493  39.1493368  74.4948339  91.1664963  40.5465031  74.1297388
  77.8269196  36.1008310  58.5722113  77.6709366  35.9237099  59.4998550
  78.7674284  36.2695146  58.5154200  83.7738228  27.6904464  28.7306142
  83.6276245  28.2996154  28.0068946  83.4333229  26.8543577  28.4124279
 102.8800011  31.0689950  84.6257591 102.8503513  30.3130889  84.0392780
 102.0291996  31.4929271  84.5132828  51.5002251   3.2933584  68.3873701
  52.0108366   2.6710239  68.9052534  51.1628675   2.7762586  67.6559114
  92.1517563  30.7221508   9.7046220  92.3424530  31.4380598  10.3107071
  92.8131676  30.0588846   9.9016958  31.5540123  21.0290289  65.5188751
  31.8184829  21.5169811  66.2987423  32.3730659  20.8586884  65.0537205
  93.9564323  47.5706863  58.8436222  93.4149361  47.4585915  58.0623102
  94.1188812  46.6793203  59.1523504  10.6738809  53.0055904  82.7423477
  10.4369214  52.2958183  83.3392620   9.9338201  53.6111927  82.7845955
  69.4301271  26.3377953  29.2489195  68.5115719  26.0770082  29.1820407
  69.9201393  25.5290604  29.1003633 108.8513565  48.2306862  40.9606647
 108.5638332  48.3615255  40.0570917 109.6849632  48.6977816  41.0167694
  81.9982529  33.7171388  51.9858837  82.7130508  34.0740943  52.5130272
  82.0682907  32.7691054  52.0979643  53.3075571  16.6103446  21.4389491
  52.5885105  17.2402620  21.3899088  53.6077070  16.6596639  22.3465323
 111.6107082  13.9853477  75.5714035 111.2090111  13.8288641  76.4260244
 112.1986294  13.2409418  75.4431820  38.0425929 105.1447900  69.3498182
  37.9026460 104.6580104  70.1620340  37.9271602 104.4938808  68.6575603
 111.4839745   8.5879207  57.5916815 112.4297810   8.5190493  57.7218342
 111.1087036   8.3803445  58.4474373  61.4920091 104.5628380  68.5759735
  61.5088224 104.5066674  67.6205683  62.1584462 105.2159839  68.7892628
  50.9344963  60.6572668   3.4081554  50.0102714  60.8774279   3.5246944
  50.9342483  59.9646185   2.7474976  76.8491697   4.4090524  28.6842346
  77.5632572   4.9946395  28.9360213  76.3755131   4.2445570  29.4996023
  77.7961493  32.4311304  73.2183743  77.2433138  32.8080606  72.5338840
  78.5744238  32.1221948  72.7546024  67.8382254  21.5516400  80.7095623
  68.0872250  22.3838711  81.1115837  66.8812895  21.5515828  80.7321072
  85.1269864 105.3290364  60.6251478  85.5193090 105.6925009  61.4190054
  85.8739232 105.0604300  60.0901985  83.3035660  23.1678343  90.2595520
  83.3468819  23.2496309  91.2122631  82.8116322  23.9381218  89.9751377
  87.2351265  48.1502199  37.8319740  86.5895557  48.4394121  37.1871233
  87.9842281  47.8641367  37.3092580  21.0970262  13.5091209  36.0438037
  21.3653043  12.7153242  36.5065646  20.4319146  13.2113409  35.4231691
  58.4847879  10.3988671  70.0111818  58.8825750  11.2137759  69.7047186
  58.1953287  10.5940092  70.9024525  92.8593349  34.4540691  38.5050368
  92.0332432  34.8480701  38.2247376  92.6912308  33.5118103  38.4939146
  92.7465153  28.8605714  21.9568515  92.6253033  28.7108731  22.8944707
  92.5672913  28.0111790  21.5535593  42.6053952  99.2659163  42.8424788
  43.3229589  98.8836407  42.3373127  42.9036378  99.2247474  43.7511015
  10.0522950   9.7694570  82.7256775  10.3976586   9.0071774  83.1903076
  10.3188756  10.5170882  83.2606602   9.4916108  20.2613020  71.2534380
   8.9415982  20.7787681  71.8416071   9.2601636  20.5685258  70.3769255
  44.6136712  83.7968832  46.0550261  45.2227258  83.7226897  46.7897177
  44.2503404  82.9169518  45.9553146  32.8424744  60.6988548   5.5671024
  32.5853638  61.6098707   5.4250526  32.6400379  60.5336540   6.4879513
  82.5191116  40.9232950  61.8868446  81.5743256  41.0678053  61.9390059
  82.6423550  40.0283432  62.2032309  79.4816732  23.7837625  65.8022642
  79.2965221  23.1762171  66.5183926  78.6735773  23.8030839  65.2895880
 107.2032928  33.0984306  43.1478548 107.0782471  33.4752321  44.0188408
 106.3788605  32.6496434  42.9604244  38.6279345   8.2659125  52.8258848
  38.3522081   8.1221604  51.9205952  38.0941176   7.6585829  53.3381557
  81.1245346  36.9104886  50.0542498  80.9071350  36.0731101  49.6446562
  80.7596970  36.8472409  50.9369278  49.7593403   9.7186202  70.0212860
  50.3714418   8.9953661  70.1571751  49.7738123  10.2029502  70.8467865
  45.2992772  99.0964150  42.6611280  45.3273439  99.2321998  41.7140245
  46.0526513  98.5353273  42.8450775  75.5225086  37.2730303  51.7669249
  76.3015556  37.1340203  51.2284136  74.8972893  37.6966596  51.1788130
 101.3693523  19.3168342  84.4599152 101.2484932  19.2825150  85.4088306
 102.3115921  19.4380236  84.3427086  67.3052883  21.0343766  60.2785158
  67.3204422  21.3772249  59.3849516  68.1217718  21.3464284  60.6686640
  90.0656891  18.3308446  54.4609499  90.1035404  17.3820674  54.5818663
  90.3083324  18.6908805  55.3140211  14.5032361  39.6543813  48.2596302
  13.7746289  39.7307754  47.6435804  14.1663030  39.0971112  48.9611721
  50.0092363  94.7679621  51.5988302  49.0561437  94.6849590  51.5679741
  50.2440500  95.1483887  50.7524443  24.3859290  33.5866792  84.4835317
  23.6155509  33.4259815  83.9386213  24.8062132  34.3489046  84.0852845
 109.6514797  56.7652082  61.4691353 110.4158878  57.2494555  61.1570120
 109.8369694  55.8536291  61.2436247 106.9840813  93.9140104   7.5016785
 107.0125533  92.9657196   7.6288128 106.0684443  94.1004490   7.2941113
  87.4223614  47.5382853  59.7043133  87.1727562  48.4517622  59.8439026
  88.0423641  47.3491001  60.4086113 103.6303043  44.9904394  54.2525053
 102.9868698  45.6960344  54.1864109 103.5106087  44.4812775  53.4508419
  83.1897449   7.9720968  44.2429399  82.3940659   7.8521788  43.7245274
  82.8968239   7.9002666  45.1513815  74.8308563  12.2833228  86.4889050
  75.3530550  12.8913736  85.9656334  73.9281178  12.4463272  86.2155628
  43.7325811  16.0521042  29.0839982  43.3934546  16.4862335  28.3012104
  44.6827745  16.1468399  29.0177655  83.1435394  -0.2121728  62.4623489
  84.0662575  -0.4312196  62.5921249  83.1405735   0.7332326  62.3125792
  58.1424332  28.0606365  45.2030659  57.6939964  28.7494326  45.6936693
  58.8195992  27.7431583  45.8004665  38.1356954 100.7481327  58.7156725
  38.7424278 100.2245831  58.1922197  37.3095845 100.2660888  58.6782360
  95.6744385  18.6290634  66.2182426  96.2118816  18.5249329  65.4330444
  96.2437439  19.0827978  66.8397284  85.2698994  25.3488612  36.4692092
  86.2017345  25.4736495  36.2893796  85.2461910  24.9249887  37.3271179
  80.8956337  29.2752314  46.7642260  81.4629936  29.2145276  47.5327635
  80.4998970  30.1445508  46.8267298  18.0972484  93.1226991  23.1163883
  17.7082733  93.9848541  23.2634068  18.5430244  93.2017158  22.2730160
  55.9050512  13.0372632  82.6956463  56.5484858  13.6294019  82.3062992
  55.5811071  12.5181174  81.9595909  44.6127080  97.1818381  58.0308628
  44.7131776  97.4443209  57.1158552  43.6733484  97.0300060  58.1347275
  89.5726871  37.4552631  42.1819878  89.4803143  37.1573710  41.2770271
  90.4928493  37.2975302  42.3933172  97.7114201  34.9032712  51.1957312
  97.3860359  34.4032145  50.4472017  96.9422626  35.0311160  51.7509651
  75.6285095  11.2288761  50.9723711  75.5655384  10.6885147  51.7599440
  74.9639845  11.9070899  51.0934687  62.9634142  28.5664725  59.0125132
  63.7232351  29.0849280  59.2772913  62.4092436  29.1816950  58.5322762
 102.5939274  23.4696317  24.7960353 101.6374493  23.5057187  24.8055625
 102.8263569  23.0573559  25.6280422  87.1782589  12.4174738  30.2103329
  87.1427441  11.5978813  29.7171426  87.1172523  12.1483076  31.1268830
  88.6981964  29.6031451  45.5104876  87.9428005  29.1889477  45.9276772
  88.4434605  29.6966863  44.5925617  61.9186926  14.9252951  60.0654364
  61.2930965  14.8282957  59.3474865  62.5740767  14.2462480  59.9054337
   8.0927185  94.4220613   4.5370960   7.8232006  95.2856563   4.2243576
   8.6560348  94.6047233   5.2891159  54.3570042  38.0105996  18.9052725
  54.6437311  38.8028169  18.4509468  55.1503086  37.6722002  19.3204713
  94.6494102   5.6742334  24.9696779  95.1700974   6.3182807  25.4495955
  94.3827724   5.0387895  25.6340170  47.3978186  15.5559671  60.9978437
  46.5026760  15.2250624  60.9240246  47.4025059  16.0537362  61.8154240
   9.2601541  81.6599274  25.2997112   8.3775857  81.6128540  25.6672597
   9.4829705  82.5903416  25.3301692  88.0273247  23.3647203  85.9180737
  88.7061787  23.6560726  86.5267658  87.2065353  23.6466193  86.3218880
  97.3082066  54.5504141  54.0864468  97.5316429  53.6558533  53.8294125
  97.9705048  55.0945377  53.6604071  89.2822838  44.3571472  35.6334400
  89.9654865  44.1152859  36.2587166  88.4688091  44.3041086  36.1351061
  99.8659706  55.6301498  66.1203957  99.7657776  54.6958876  65.9377861
 100.7974339  55.8025217  65.9829235  67.4292326  54.0968704  10.4295528
  66.7556572  54.1349983  11.1085737  68.2560444  54.1462135  10.9093285
  79.7324610  50.3946209  63.4147024  80.1761818  49.9087715  62.7195072
  79.6028328  49.7511816  64.1114187  97.6184559  42.5300980  37.7806258
  97.4036312  42.5888205  36.8496919  96.8071365  42.2372580  38.1956410
  74.5145369  63.0424261  45.9176779  75.2348089  62.7918768  45.3391743
  74.0576077  63.7374926  45.4440451  76.1027765  27.8947902   1.4132516
  75.8804560  28.5967064   0.8015975  76.2566948  27.1316338   0.8563538
 103.7517738  46.5559530  37.8613710 103.6362267  47.4948549  37.7153039
 103.0090141  46.3058567  38.4109116  90.2834129  62.0280123  52.2067165
  89.8121166  62.7883530  51.8661404  89.7355652  61.2801504  51.9683838
  97.0667362  34.3175340  48.3322334  96.3676357  33.6945987  48.5308123
  96.6089630  35.1090860  48.0491829  79.8963261  61.0432196  50.5101776
  80.0507450  61.3243628  51.4120340  78.9728785  60.7919121  50.4924250
  10.8622983  30.1751590  65.4493809  10.8514360  29.7765875  66.3195896
  11.0319284  31.1028957  65.6129646  84.2154217  39.8763227  80.6290531
  84.4537163  40.3952646  81.3972664  83.9647865  40.5243158  79.9706316
  80.7838631  55.4532957  35.5074167  81.1663723  56.2697744  35.1860332
  81.2724876  55.2583647  36.3070965 106.0580826  35.0206828  64.5268917
 106.7293262  35.0805950  63.8471270 105.3850937  35.6445098  64.2545891
  99.3286419  58.8442421  41.6015053  99.3646431  57.8919315  41.5118456
  99.2007160  58.9919233  42.5385523  79.1744089  71.3999891  48.6707115
  78.4490538  71.2004137  49.2625427  79.3891096  72.3144436  48.8548517
  95.6422329  33.8670468  81.8818951  96.3221073  34.5234203  81.7296791
  95.1235104  33.8685083  81.0774326  20.5570462  35.9489608  87.8194332
  20.9982064  36.7731476  87.6136780  19.6266416  36.1386442  87.6986313
  95.0279045  53.9668894  47.3449183  94.7084904  54.8069572  47.0155239
  95.8629227  53.8353872  46.8958282  87.3387718  42.7201271  55.9801817
  86.8181324  42.7456570  55.1773691  87.4045944  41.7893171  56.1934662
  86.0193062  69.0455437  79.2602682  85.7857418  68.4212923  79.9472809
  86.4162350  68.5090828  78.5740519  86.1514282  53.7791920  47.2090483
  85.4770660  53.5301113  47.8410482  85.6922340  53.8136101  46.3698864
 109.8912525  50.9323072  60.6384945 109.3619919  50.9996986  59.8437786
 110.6439781  50.4002333  60.3805542 110.0421143  54.5309210  64.1605139
 110.6673527  53.9752293  63.6951971 110.3460121  55.4234934  63.9956141
   9.9300293  71.4765226   1.5139675   9.1579536  71.9290005   1.1742783
  10.2601627  70.9740089   0.7691669  79.5338011  24.4702482  75.5324745
  79.0206337  24.1433501  74.7935390  79.2180872  25.3638649  75.6666565
 105.1246452  37.2105598  33.9492321 105.6427479  37.0646119  33.1577158
 105.6032276  36.7483473  34.6373773  83.3518124  50.2014542  30.3707743
  83.5504055  49.2650843  30.3723288  84.1485214  50.6147194  30.0380611
  79.6032333  48.6175251  65.8529377  79.2186260  48.2354116  66.6417933
  80.5281162  48.7346554  66.0699797  83.7791824  50.4234838  38.5448933
  83.3224869  50.7102394  37.7540469  83.5313416  49.5043230  38.6446309
  88.5663033  52.4434662  69.2617083  88.8701439  51.5541840  69.4436073
  87.7004242  52.4883795  69.6672630 105.6753063  57.8641081  51.4727163
 106.0368729  57.4086523  52.2330189 106.1829281  57.5333786  50.7316542
  85.9594727  61.9260359  35.5014253  85.0195026  61.8560934  35.3346753
  86.3688660  61.6787815  34.6722722  91.3692760  62.0705509  66.3778162
  91.7017651  62.9542828  66.5349865  91.8041801  61.7907476  65.5723381
  80.9307480  48.1966972  53.8953590  80.6226158  47.5712109  53.2395744
  81.6663742  47.7554989  54.3201303  72.5237179  40.3370237  50.7624865
  71.7928839  40.8676863  51.0795212  73.3043242  40.8347082  51.0057878
   0.6515172  24.4082594  51.0711622  -0.2617404  24.6074891  50.8650160
   1.1550286  24.8767638  50.4054260  86.1979008 102.7132893  31.7444897
  85.2677155 102.7131748  31.5186930  86.3716793 103.6058426  32.0434546
   3.8855699  33.1576037  88.4201145   4.3560365  33.7208676  87.8055954
   3.8399747  32.3087120  87.9801846  94.5145702  30.0890136  76.2999916
  93.8427353  29.8706985  76.9459057  94.1221714  29.8567200  75.4583883
  83.3175659  95.5061054  60.6851006  83.2325172  94.7421741  60.1146650
  82.4224186  95.8292675  60.7876825   1.2788156  35.4828548  33.0448818
   0.8166459  35.8563018  33.7953234   0.9704259  34.5778131  32.9998350
  98.9255333  39.8489213  73.7495232  98.9620495  39.9537754  72.7987814
  98.5113621  40.6527662  74.0634060  90.0606155  35.0160217  64.4419098
  90.8217049  35.2136588  64.9877405  89.4879627  34.4983077  65.0078344
 107.5990009  42.3891592  44.6831417 108.1977463  41.6991091  44.3975449
 107.5262356  42.2665119  45.6296635  85.2350330  64.5126820  68.4708309
  85.1507187  64.6721172  67.5307751  85.3756142  65.3805733  68.8492966
 106.3890363  98.4933637   8.1679726 106.6931487  97.6080488   7.9680634
 105.6618405  98.6391615   7.5628567  85.8183575  36.9080162  78.0225658
  85.5435467  36.0727739  78.4008265  85.3923225  36.9346762  77.1658182
 100.9158802  44.2677450  45.2490139 100.0107098  43.9657545  45.1735115
 100.8594322  45.2189112  45.1577377  90.8742428  10.6755877  44.6139812
  89.9244022  10.6836319  44.4957495  91.0758305   9.7762305  44.8723364
   6.6850713  45.2437353  64.7162485   7.2770932  45.4761696  64.0009069
   5.8110955  45.2907038  64.3286943  33.1829691  12.0773804  53.8447857
  33.7084579  12.2718179  54.6208572  32.8956890  11.1730003  53.9704800
  24.9673417  12.8922009  49.9721432  25.5234197  12.1849096  49.6454144
  24.2386296  12.4447381  50.4022455  98.0860710  60.7354736  29.1338968
  98.1537724  60.3585243  28.2566524  98.9209175  61.1845016  29.2667198
 110.6098366  28.8307452  59.7532368 110.5092335  28.5868406  60.6733561
 110.6107807  27.9969311  59.2831469 102.6902103  52.9153538  66.9483948
 102.4022198  53.6821413  66.4530849 103.1457043  53.2781649  67.7080822
 100.8441734  35.0623894  68.8436604 100.8730698  35.5036736  67.9947376
 100.1999378  35.5578542  69.3493366 104.5630502  98.5174989  24.3977189
 104.9603318  98.7363451  23.5548043 105.3067636  98.3589309  24.9790692
 105.8177376  27.3347020  64.3674564 106.4512157  27.0867062  65.0408268
 105.3805637  26.5151048  64.1364145 106.8355656  48.6791420  86.9534016
 107.6497459  49.1270256  87.1830463 107.0275784  48.2441711  86.1226368
  85.3544044  45.3483343  55.7879400  85.4177094  44.4693041  56.1614752
  85.8224773  45.9066629  56.4087534   1.4780572  35.1068354  66.7904234
   0.8192304  34.6924567  67.3476171   2.1767762  35.3602362  67.3935843
  90.4436111  68.7799120  64.1638708  91.1007786  68.1067801  64.3406296
  90.8239746  69.5844269  64.5164442  15.8547452  18.7369907  26.7311597
  15.4868844  19.4035435  26.1509728  16.2334779  19.2335045  27.4566078
  99.3245220  12.9235303  19.7301757  99.6947575  13.8040531  19.6682107
  98.3908272  13.0435526  19.5568621  95.5564308  68.9198446  41.3806820
  94.7087860  69.0272617  40.9491682  95.4703999  69.4045210  42.2016096
 109.2980480  19.8383248  43.1983709 109.9191284  20.4702568  43.5605192
 109.8181343  19.3127108  42.5905323  77.8862095  37.3105836  49.9164820
  78.6520863  37.2630477  50.4886770  78.1191683  37.9654837  49.2584038
  89.7485352  47.5547791  67.4833393  90.6882572  47.3727703  67.4895144
  89.4228458  47.1602583  68.2923555 104.7380447  74.3535995  46.1138153
 105.4327679  73.7100506  46.2532330 104.9168205  75.0416946  46.7547512
   7.0487741  30.9753609  36.0988235   6.9033578  31.8518567  36.4549708
   7.5501207  30.5216694  36.7763567   3.6769727  40.1493740  83.3546543
   2.8365663  39.7008014  83.2612038   4.1421750  39.9585891  82.5401497
 104.6064949  32.3021984  43.2822371 104.3924332  33.1527400  42.8988504
 103.8580704  32.0968342  43.8425159  88.6207390  56.4278698  44.2736340
  89.5600605  56.5976715  44.2024469  88.5638523  55.5348969  44.6136236
  88.6801147  40.2193594  56.2282801  89.4581127  39.7862220  55.8770752
  88.7860870  40.1687193  57.1782494  76.6936874  56.5401745  41.8288279
  77.2639656  55.8861637  41.4247370  77.0508242  56.6582966  42.7090120
  79.7597456  55.9341335  51.8042374  79.5369339  56.4355373  52.5885725
  80.3754997  55.2690458  52.1120310  83.0061913  35.6713033  66.3158417
  82.3005295  36.3140607  66.3875294  82.6543903  34.8823929  66.7282581
  91.8007183  57.4682426  32.2158623  92.3936272  56.8735123  31.7565203
  90.9655476  57.0012760  32.2415638 102.6350594  27.4382043  45.2790594
 102.9333591  28.1818175  44.7553396 102.5323963  27.7930164  46.1621237
  83.2997131  77.8725386  20.7381845  83.0242920  77.3138714  21.4650035
  84.0531445  77.4192905  20.3598642  28.9739373  76.8912649  15.0902569
  29.2186978  76.0406923  14.7257662  29.7186044  77.4595070  14.8932481
  91.6665649  23.8540387  67.2842360  91.2886047  23.0095220  67.5295401
  91.9524574  23.7345004  66.3785839 101.1541271  22.7639079  36.3800979
 100.4153919  22.5726676  35.8022308 101.6679859  23.4162474  35.9040380
  87.8403664  18.9427459  53.0053568  87.3772335  19.5404732  53.5922670
  88.6882114  18.8022685  53.4268379  90.1310635  33.0438638  49.1652536
  89.8845768  32.9452801  48.2456017  90.9388638  33.5568929  49.1430426
   5.6111577  39.5762634  44.5319653   5.1452401  39.5000124  43.6992979
   6.5307668  39.6714950  44.2840099  86.5118504  57.6377058  49.8627949
  86.9441032  57.1804476  50.5841208  86.0055065  58.3302164  50.2873802
  95.9409809   7.1755761  26.7988086  96.7607117   7.0033199  26.3355565
  95.7591152   8.0997324  26.6282463  98.6394215   4.2624515  46.6773510
  98.9556789   5.1380509  46.8999290  99.2645168   3.9398724  46.0281658
  76.4037037  59.7365665  83.5194683  75.7547140  59.1214848  83.8611126
  76.7366552  59.3172693  82.7260113  89.6599197  13.0855620  66.6936111
  89.5300579  13.9891326  66.4056396  88.8191509  12.6585972  66.5291786
   0.9802964  94.9845505  25.3090644   1.8357328  95.2127552  25.6729126
   0.4890397  94.6356201  26.0527992  79.9425650  35.4974127  51.9628572
  79.7895432  35.4525614  52.9066801  80.6802273  34.9065113  51.8114710
  95.8714104  50.2368975  64.0475893  95.4046726  50.4218483  64.8625612
  95.7892513  51.0420513  63.5365009  76.4285183   1.5238690  49.0013361
  75.4730654   1.4672166  49.0131426  76.6203451   2.4033099  49.3269396
  83.0017567  53.4271717  15.7141304  83.6598396  53.8280392  16.2819898
  83.5044765  52.8650331  15.1246345  83.5939789  44.7081900  53.6450100
  82.7985382  44.7005367  54.1774130  84.2704010  45.0495958  54.2299223
  12.7475408  24.1527033  51.1741495  12.3265699  24.8996878  51.5996218
  12.1287397  23.4315324  51.2891865  94.1904354  23.6126351  41.6488934
  94.5470619  23.0092359  40.9970045  93.7237644  23.0495620  42.2664690
  70.7373667  77.2832108  29.0106487  70.6919050  77.2980261  28.0546451
  71.5710354  77.7056980  29.2173672   2.2282746  12.8751111  73.9072037
   2.5020841  12.1833253  74.5094442   2.6101735  13.6740530  74.2706299
  87.9251194  77.7951717  37.9891300  88.5474205  78.5177422  37.9062080
  87.3197937  77.9152441  37.2574282  94.8056698  24.3267131  21.2055254
  93.9574623  24.6789551  20.9358764  95.4185390  25.0498509  21.0725284
  99.8410225  67.9988289  70.7641602 100.3253460  68.5491800  71.3796091
 100.2643490  68.1539631  69.9197912  79.6295357  53.1288195  46.7314386
  78.9431381  52.5600529  46.3827372  80.2555847  52.5283241  47.1360350
  13.5079053  13.3173835  53.3664131  12.9712632  14.0577805  53.6493587
  13.7336972  12.8615355  54.1772461   5.2648595  29.2561173  14.8708665
   4.6728280  29.3564844  15.6162906   4.7051290  29.3722916  14.1031182
  93.5154819  60.8449173  58.4528780  92.8739071  60.1914978  58.1742144
  93.7875366  61.2745142  57.6419115  75.9293604  18.9660656  48.3340883
  76.4104557  18.1836116  48.6034346  76.4995956  19.6944070  48.5802317
  71.7751026  36.7462778  81.5264034  70.9793234  36.6717196  80.9997082
  71.5041780  37.2385383  82.3013306  94.7961426  53.2178831  28.1567574
  94.8739147  52.4581814  27.5796652  95.5299950  53.7812805  27.9112411
  77.2218657  76.6102219  59.1112757  77.2429705  75.9716034  58.3985615
  76.3040495  76.8760633  59.1675711   5.7500413  96.2806225  66.7898369
   6.1200956  96.6953754  67.5691223   5.1341107  96.9267178  66.4442635
  84.2840195  34.4568801  52.9267406  84.7595119  35.2859902  52.8745842
  84.4738770  34.1267371  53.8049221 104.0543175  29.4042659  62.4769497
 103.8951015  29.0552473  63.3539104 103.4906483  28.8826656  61.9055986
   7.4146608  75.0129604  52.1613836   7.9336885  74.2720509  52.4742651
   7.9834512  75.4545307  51.5307331  55.0157499  74.3994522  47.7213621
  54.4351768  73.8013697  48.1919670  54.9925947  74.0921736  46.8151188
  92.7683258  36.5392780  40.5000687  92.7551270  35.8708119  39.8150802
  92.3007584  37.2823310  40.1186371  91.3062572  75.7390165  45.9055758
  90.8149433  75.8986473  45.0997496  91.6502094  74.8514795  45.8045578
  72.6654530  17.1188986  32.3220134  71.9720936  16.5752864  32.6961374
  73.4540033  16.5803313  32.3880792  80.9115887  24.0788102  46.8586254
  81.5207386  23.7118459  47.4993277  80.7377434  23.3580256  46.2532520
  98.4375095  52.1708488  53.9127970  98.0305099  51.4940262  54.4536209
  99.3777657  52.0501184  54.0454102 101.1375427  56.7295742  68.5168219
 101.6753101  57.0452309  67.7905941 100.4878902  57.4195576  68.6513519
  82.7889252  52.4965286  40.1775312  81.8484974  52.6385307  40.0695467
  82.9395294  51.6166735  39.8319721 105.3192520  32.5996494  60.9156990
 104.9483299  32.0729494  60.2077198 106.0808086  32.1009231  61.2115574
  92.2558975  60.9924650  64.0172720  91.9316006  60.5542231  63.2305050
  93.0080414  61.5015650  63.7150669 101.4948177  41.5218830  69.2218637
 100.9462929  41.7035055  68.4587383 101.9466019  40.7067394  69.0035534
 103.8549900  15.1973355  47.8195143 104.2832470  15.3528404  48.6613274
 104.0617466  14.2864609  47.6102543  82.5569439  59.9314594  53.6618328
  83.4323597  59.5871115  53.4848738  82.7093506  60.7077599  54.2006922
 101.5058613  20.5745935  53.7002134 101.9708443  19.7379196  53.7022209
 100.8946609  20.5071735  52.9666471 101.9989586  45.3425217  58.5283852
 102.0281124  45.7890940  59.3745232 102.1091270  44.4161224  58.7425661
  24.9559640  11.9530560  90.4114110  24.6963548  11.0323788  90.3768492
  25.7379388  11.9608475  90.9633940  99.1535282  57.2889185  55.7272053
  99.2022705  56.9432783  56.6184902  98.6487389  58.0978346  55.8112812
  96.9583130  33.9361954  72.4302340  96.2573338  33.4087372  72.8131771
  96.5048409  34.6608639  71.9996023  12.7166513  34.4771767  76.9052649
  12.0401338  34.0448523  77.4264669  12.9179814  35.2773595  77.3904514
 100.7336044   6.1611897  35.5456185 100.7578468   6.9333673  36.1107612
 100.7959175   5.4207289  36.1489987   6.3611081  39.6616197  49.1578388
   6.1679128  40.3515196  48.5230637   5.5019811  39.3645763  49.4576502
  62.6310396   9.1147846  78.1084728  62.7405024   9.4548202  77.2204256
  63.4957886   8.7791985  78.3447313  84.5498466  70.1468229  55.7096815
  84.2816639  70.9975100  56.0570145  84.6848297  70.3015947  54.7747755
   6.8906358  63.3880377  72.1075726   6.6727212  62.5126553  71.7875051
   6.0439923  63.7883139  72.3055553   3.7892869  57.1121836  58.1449890
   3.9495137  56.2124920  57.8601837   4.6375325  57.4156952  58.4683943
  72.0126724  47.8926563  52.0895243  71.4585257  48.2848358  52.7643204
  71.4693117  47.2062063  51.7025185  88.7593937  32.6518774  41.8873358
  89.2919445  32.3830414  42.6359034  88.9567184  33.5817122  41.7746305
  87.1495152  31.9373918  56.8331861  88.0940151  31.8040252  56.7534256
  86.8730831  31.3031363  57.4946547 102.1179534  73.9555334   5.1872349
 102.3233319  74.7786783   5.6305027 101.3992739  73.5817383   5.6971455
 110.2636147  55.8293915  75.9498644 110.6990814  55.6723356  75.1120472
 109.3870068  56.1309004  75.7113647  70.9647465  62.1006060  39.4292450
  70.3440762  62.6669693  39.8877549  71.6157818  62.7019835  39.0676808
  91.1453533  46.1666012  75.7222366  91.6633415  45.5800676  75.1709652
  90.6040478  45.5814123  76.2521124  15.0118020  55.3193045  72.0480824
  14.7668508  55.6929064  72.8946400  14.5984033  55.8941460  71.4039612
   1.3734105  27.1637321  36.8498063   2.0626500  27.2242904  37.5112557
   1.7400125  27.6008439  36.0811877   1.8204072  15.8783686  57.8049994
   2.6890805  15.8385384  58.2050562   1.2144807  15.7507622  58.5349274
   2.7158502  65.5999756  50.7949352   1.7995027  65.3385544  50.8854055
   2.6972917  66.5561295  50.8356810  90.2538586  50.4960680  39.1650748
  89.8777199  50.3073454  38.3053493  90.3379536  49.6390724  39.5830750
  90.1650238  53.3164072  79.5404482  89.8284912  53.9786577  80.1441097
  90.2514744  53.7756252  78.7050629  93.4207058  38.4465480  56.6808748
  92.6412964  38.5377145  56.1327505  93.8996220  39.2656183  56.5543842
  78.8637304  81.0386467  74.6587610  79.7403526  81.4141750  74.7408628
  78.2752991  81.7924118  74.7015715  94.7976875  66.9671822  21.2516594
  93.8739109  66.7734480  21.0924768  94.7886848  67.6131248  21.9579983
 106.8174076  49.5417976  59.3838406 106.5228271  49.7281361  60.2753115
 106.3751888  50.1966810  58.8436508 109.3670940  32.3996544  33.2451797
 110.3161049  32.5159764  33.1996703 109.0125370  33.2834673  33.1482363
 108.4321785  53.4323406  34.4718027 108.6019897  54.3741989  34.4890356
 107.8693867  53.3043671  33.7081790 111.2328243  63.9964676  43.5060692
 110.3138638  63.7798786  43.6636162 111.5275860  63.3429718  42.8718042
   6.3437703  10.4145181  67.3708248   5.8685544   9.7766584  67.9033041
   6.5562585   9.9431705  66.5652752   4.0041783  29.9737430  77.1162605
   4.1517976  29.7524571  78.0357552   3.1883195  30.4743457  77.1183872
  93.2206249  35.0567269  45.9759951  94.0158939  34.5638061  45.7740021
  92.8827190  35.3265905  45.1220465   9.5041326  50.3464365  46.6749144
   9.3915227  51.0692215  47.2922754   8.6126092  50.1046753  46.4239836
  22.9925969  21.3336396  71.4370489  23.2975343  22.0531368  70.8842659
  23.7737611  20.8023667  71.5912056  96.3464642  53.4406996  64.7050333
  96.0546780  53.5287571  65.6124115  96.8936253  54.2113495  64.5535326
  82.1295261  22.1287012  70.0918531  82.9001904  22.5700212  70.4489899
  81.8467617  21.5380430  70.7899904  84.2615223  36.2115026  60.8492231
  83.3854771  35.8268332  60.8776569  84.8363781  35.5230236  61.1835337
 106.3439751  10.0810683  37.9998922 105.6869125  10.6713009  37.6309514
 107.1317577  10.6190169  38.0789018  90.8686543  23.8637352  76.8284750
  91.4769173  23.4859204  77.4636889  91.2387657  23.6335802  75.9762526
  92.9374695  41.4971733  46.7301035  92.1738243  41.5691757  46.1574841
  92.5756836  41.5211821  47.6159763  85.3135681  32.9588342  36.8118167
  85.1448536  33.7842202  36.3573909  84.8940754  32.2943902  36.2652183
  88.3222008  70.8129930  62.2523355  87.9438877  70.6385088  61.3905525
  88.4080887  69.9491310  62.6555681  98.0851173  43.4624004  89.2361355
  97.5857353  44.1054392  89.7394848  98.6162949  43.0070400  89.8893833
  10.9811071  45.9510183  70.4966402  10.4910615  45.4936123  69.8133659
  10.5075887  45.7527161  71.3045311  92.2298050  36.6209722  68.1089258
  91.6073513  36.3774252  68.7940979  92.8609562  37.1897149  68.5498571
  15.9496740  59.1476202  62.1680403  16.5906671  58.4959412  61.8840170
  15.6148675  58.8083363  62.9981136 107.8633118  36.8595409  20.2762532
 107.7341557  36.0095263  19.8555088 108.5348225  37.2893929  19.7465932
  58.0496124 100.2281974  23.0343342  57.5943188  99.7889207  22.3160267
  58.8193897  99.6835302  23.1986809  66.7741728  25.4479837  28.3801770
  66.2564993  24.6473861  28.4655428  66.1429358  26.1561251  28.5078621
  92.4534416  34.0193486  13.5820401  92.7596474  33.2678866  13.0743229
  91.9265461  34.5268202  12.9647219   0.9270242  47.8164625  62.8709078
   1.0505536  46.9624186  62.4566841   0.4175904  47.6288605  63.6592627
   3.2762674  13.5963333  24.7903967   3.3309606  12.6575243  24.9689436
   2.7255490  13.6600542  24.0100884  30.4851010  57.5052595  55.9015369
  29.9559930  56.7824125  55.5642414  31.1849931  57.0792055  56.3963747
  16.5706876   3.7199050  55.7384062  16.2478212   4.0803602  56.5642738
  15.8550599   3.1688100  55.4215574  95.3672409  57.1577644  55.0454998
  96.2296104  56.7915297  54.8494768  94.9293423  56.4782763  55.5581141
 104.0760517  45.0478315  47.5392342 104.8032951  45.6261206  47.7693319
 103.4610653  45.1349831  48.2675409  97.6685333  57.2672224  46.3466120
  96.9699097  57.1063757  45.7123566  97.2098923  57.4862671  47.1577215
  80.5574512  48.4127092  61.5150309  80.0081158  48.6065769  60.7555056
  81.1169529  47.6910448  61.2280083  97.7221203  51.8697119  41.3520718
  97.9368591  52.1922112  42.2273493  97.2306156  51.0632515  41.5078688
  79.9777699   8.3681345  16.3286674  79.1842651   8.6874539  16.7583358
  80.0186443   8.8573951  15.5069709  84.8510933  41.5788937  63.3290195
  85.5657578  41.0788250  62.9347992  84.0685177  41.2880182  62.8608418
 100.9663486  21.5841603  41.1388826 101.2118149  22.5020480  41.0228729
 101.6623020  21.0930777  40.7021761 106.1426544  59.3454742  63.6717701
 106.4521694  58.7273598  63.0096865 105.2287769  59.1015196  63.8185644
  26.6998390   0.5326480  62.0941448  27.0841316   0.3027171  61.2481642
  27.0695499  -0.1038152  62.7060747 104.3399429  89.0794945  42.7036762
 104.5998383  89.1720867  41.7870951 103.6647987  89.7462177  42.8297234
   9.6559480  45.6112432  86.9758797   9.2764142  46.0528851  87.7355766
   9.0830091  45.8520508  86.2478828 110.4223919  70.7101774  53.6888456
 110.4491615  70.9275198  54.6206617 111.0667801  71.2936783  53.2881927
  18.6839917  67.5811768  33.0928779  19.5434526  67.3060703  32.7737021
  18.0617192  67.0651102  32.5803542 104.2208195  54.5710230  52.5906754
 103.5470104  55.1823378  52.8881836 104.8178005  54.4919014  53.3347082
  21.0714296  96.2554932  49.9221039  21.1560681  96.1028767  48.9809465
  20.5583432  95.5125904  50.2400255 110.6023788  87.2634029  41.4706659
 110.1847935  86.7451477  42.1586037 110.0251198  87.1656990  40.7133961
  84.5759583  62.8904724  64.8422670  84.2432213  63.7200546  64.4997597
  85.2360535  63.1450653  65.4870081  99.9879169  53.4291935  13.1771708
 100.6998062  52.8213930  12.9771173  99.6614647  53.7058544  12.3209453
  88.1261730  30.6572771  63.7112761  87.9125786  29.7828889  63.3856153
  88.3322811  30.5245137  64.6365452   2.9717687  40.2855635  18.0953681
   2.8960279  39.5641685  17.4708021   3.2496026  39.8682380  18.9107728
  87.8035736  69.6667290  37.2407079  88.4538937  69.2002392  37.7657819
  87.3957539  70.2789879  37.8531241   7.8609136  93.2257271  23.7073421
   8.1327203  93.7790489  24.4395900   8.4384587  92.4639225  23.7555289
  83.8909817  89.7233868  48.5246658  84.6955204  89.2496490  48.7356949
  83.9675617  90.5497932  49.0015554 102.3988724  55.1553297  65.4058790
 102.4038124  54.6019459  64.6248770 102.9256725  55.9167957  65.1632166
  15.9710267  53.2061052  35.9484220  15.2200845  52.6173830  35.8728433
  15.8945611  53.5803890  36.8260860  94.9209881  84.7385025  25.7543445
  94.2213917  84.4008541  26.3136172  95.6652069  84.8540497  26.3451219
  94.5433044  78.0618238  42.5680494  93.8554859  78.2669687  43.2013464
  95.1261139  77.4618006  43.0333853 106.6230202  20.4869914  65.7136011
 105.8575249  20.5286860  65.1404476 106.5627670  21.2764597  66.2515068
   2.8591970  57.9141760  21.7814493   3.4131387  57.1606588  21.5775251
   3.3817437  58.4383011  22.3884678  14.3478635  65.7009172  49.9377871
  14.1336301  64.8233366  49.6212578  15.1455930  65.9379911  49.4648600
  94.4555378  54.2869854  16.1940098  94.4048405  53.3933544  16.5332556
  95.3510094  54.5655298  16.3857818   7.4978307  65.1970387  70.0051165
   8.0151513  65.8543062  70.4705238   7.4698690  64.4483757  70.6009007
 100.8363533  41.4572811  60.1397848 100.3527260  40.9180164  59.5140600
 100.2625370  42.2054100  60.3049231  98.1669998  31.1658382  51.5945959
  98.5674000  30.6771421  52.3136854  97.6775837  31.8669963  52.0247984
  19.0435174  42.7792025  36.7750692  19.0534738  43.4100389  37.4949169
  19.6202520  43.1614447  36.1136341  45.2857640  83.5988998  56.6760063
  44.8099759  83.9583969  55.9272575  46.0840276  83.2300854  56.2978745
   4.1535142  50.0571680  71.6955996   4.8380521  50.0959158  71.0276651
   4.5164827  50.5390167  72.4387741  99.6848106  80.5354309  51.3035965
 100.2318382  79.7581244  51.4166832 100.3079510  81.2488842  51.1660624
  60.9759760  30.4995990  18.9028001  61.2125158  30.3272462  17.9914415
  60.0362539  30.3222537  18.9439964 107.4157619  42.5223541  70.8102942
 108.0169773  41.9016361  71.2219810 107.8834152  43.3573198  70.8293724
  87.3579311  76.5982580  68.1769657  86.8145752  76.1753511  67.5120211
  88.2552814  76.3720751  67.9323435 101.9355965  95.2279377  32.5442433
 102.7289295  94.9670506  33.0119967 102.2223282  95.9287357  31.9586682
  82.0680428  49.8383427  49.2467403  82.8153038  49.7503710  49.8384237
  82.2706223  49.2536211  48.5164738   9.0511850  45.3782129  16.8732071
   8.5161927  45.8567715  17.5064468   8.5088781  44.6323442  16.6166639
  13.2336095  31.4730692  72.1533298  12.3976663  31.0068154  72.1469021
  13.3962014  31.6859436  71.2343740  98.5748196  62.7967834  51.3219690
  99.1813183  62.3866606  50.7053804  97.9236412  63.2265234  50.7674265
 110.9320736  52.0878220  39.9149275 110.1272392  51.7901897  39.4908047
 110.6577778  52.8276253  40.4568481  87.5525093  41.4464235  66.6911936
  88.0821228  40.7551718  67.0885801  87.3592758  42.0448780  67.4128199
   6.0887578  74.1131830  38.8790488   7.0169690  74.0191698  39.0931177
   5.7448819  73.2203245  38.9070153 104.6452522  62.7283287  64.1311026
 104.1896057  63.2767153  63.4924364 105.1025105  63.3498621  64.6975279
 107.3631573  58.3023977  18.1955647 108.1320190  58.3360100  18.7647343
 107.5248432  58.9755964  17.5345898  81.0469107  16.3990824   6.6530895
  80.4123072  16.5583270   5.9544086  81.2985758  15.4820721   6.5436363
  31.8353799  82.9279995  35.4123831  32.7384713  83.1629467  35.1991439
  31.7138627  83.2348251  36.3108969  23.2926992  71.0513258  71.5048742
  23.7596181  71.7261362  71.0120678  23.5947278  71.1610746  72.4065208
   2.8249601  39.5398116  57.4406004   2.2895101  40.3194809  57.5876904
   3.1940988  39.6642303  56.5662479  78.6434937  94.1166115  66.3951778
  79.4272470  93.9210129  66.9086981  78.8839722  93.8922691  65.4962492
  75.9138823  71.8131542  69.4505501  76.7553425  72.2660351  69.3951368
  75.7732344  71.6830063  70.3883743  90.9399319  43.2720280  71.1725760
  90.6918049  43.9675045  71.7816496  90.5225563  43.5167789  70.3466654
   9.1237023  93.5345173  42.0531225   9.5380166  92.7007580  42.2754145
   9.1676381  94.0466118  42.8606224  56.1902380  74.2519760  51.7696714
  56.9348145  74.5239305  52.3062134  56.3662195  74.6283913  50.9073687
  98.3152294  45.6803417  23.1037760  98.1792450  44.7513676  22.9173684
  98.1525803  46.1185551  22.2684646  67.8101873  70.3407145  49.8544693
  67.9387188  70.5945539  48.9405394  66.9113350  70.6039143  50.0520134
  98.3627796  99.2206192  47.7688408  97.8582096  99.7624588  47.1621609
  97.7015209  98.7530899  48.2791233   4.4765237  38.4450078  39.6792722
   5.3893235  38.1975889  39.5315766   4.0094522  38.1036615  38.9166760
 103.0241394  55.0150061  41.7069387 103.3168411  55.9069395  41.8940496
 103.6455345  54.4561481  42.1736050  90.1649284  57.4058867  37.2149706
  91.0396767  57.7839661  37.3050690  89.6095467  57.9518652  37.7714610
  80.1852131  42.7533007  57.6300573  79.4071102  42.3720407  57.2233295
  80.5830193  42.0283842  58.1122112  10.7440713  22.3998141  50.7763290
  10.7760766  21.6051173  50.2437258  10.4517320  22.0997310  51.6369772
  87.7632141  33.4115481  34.2700267  87.7297211  32.4551797  34.2483950
  87.8968716  33.6257029  35.1933384  14.6609738  63.6516953  25.8018565
  15.5918840  63.8336468  25.6733131  14.3285802  64.4200897  26.2658739
  73.1280184  49.5803833  25.0957942  73.6023283  49.2853832  24.3184686
  73.8124514  49.7579384  25.7409739  79.7529793  63.7062788  60.4006910
  79.8314524  64.4326305  59.7822285  80.0132942  62.9344559  59.8979473
  97.3746586  51.6478968  51.3980961  97.9527855  52.2623539  50.9459352
  97.8099918  51.4802551  52.2339249 100.0132275  65.9241867  34.6340919
 100.7019901  66.0148191  35.2925849 100.0969219  66.7076349  34.0905547
 106.3791561  48.7759352  22.1334028 105.6306267  48.2211733  22.3529005
 107.1296310  48.3335018  22.5299716  21.4223054  56.1220360  70.5423737
  21.1511090  56.6484690  69.7903442  21.8339589  56.7486715  71.1374378
  28.9011959   2.2298450  44.1988516  29.0765575   1.9161529  45.0860262
  29.6442894   2.7974624  43.9942598  32.9091790  39.6781778  54.0749168
  33.3577302  39.7299480  54.9189281  33.5407403  39.2545390  53.4936333
  15.4019502  85.5717564  61.7800188  14.5101026  85.5537891  62.1271753
  15.7198384  84.6755886  61.8898869  52.2090482  21.2394215  85.6780255
  51.4268255  21.7308880  85.9286577  52.6428174  21.7940260  85.0295699
  97.4520016  59.7870922  75.0662708  97.4684048  60.4482269  74.3742752
  97.7860737  58.9937925  74.6475744  85.4628086  42.4597216  54.1052294
  85.0668240  41.6483879  54.4233036  84.7907543  42.8516960  53.5476208
 100.1948166  66.4907312  56.3143826 100.1779747  67.4368334  56.4587593
 100.1469612  66.3926792  55.3634214  93.8047409  77.6913929  51.1946106
  93.0500793  77.5038338  51.7527676  93.9763165  76.8672943  50.7389259
  80.0842094  80.9032631  41.2932634  79.2370224  81.1594105  41.6578197
  79.9961710  79.9663591  41.1180830  93.5290241  61.0516310  37.2333264
  94.1758347  61.5921926  37.6868320  92.6903629  61.3107204  37.6151085
  23.4995941  99.4801448   5.6118202  23.8699917 100.2276491   5.1424789
  22.6552872  99.7947143   5.9349823 102.8728867  71.3829088  61.9445133
 102.0164204  71.4400959  61.5209293 103.4741879  71.7977190  61.3259554
  29.9562600  61.8233824  23.1701422  29.1875699  62.0604849  22.6513553
  30.0645402  60.8838987  23.0222368  93.0908298  73.9829540  42.0326328
  92.7659988  73.0914307  41.9065142  93.4502220  73.9836597  42.9198027
  89.1687202  53.1807995  23.1512761  89.1772366  52.9641771  22.2189474
  88.2556343  53.0673790  23.4151816  83.7184906  61.0803223  43.6684942
  83.5363102  60.1450920  43.5769510  84.4024181  61.1268377  44.3365622
  81.2571812  36.7607594  58.6273861  82.0630455  36.6168642  58.1312990
  81.5464592  37.1798682  59.4378805  92.1067333  63.6715317  46.5745497
  92.6408863  64.2388964  46.0186577  91.2755775  63.5914612  46.1065912
  98.8760567  34.5594406  31.8277669  98.7874603  35.1776838  32.5531340
  99.4520760  35.0022888  31.2046146  85.5971909  83.2745361  56.6104746
  86.1750793  82.6524448  56.1685514  84.9306965  82.7280903  57.0269060
  81.9656754  41.1709356  55.2292824  81.6738319  41.2856007  56.1336660
  82.8681278  40.8612967  55.3062630  96.0066128  51.3794708  79.1684008
  96.5019417  50.5856752  78.9664841  95.0900841  51.1210918  79.0712118
   0.9521249  55.3096581  55.9901142   0.2675107  54.7370338  55.6442165
   1.4308217  55.6054401  55.2157831   2.7925828  78.9802742  51.3929081
   2.3901799  78.1716108  51.0760927   2.4619725  79.6588850  50.8043337
   3.9871076  83.9052296  76.4986420   4.1158918  83.0147457  76.8252659
   4.6713117  84.0197277  75.8391094  17.7074769  51.9104147  24.6479416
  17.3859170  51.7332745  25.5319405  16.9173196  52.0812607  24.1354084
  41.1060242  83.9660977  19.8422527  41.3230614  84.2726039  18.9618111
  40.8404831  84.7564958  20.3123474   2.5704244  77.8788280  59.4908333
   2.6320413  78.7663174  59.8441124   2.3594049  77.3334885  60.2486610
  99.7638988  84.2167282  43.5701704  99.6949005  83.5783482  42.8602743
  99.7914696  83.6869049  44.3668842  98.3500862  58.9475679  39.0732050
  98.9523411  58.4264469  38.5422063  98.8196087  59.0932417  39.8945189
  20.3792813  32.5212884  40.7732773  21.1860231  32.4998832  40.2585506
  19.6818593  32.5995111  40.1223421  13.6139253  53.0748987  71.2877750
  12.7684453  53.2628679  71.6952848  14.2076734  53.7297726  71.6549826
  16.3769821  76.9869326  31.7022896  16.9574551  76.3101433  32.0504856
  16.9680027  77.6381157  31.3242817 104.9269390  56.9850492  41.6128635
 104.6860409  57.3354387  40.7552958 104.6468735  57.6576424  42.2336864
   1.8588498  65.9309387  66.6025019   1.1151746  65.3918505  66.3331413
   2.6282266  65.4118109  66.3684177  93.1761837  87.2188568  31.5629268
  92.5220490  87.8257370  31.2164569  93.3697891  86.6322994  30.8316970
 111.1884117  43.4420824  59.1731119 110.7861805  44.1976166  59.6016073
 111.3923931  42.8409290  59.8895168  70.8127165  50.9316111  89.2312145
  70.1346207  50.9743452  88.5569859  71.6255474  51.1301899  88.7663460
 104.8333073  62.4044180  31.8996930 104.8527241  62.7872372  31.0225940
 103.9157104  62.4621725  32.1659756  61.5538931  65.1552677  38.6171293
  60.7291269  64.6732998  38.5562873  61.3363791  66.0401535  38.3240366
   3.2349065  66.1918592  20.8983827   3.3927587  67.0892286  21.1917138
   2.5630811  66.2757349  20.2217364  94.9477768  82.2846889  73.5054779
  94.9512577  81.4207840  73.0933094  95.8719730  82.5279045  73.5597372
   6.9912389  82.5514507   1.3617370   7.4891427  82.0088196   1.9731852
   6.7516473  81.9549370   0.6525120 106.5685081  84.0649509  74.4985580
 105.9246540  84.6521759  74.1025162 107.3618889  84.5951557  74.5737839
  90.3653812  79.2506647  63.5564947  90.2987289  79.0678883  64.4937181
  91.2921238  79.1241217  63.3531046 102.1282005  81.8312645  47.0479012
 101.9081306  81.2991428  47.8125286 101.3467026  82.3615932  46.8922138
   7.0785287  69.9020243  76.9109535   7.8823140  69.4601965  77.1847343
   6.3762715  69.3984461  77.3226213 106.0778332  66.3454485  18.6297011
 105.1502705  66.5767670  18.6782551 106.0956287  65.3977251  18.7628675
   1.4098027  64.9448538  40.2616072   1.1842111  64.9950218  39.3327260
   1.4841607  65.8577538  40.5396700 102.2220707  74.8687601  69.4012880
 102.8915405  75.3720379  69.8647022 102.5098610  74.8710203  68.4883738
  13.6602215  91.6032957   3.7948322  13.7592510  91.4849709   4.7395134
  14.3130020  92.2651218   3.5666084  99.7505093  86.6012192  32.9198551
 100.0012112  86.8936443  33.7961364  99.9277401  87.3542976  32.3562121
  92.1665764  60.4627037  61.2657642  91.6458797  61.2025452  60.9531212
  92.9774475  60.5094862  60.7592821 111.4968586  44.9081898  68.6008263
 111.4579201  44.1086102  69.1255951 112.2597790  45.3784418  68.9370680
  12.3566869  15.6564534  54.0668726  12.7095369  16.1924231  54.7771358
  12.7289632  16.0374975  53.2716084  86.6499519  39.4209623  77.6466417
  86.2899208  38.5504198  77.8162432  87.2005939  39.3057060  76.8722105
 104.7903061  62.1535778  28.0079722 105.2340508  62.9460382  27.7057695
 104.2761612  62.4400425  28.7628412  77.7080727  85.4253292  65.2447176
  76.8261528  85.6585312  65.5346584  77.9359531  84.6556664  65.7661867
   7.6665071  61.1948299  33.6346579   6.8663648  60.7655096  33.9374709
   8.2953218  60.4811811  33.5273147 105.5074883  77.3371601  34.2561960
 105.5327225  77.8905058  35.0368404 106.0896683  76.6057920  34.4621086
  95.9709549  34.0165663  43.9335632  95.8773899  34.5798087  43.1652927
  96.9166756  33.9323545  44.0550566  96.3164043  65.8307028  55.2001572
  95.4185486  65.7111311  54.8906612  96.8611240  65.4743671  54.4983435
   9.7926000  52.0871449  23.8113594  10.5448392  52.6598310  23.6616993
   9.3525270  52.4639893  24.5733023  12.6244310  82.0184517  74.5782566
  13.2990029  82.6731014  74.7588778  11.8305638  82.3767090  74.9753189
 102.0489597  61.7288494  75.6014824 101.5675545  62.5443125  75.4618168
 101.4515781  61.1825371  76.1122799  81.5551758  70.6976414  83.1131077
  82.1589661  70.0817537  82.6979637  81.5499496  71.4573002  82.5307655
  62.1035862  72.1436548  31.9564366  62.1942854  71.7187023  31.1035466
  61.1740112  72.3638630  32.0166707   4.1358903  40.5532408  34.2213082
   4.4867566  39.9089146  34.8360991   3.7541249  41.2321043  34.7777557
  84.4271564  40.8778381  76.7244148  83.9537144  41.3246727  77.4261427
  85.1410961  40.4216623  77.1698713 107.6429462  58.7981606  61.2840033
 107.8597355  59.7304344  61.2741184 108.4608078  58.3646441  61.5277243
  75.3964329  42.2274351  20.3625059  74.7528410  42.4835157  21.0231447
  75.7649374  43.0551100  20.0536442   9.2251686   7.7683181  47.6266670
  10.1435093   7.6379890  47.3902321   8.9038948   8.4109801  46.9942093
 105.7748127  44.8880100  39.0420485 104.9690247  45.3462458  38.8033748
 105.9902763  44.3645430  38.2701755 103.0179405  36.7955136  31.8240333
 102.8692913  37.1418142  32.7039242 103.4263420  35.9419370  31.9684172
  90.5492496  83.7650394  51.0706139  91.2158871  83.0781937  51.0782003
  89.7218704  83.2946587  50.9685183   7.3000196  58.2784891  47.2603893
   7.9843572  58.9467764  47.2243166   6.9259790  58.2708979  46.3793278
  83.7467289  67.2778893  78.5192585  82.9224873  67.4201488  78.0538464
  83.5103989  66.7190552  79.2595863  88.5314560  64.3368006  40.2026129
  87.9811382  64.6602678  39.4893456  87.9969883  63.6701632  40.6340885
   3.2198480  99.9663639  30.0388384   2.5729612 100.0502396  29.3383098
   2.9583123  99.1771317  30.5131245  81.1016369  94.5339966  56.0396576
  80.3658199  94.5213127  56.6517496  81.3183308  95.4615116  55.9448242
  10.1332811  70.9166288  70.3981972   9.6123651  70.9924746  71.1976576
  10.1424173  69.9789000  70.2063513  79.2132525  22.5666897   4.4648838
  79.4846491  23.1107466   3.7255669  79.4855075  23.0605357   5.2383423
  96.9438267  54.0238047  33.5270429  96.6433144  53.3792830  32.8863239
  97.7015305  53.6126566  33.9430690 100.8249664  46.0643005  72.8751421
 100.9507751  45.1180220  72.8046560 101.1899662  46.2913990  73.7303782
 108.5734367  26.9799662  79.6805477 109.3115997  27.5415444  79.9171257
 108.1632328  27.4236536  78.9381838  32.2507146  37.1954250  34.9111795
  33.1786874  37.3888803  35.0440931  32.0254377  36.5999079  35.6259108
  92.5578117  53.3720922  43.5716963  93.3845997  53.3104849  43.0932999
  92.6254368  52.7040100  44.2538357 111.3036060  78.9052153  77.3568630
 111.6972637  79.1186285  76.5108633 111.7839146  79.4424438  77.9868793
  74.4230461  36.8966031  76.5600586  73.7685633  37.4008894  76.0767603
  74.0114355  36.7181468  77.4056149  89.4294167  26.9635344  64.6218824
  90.2313709  27.4518728  64.8079634  89.7296619  26.1695743  64.1794872
 101.4611721  51.3807774  52.9471493 101.2901974  51.7191553  53.8260698
 101.6172886  50.4453373  53.0768108  69.6462965  31.0470724  73.1916904
  69.7775269  31.9360924  73.5213184  69.0013647  30.6639385  73.7862492
 105.0096512  21.6268492  61.5900803 105.6355381  21.3704801  60.9127569
 104.2690277  21.9920135  61.1059666   7.1919110  46.9595194  55.6519318
   6.8901780  47.6471519  56.2455225   8.0381253  46.6895008  56.0086393
  28.5658696  60.9713173  68.7284899  29.0131047  60.9012699  69.5718813
  27.6994565  60.5956984  68.8849020 101.5272427  64.3617821  75.3102827
 102.2232342  64.9195194  75.6577778 101.3292503  64.7333813  74.4506645
  97.7619839  33.4824491  23.9677715  98.1140327  33.7442756  23.1170440
  97.9249382  34.2350626  24.5363235  11.1086610  70.9882641  11.9385612
  11.0556939  70.5743456  12.8000116  10.4711488  71.7013025  11.9758379
   6.7867997  32.4584627  64.4926548   7.6882318  32.7649808  64.3941021
   6.2581113  33.2558680  64.4632530  13.9206365  77.9064655  46.7506361
  14.3792298  77.0672178  46.7107964  14.2607263  78.3280134  47.5398588
 105.3815079  63.5452080  50.8461142 104.4678402  63.5694170  50.5617809
 105.8586693  63.2033634  50.0900078 110.6895733  50.9330130  70.2316952
 109.8136139  50.5568647  70.3179741 111.2704182  50.1749659  70.1667309
  13.8203576  79.5389175  75.3699923  13.3393911  80.2497768  74.9462175
  13.3776429  79.4176054  76.2099457  91.8967438  71.2131500  64.6475792
  92.5835514  70.5519342  64.7331476  92.2017670  71.7856169  63.9436865
   2.1800283  14.1080117  50.2475739   2.1867993  13.1514215  50.2810860
   3.0545095  14.3429923  49.9372435  97.8935242  49.0020561  73.0042028
  98.6297512  49.5787239  73.2082891  97.6917553  48.5686159  73.8334513
 110.2598858  59.7162342  51.9734430 110.9931183  60.3208017  52.0879078
 109.7425556  60.0986528  51.2646770   8.6994508  41.8800354  69.9339724
   7.7819112  41.8337870  69.6652555   8.6801484  41.7291546  70.8790064
 104.2459011  72.2228241  26.8375731 103.8335514  71.4355469  26.4820409
 105.1552868  72.1705484  26.5434599  86.3933754  56.7018318  38.8580775
  87.0406914  56.3948298  39.4928646  86.8154621  57.4440718  38.4254599
  88.1218243  73.6343431  60.4358673  87.3666859  73.0993557  60.1913548
  88.5122013  73.1726933  61.1779690 100.6962299  90.0537395  15.9804082
 100.8712864  90.2224636  16.9062161  99.7449780  89.9600315  15.9297216
  81.7690468  46.3046885  49.4328976  81.2949467  45.4873133  49.2800665
  81.2762928  46.9626760  48.9425087 106.2875175  43.6341763  35.7444119
 107.1844959  43.7981987  35.4532576 106.3824463  43.0430269  36.4912486
  31.6139367  37.4915290  71.8050671  32.2559693  36.8512487  71.4983797
  31.6424420  38.1909132  71.1521626 105.4847050  37.2508383  15.0421464
 105.6527042  38.0888343  15.4731607 104.5688343  37.0578074  15.2425086
  45.8425954  75.1551485  50.1421976  45.9240296  75.2941847  49.1986561
  44.9492887  75.4301739  50.3486013  24.5762971  53.3769560  39.4689989
  25.0890973  52.6680136  39.0808511  25.1372769  54.1486454  39.3913245
  99.3053246  69.5164347  88.0475044 100.0160217  69.1179419  87.5451565
  98.5280800  69.3922424  87.5027943   3.9717916  44.4744253  60.9471178
   4.1106561  43.5298872  60.8778191   4.5002416  44.8466301  60.2411127
  17.5841859  81.6254902  63.7072849  16.9736341  80.8898258  63.7549067
  18.4196523  81.2278748  63.4620667  89.8018074  33.4598446   9.3336743
  89.2663002  32.7492309   9.6865118  89.5648861  33.5009766   8.4071720
  90.0273895  72.9485273  53.1711388  89.6973896  73.7316847  52.7306747
  90.2002335  73.2333136  54.0684938  96.5301895  42.9819632  49.7733736
  95.6111336  42.7512884  49.6378613  96.9492912  42.1587372  50.0241375
   9.0059903   7.8940475  29.5235372   8.3073285   7.3829824  29.9320984
   9.0480188   8.6985052  30.0405598  97.5671196  57.5603867  51.6090631
  98.1938744  56.9711304  52.0288229  97.6317501  58.3741999  52.1088266
 107.3186970  61.3363600  68.5893631 106.5603638  61.7615318  68.1888628
 107.4225426  61.7768717  69.4328117  85.0179577  33.6709380  39.3917394
  85.7093525  34.2127657  39.7720528  85.3207684  33.4853268  38.5028720
  88.7177753  74.7536850  31.3731790  88.2994175  74.5827150  32.2169662
  89.3388748  75.4596043  31.5524578  47.9583600  37.7954936  27.8806710
  48.0830148  38.5605121  28.4423137  48.3879617  37.0807862  28.3506417
  83.3659077  47.9495287  59.9824047  82.8971004  47.1627569  60.2606916
  82.7042484  48.4768438  59.5347643  79.8911238  59.0021229  72.2042370
  80.1572514  58.2870579  71.6262293  80.5803871  59.0434170  72.8671408
  27.2702268  89.2229557  50.6084871  28.1053784  89.5818138  50.9084368
  27.5096372  88.4358501  50.1192284   3.0257562  97.8950691  48.1237364
   3.3180764  97.0095062  47.9079580   3.8190511  98.3449936  48.4143877
  94.8449612  73.3417416  44.5260477  95.7841873  73.1913233  44.4189358
  94.7131443  73.3679152  45.4737663  44.1459516  90.2259064  82.9938698
  44.5325425  89.3509102  82.9598141  43.5778669  90.2069473  83.7640285
  11.5385583  83.2143402  58.9517546  11.4920285  82.6834583  59.7468853
  12.3674348  82.9631329  58.5442114  84.1080093  73.0726290  56.3838387
  83.9375496  73.8022947  55.7882214  85.0624180  73.0061674  56.4141750
  67.5847149  76.9862032  67.5560284  66.8309355  76.3976908  67.5147629
  67.2788095  77.7313137  68.0731964 108.9608097  79.8935270  50.0928259
 108.6425018  79.0764380  50.4765940 108.2097149  80.4855347  50.1329088
  99.5289803  46.9115496  83.8816357  99.9303722  47.4947882  83.2374668
 100.1466370  46.9009590  84.6128178  90.8467865  48.8548565  55.0357866
  90.7368946  49.7765255  54.8019505  90.0732327  48.4221792  54.6743488
  71.7909002  80.0411510  51.2461376  71.9759560  80.8814716  50.8268118
  72.3275137  79.4105291  50.7659340  45.9988165  72.0981693  72.5114727
  46.4984465  71.9358110  73.3116245  46.2370825  72.9896450  72.2570610
 109.1007233  82.6608944  52.7946281 109.6015930  82.2011566  53.4684277
 108.3448029  83.0185604  53.2603359  97.6567841  94.9289036   9.2008400
  97.0994663  94.3331909   9.7015989  97.0442200  95.4533100   8.6851007
  84.7061591  23.7919896   3.7813663  83.7714629  23.5857480   3.7866211
  84.9655299  23.7516062   4.7018719  11.9706967  88.6909771  49.0210629
  11.3510469  89.3045616  49.4157648  12.8073171  88.8926220  49.4401693
  97.5567150  79.8752499  70.6667376  97.1742249  80.2118397  69.8564005
  97.6845551  78.9411592  70.5013275 101.6281414  54.8751163  55.9875298
 101.9640541  54.4747972  56.7894888 100.7011604  55.0313139  56.1679077
  16.6548780  34.4713855  80.9182072  15.7968953  34.7372913  81.2489319
  16.4942983  34.2234969  80.0077152  23.0370572  87.3929977  82.1367168
  22.5889924  87.7746296  82.8915882  23.1121114  86.4624310  82.3480225
  98.0483818  75.2034283  39.7648239  98.2736206  74.8315716  38.9120460
  98.1037712  74.4643497  40.3705692  16.8098977  69.5034504  65.6095457
  16.7984822  70.0301552  66.4087248  16.6057733  70.1245546  64.9104118
  32.6265004  76.3376093  40.7669067  33.4148934  76.8310261  40.5406189
  32.4398568  76.5863752  41.6721773   1.3128999  80.4131699  49.5442104
   0.9147790  80.2277088  48.6937189   1.8239453  81.2097359  49.4008493
 109.3177319  47.7755594  44.0099573 109.2324066  47.9306650  43.0692720
 109.0784359  46.8557596  44.1237116  23.3211854  41.8991518  68.0024862
  22.5703576  41.9110823  68.5960770  23.6648896  42.7919865  68.0330658
 104.9830723  71.5223360  59.9897146 104.4027424  71.4556170  59.2314291
 105.8552074  71.6425848  59.6140099 107.0205975  56.4140892  76.4129257
 106.8357658  55.8891344  75.6341505 106.4490986  56.0494900  77.0887184
  94.5723820  82.2417641  87.8669357  94.0179062  82.0115757  87.1214199
  95.2692318  82.7791214  87.4902630 111.4982033  38.0909252  47.9057074
 112.2701168  38.1737924  47.3457861 110.9653282  38.8573742  47.6939678
  64.5355558  95.8884048  88.7609291  64.6779156  96.0541344  87.8289986
  64.8473597  96.6821194  89.1957188  84.2322159  65.7418060  72.8527880
  83.8155079  66.5990543  72.9406357  83.7758064  65.3275490  72.1204615
  13.6566880  92.7198124  57.2740269  13.9194348  91.8275452  57.4999905
  12.7522042  92.6340961  56.9726944  15.1444581  60.4209423  81.7141819
  15.1054052  61.1361837  82.3491192  14.4914582  60.6513929  81.0533428
  17.6326039  84.6883392  49.0458345  17.2647241  84.0942383  49.7000074
  18.0525067  84.1115475  48.4076929   5.1886418  80.7314682  69.8509932
   4.7861341  80.0312805  70.3647614   4.5127729  81.4070415  69.7959709
  86.2501717  62.9200554  76.1210537  86.2626934  63.4657955  76.9073391
  86.0509872  62.0408630  76.4428759  89.0872626  55.7468026  20.5075836
  89.3719058  56.0290139  19.6383476  88.1343608  55.6867402  20.4397869
  16.3343957  65.9286308  26.4049506  16.8726876  66.6426325  26.7465329
  15.7568029  66.3480806  25.7672405  19.4087986   9.3030852  14.4143105
  18.6953453   8.8134974  14.0050125  19.3250374   9.1123694  15.3485715
 104.4864750  93.0850029  57.1918821 104.1987038  93.4833145  56.3704395
 105.1865578  93.6584473  57.5037813  87.9336071  88.7684059  88.5114384
  88.3908558  88.1485271  87.9431915  87.0055676  88.6204720  88.3295155
   2.4209550  50.9009695  41.0971260   2.3196653  50.1489067  41.6805410
   2.9731420  50.5787849  40.3847218  73.0904961  58.0610752  49.8820353
  73.9131355  57.7324247  50.2446413  72.6957226  58.5597563  50.5973673
  21.3923791  94.0221214  13.1649983  21.2097600  93.0874252  13.0689549
  21.7999223  94.2729568  12.3360097  95.0926876  24.6361041  51.2477398
  96.0149479  24.5832157  51.4984989  94.6139050  24.4911051  52.0638084
  98.7587261  64.9370766  77.1785021  99.0413189  64.4369316  76.4128494
  98.7590694  65.8476114  76.8832779  27.8774265   8.6771983  38.0962825
  28.6518673   9.2325133  38.1862974  28.1620029   7.9591388  37.5309110
   5.4871896  87.2734642  71.1597872   6.0732415  87.7849960  71.7175531
   5.7642511  86.3664627  71.2894773  22.1136525  68.8645315  32.5248337
  21.8753770  69.7893810  32.4607611  21.7857888  68.4759855  31.7138028
  93.2963562  96.7357540  69.7429895  92.3789024  96.9764614  69.6142626
  93.7487125  97.1007442  68.9824677   9.1373304  58.8790369  36.8292165
   8.4111550  59.3936682  36.4769983   9.8790506  59.4840527  36.8349004
  77.7702713  88.2047462  85.6821251  77.6148987  88.0238247  84.7551060
  77.2844458  89.0115070  85.8534145  94.4758892  63.9623642  36.0049534
  95.1668453  63.5896063  35.4573512  94.9421883  64.3677521  36.7360234
  28.0953458  93.2153702  58.2826900  28.7355664  92.9134941  57.6383114
  27.7226117  94.0080738  57.8967953 106.5015221  74.4580889  54.3266296
 106.5820599  73.5071325  54.2529821 106.9227600  74.7960520  53.5363293
  33.2521775  67.2304392  69.9425220  34.1006807  66.8894005  69.6597290
  32.7427533  66.4510775  70.1645851  68.0680656  73.7232018  58.8759899
  68.8532686  73.9808035  59.3590355  68.3180094  72.9166222  58.4252262
  94.3411160  51.3409472  56.3459110  94.5864296  50.6916475  55.6867790
  94.7328186  52.1572638  56.0353804   2.0492318  62.6224327  82.7519608
   2.0286897  61.7822313  82.2938442   1.7086557  62.4275827  83.6250401
 101.3663673  63.1368876  72.0477390 101.2401390  63.4780979  71.1623716
 101.5733433  63.9087486  72.5746393  84.8345427   8.2631009  10.4306221
  84.9530940   7.3183673  10.5289269  85.4206423   8.6471694  11.0827065
  99.5438576  97.8196716  30.0656939  98.8596821  98.3989620  30.4012036
 100.1354504  98.4000301  29.5867014  84.2405796  67.8915167  26.3533521
  83.6393547  68.5570240  26.0188985  84.4361591  67.3422146  25.5942392
  38.1943944  63.6100483  65.9377003  38.9514688  63.1097317  65.6331539
  37.4489549  63.0265570  65.7959604  80.2752304   4.7386023  42.3626423
  81.0883904   4.4953352  42.8051567  79.8192120   3.9081725  42.2260046
  95.1343346  24.2267251  58.2643509  95.5232811  23.3737373  58.4576464
  95.6555843  24.8483181  58.7724400  31.7266750  87.8421038  14.0917885
  31.6574811  87.5119787  13.1959856  31.9649171  88.7635475  13.9897382
  83.5424232  39.5408225  69.0353346  83.5243225  40.2818680  69.6409321
  82.6317024  39.4334388  68.7609434  80.3941727  15.8954716  31.4911938
  81.1696434  15.3403950  31.4089489  79.8951721  15.7298791  30.6913137
  94.0144920  26.9090462  70.2678633  94.8577309  27.3532772  70.1793051
  94.1098309  26.1089778  69.7511101 106.8279171  22.3393893  22.6805902
 106.6991138  22.0752215  23.5915565 106.2377834  23.0835223  22.5612712
  53.1725645  13.6908793  20.8959651  53.0841827  14.6437740  20.8756733
  52.2721577  13.3664405  20.8804893  18.4074449  97.6396918  65.9401798
  18.8473129  97.3267323  66.7306280  18.5053300  98.5913270  65.9724522
  88.6605549   6.9864583  11.5269780  88.8215256   7.5998396  10.8099818
  89.0676212   7.3973745  12.2896540  73.2502031  26.7174149  44.9089336
  72.5827360  26.0797977  44.6556282  73.1005335  27.4640512  44.3289661
  56.2666321  13.2625437  36.7650819  56.5774488  12.8190708  37.5543594
  56.9122553  13.9514148  36.6074252  42.7318668   6.7209095  71.8683577
  43.2367659   6.9968992  72.6332998  42.0356178   7.3734099  71.7927837
  81.4547539  11.9298041  30.0650334  80.6677532  12.3591828  29.7296286
  81.4112377  12.0564616  31.0128188 102.5313377  10.6337821  32.9381084
 102.2763634  11.0738873  32.1272254 101.7564678  10.1326919  33.1925178
  49.1457795  92.7810436  40.7823086  49.8133420  93.0339020  40.1446199
  48.4901666  92.3094469  40.2685022  48.8588142  38.5901284  16.3137925
  49.2671061  39.0351248  17.0564282  47.9903173  38.9866281  16.2449825
  72.1477604   0.3669703  51.4329672  71.4925003   1.0415771  51.2547302
  72.4275160   0.5365324  52.3325300  89.7864437  11.9107389  38.7980032
  90.3595066  11.1546338  38.9250469  90.0693607  12.5398779  39.4616103
 106.7041588  30.5273342  15.5715311 106.6789532  30.3022027  14.6415234
 106.0091877  29.9994326  15.9646773  44.8432779  82.1389752  77.3468685
  44.1603421  82.6307684  76.8908262  45.5546235  82.7687508  77.4634886
  86.9604683  12.4653697  62.9286289  86.4625454  11.8002594  63.4039593
  87.8707695  12.3074424  63.1788969  43.2267331  98.8486683  60.0154114
  43.3505582  98.0369407  59.5234776  43.7559938  99.4950205  59.5481348
 101.1929893  22.8550148  31.8530369 100.3847694  22.3817730  31.6554260
 101.8223667  22.1701765  32.0791245  65.1670218  11.6535926  20.6309628
  65.3950262  12.4613893  21.0910845  65.4679489  10.9543276  21.2112260
  68.5007143  23.2101393  52.8662157  68.0477858  23.2715273  53.7072372
  67.8150034  22.9737782  52.2415829  74.4107151  41.8019867   5.4769462
  73.5332870  41.4359999   5.5883342  74.3322945  42.7076435   5.7767236
  96.4231014  16.1148357  22.0363498  97.1446609  16.0835505  22.6645184
  96.3237095  15.2099514  21.7404842  66.8517446  98.8932591  72.6203823
  67.5733518  99.0912407  73.2172966  66.6264009  97.9826462  72.8107452
  93.9112091  24.3984795  68.8737965  94.2626953  23.5102367  68.9347315
  93.0541229  24.2891717  68.4618711  83.5334778  10.3762114  62.1298504
  83.7430763   9.9608469  61.2933254  82.9813480  11.1220872  61.8952227
  50.3652143  87.9164690  26.6690207  49.9417638  87.1951788  27.1344900
  49.6480226  88.3686357  26.2247086  42.6002979 100.2654975  15.6578469
  42.8950261 100.4879293  14.7747326  43.3162164 100.5472296  16.2273407
 109.1785622  12.8671503  43.9419174 108.9660263  13.3038604  43.1170893
 108.8135529  13.4393632  44.6168804   0.4400972  10.9774566  26.3900328
   0.7579663  10.1973164  25.9355283  -0.1704451  10.6405497  27.0457411
  58.0066919  29.9000096  42.8950310  57.7129126  30.7370567  42.5354815
  58.0058575  30.0329947  43.8429499  56.2654352  25.5968499  62.0756626
  56.5870333  25.9482360  61.2453985  55.3398657  25.8400297  62.0961952
  50.0921726  27.2831869  53.2870340  49.4129372  27.7539229  53.7700224
  49.9999857  27.5889730  52.3846865  65.0751256 104.9711448  68.8800430
  64.9567556 104.8947922  69.8268223  65.2542733 104.0772928  68.5882092
  62.9498719  98.8884848  69.4303226  62.9714059  99.8394871  69.5369196
  63.8210820  98.6643541  69.1032124 109.0273762   3.5052741  54.5445824
 108.2548523   4.0622279  54.6407318 108.8236046   2.7226079  55.0565767
  96.4296055  31.8775988  13.5098612  96.4766502  31.3116193  14.2803717
  96.0770130  32.7037191  13.8406742  77.8707838  15.7987213  61.7741346
  77.1079206  15.8833683  62.3460674  77.5628901  15.2650464  61.0415888
  71.7056226 104.3226129  73.7699747  72.0682382 104.9475528  73.1421280
  72.1496915 104.5253065  74.5933533  93.7177753  15.6407857  58.9641380
  94.3696308  15.6464148  58.2632160  93.6124802  14.7155941  59.1858721
  47.5124978  90.0669163  73.6426401  47.1977567  90.7485348  74.2364120
  47.9861116  89.4567579  74.2079973  60.2297592  11.6525424  39.2204404
  59.7220802  12.4175346  39.4911408  59.8576546  10.9279919  39.7232270
  87.7573681   2.5738963  41.3946486  87.4097252   3.3216900  41.8806362
  88.5785580   2.8925416  41.0200214  16.5944909  90.6329375  22.8994083
  17.0234536  90.0013166  22.3221040  16.9691943  91.4778584  22.6505327
  34.5315742 101.1733159  38.5777140  34.8742913 100.6502807  39.3024278
  35.2082252 101.8307075  38.4158230  20.0497773  34.7217321  50.6817341
  20.7837823  34.3506026  51.1713457  19.2713979  34.4000554  51.1365700
  72.2162199  18.7437379  26.9534969  71.3476419  18.4523094  27.2307611
  72.7497101  18.6951077  27.7467537  88.0272770  19.9407661  48.4468079
  88.4658623  19.4025838  47.7878428  88.5555744  19.8294926  49.2372179
  47.7271127  95.1984340  41.1696053  48.1614732  95.1312822  40.3192759
  48.0642843  94.4554430  41.6701221 107.5594234   3.6424536  30.7158422
 107.2904301   4.0689522  29.9022245 107.7636433   4.3653768  31.3090611
  60.1112270   7.4312085  25.0895357  59.2813635   7.9074365  25.1172328
  60.6061554   7.8530967  24.3871903  54.2445087  10.6209970  15.5215871
  53.4068775  11.0433638  15.3312993  54.7243834  11.2646842  16.0427570
  49.1256189 102.9684952  45.6510735  49.4954252 102.1697268  45.2749825
  49.7438382 103.2183963  46.3377953  89.4433212  19.2972255  59.1176224
  88.8957310  19.6003747  58.3934069  89.0021515  19.6206224  59.9031258
  72.7726841   9.8129523  51.2376738  72.5679159   8.8781476  51.2586832
  73.2880545   9.9631226  52.0301867  92.3480892  15.6073523  17.8219914
  93.1873512  16.0513210  17.7005017  92.3060417  15.4274499  18.7611926
  73.8910294  10.7332325  83.7920761  73.4651899  10.5045903  84.6182728
  73.7014294  11.6640663  83.6744595  27.3125839 104.4475141  44.3801498
  28.0642461 104.7149116  43.8512516  27.4714088 104.8408751  45.2382135
  59.9549150  11.3998675  78.4761238  59.9872780  10.4874349  78.1886292
  60.2119207  11.3698781  79.3976831   4.0147737  13.0067825  37.2607136
   4.5551065  13.4624350  37.9062033   4.6419480  12.5297451  36.7172813
  71.2046909   1.1588901  72.6186657  70.8201742   0.2882007  72.7200508
  71.6520500   1.3213369  73.4491539   3.1284288  26.4796686  73.0593252
   3.2497934  25.5366230  73.1696320   2.7830556  26.7767906  73.9011478
  90.4955673  21.5558887  63.8780975  91.1257458  20.8367968  63.8333416
  90.9587097  22.2515488  64.3447733 100.7837200   4.2608252  13.7986267
 100.2390099   5.0437886  13.7180901 100.8442879   4.1071343  14.7414637
 108.1867695  25.3421545  17.7271581 107.6389599  24.8773909  18.3597112
 108.8039589  25.8389735  18.2642651  92.7339172  62.1129131  51.3631153
  92.5341606  62.6796579  50.6180429  91.8776798  61.8659592  51.7125368
  68.2139349   2.9378471  29.9842405  68.8180017   3.3194643  30.6211925
  67.7079296   2.2993425  30.4867363  92.8211594  23.7377906  53.8013554
  92.3324394  24.0227795  53.0292368  92.2226715  23.1475520  54.2592382
  85.3993988  18.8128197  32.1109819  86.0339832  18.5526657  32.7787089
  85.7768536  18.5023379  31.2879586  80.0883770  32.7881289  41.6359138
  79.9207973  31.8462133  41.6666412  79.3590403  33.1447482  41.1288452
  71.0693025 103.7213489  57.4956417  70.6315183 103.5153104  56.6697311
  71.9181108 104.0783284  57.2342539  32.6843595 100.4223326  19.7928417
  33.6030864 100.1709348  19.8875606  32.7134895 101.3439762  19.5360219
  78.8279772  23.4510255  51.7104578  78.6682844  22.9810333  52.5288916
  79.0900040  24.3294835  51.9859219   1.1448625  12.3776972  67.6403618
   0.6721643  13.2092333  67.6038361   1.8885282  12.4988079  67.0500040
  12.1356729   2.7723753   0.9342271  12.0222715   2.7756143   1.8846805
  12.8588441   3.3795017   0.7772298  88.3887959  33.6154819  46.7458630
  88.8542175  34.1221857  46.0803795  87.8577900  34.2618418  47.2111320
 102.8072071  18.6985314  40.9103632 103.5201359  18.2155061  41.3282776
 103.1861973  19.0272272  40.0951576  79.6889400  31.6260481  47.0897484
  79.5818663  32.5588918  47.2756767  79.4915390  31.5435815  46.1567593
  82.9914474  19.0005314  33.9056563  83.6522007  18.8457155  33.2306290
  82.1927643  18.6075783  33.5536170  99.2745686  30.6036115  40.5927658
 100.1559353  30.5188513  40.9564209  98.6927223  30.4616094  41.3394356
  16.7448425  95.8960640  51.9751072  16.7232465  94.9403888  52.0246029
  16.4008188  96.0986751  51.1051464  13.2814553  13.2908130  66.1450672
  13.7443498  12.6080704  66.6306925  13.3134511  14.0563655  66.7187691
  86.0292339   1.7211342  35.3777504  86.4392281   1.2931024  36.1293650
  86.6036892   2.4610129  35.1807213  16.5134385  55.6348372  47.6315451
  16.5623620  55.9626532  48.5295248  16.3706067  54.6932554  47.7277565
   0.6848767  17.5307822  17.8963375   0.4960874  18.3984435  18.2537663
   1.4005902  17.1989644  18.4384418   0.5980542  31.3761234  28.2523346
  -0.0581786  30.6840491  28.3337855   1.4051774  30.9808421  28.5817719
  83.1225586  18.5660732  56.3029766  83.0602646  17.8905022  56.9782209
  82.2286510  18.8957143  56.2107754  87.9859447  28.2914186  50.1083612
  88.5498619  29.0113068  50.3911877  87.5815201  27.9727340  50.9152794
  63.0035638  95.4843539  76.1736965  63.2992410  96.2794178  75.7302046
  62.7383851  95.7803523  77.0445013  93.4681606   4.2206118  65.1809359
  93.6433887   4.1791826  66.1210489  92.5313282   4.0400177  65.1037264
   7.2191384  49.5544052  38.4681582   7.1005681  49.1609383  39.3326545
   7.9003480  49.0238953  38.0549383  21.0675481  17.0234168  31.5820718
  21.9920400  17.2630811  31.5180016  20.5986264  17.7837110  31.2381268
  88.8665390  32.8797650  70.1621914  89.0778732  31.9556332  70.0297165
  89.6129894  33.3515072  69.7927332  97.7659225  11.9594502  30.5390263
  97.7591515  12.1724796  29.6058583  97.5044727  11.0394156  30.5765724
  99.0822887  54.4092703  30.8463120  99.5065308  54.3087482  29.9941730
  99.0315723  53.5193157  31.1950874  85.5274010  35.2717018  73.1396198
  86.0038090  35.8139849  72.5109768  86.1103344  34.5312333  73.3073330
   0.4079583   8.7548906  71.8073559   0.5513814   9.6042067  72.2248793
  -0.4792163   8.8093930  71.4521360  51.0757971  11.0297132  63.0103970
  50.7705402  10.8472013  63.8990688  51.8837309  11.5283144  63.1323385
   7.2967866   6.0759515  91.3164330   7.3710015   5.1225305  91.3578129
   6.9732431   6.2528914  90.4331207  96.0885048  38.8344193  43.2059336
  96.1146164  37.9203129  42.9231548  95.8202267  38.7935996  44.1238642
  74.8470879   2.8253314   8.1664622  75.5488491   2.5463641   7.5782943
  74.3839169   3.5073790   7.6801330 105.5414772  16.1321771  35.2433252
 106.1351109  16.2237287  34.4980407 105.3833008  15.1904440  35.3092647
  79.6486378   1.0447694  45.9284639  79.4516420   1.5375921  46.7250490
  80.5361748   1.3150395  45.6929398  21.0430864  22.5096345  32.9668331
  21.4449266  22.6664901  32.1123433  21.6969731  22.8104258  33.5978532
  99.4009781  36.9044304  59.2565060 100.1953316  36.5280724  59.6354485
  99.6602917  37.7837634  58.9812565  53.8428926  77.4523717  35.9889579
  53.8107919  77.9677015  36.7949581  54.7770166  77.3534518  35.8049655
  87.7972317  23.7685585  11.8589056  88.7089920  23.9634800  12.0755446
  87.8134632  22.8640175  11.5462184 102.7000713  41.7405415  62.1604729
 102.1108055  41.6218472  61.4155483 102.5947380  40.9426785  62.6786947
  89.0145969  18.5674894  84.2472267  89.3298149  18.4955752  85.1481628
  89.7224331  19.0118134  83.7805653  67.8491831  18.0896902  88.0704212
  68.7455416  17.9571366  87.7618694  67.5149202  18.8083065  87.5336838
  68.1876659  23.9305425  66.2256289  68.5606003  24.8081231  66.3093138
  67.9861546  23.6692548  67.1241570  89.8286057  11.5963387  12.7977097
  89.5340443  12.2665894  13.4143388  90.2727032  12.0862091  12.1055901
  84.9004364  32.5704503  48.9674997  85.2579212  32.1544623  49.7519684
  83.9581490  32.4104619  49.0198183  57.7896599 101.2471222   5.7743931
  57.0405487 101.8397783   5.7125282  57.5438026 100.6205772   6.4550018
  98.0856895  10.7990515  65.8337307  97.7750206  10.1104665  65.2458763
  98.9978313  10.5691946  66.0109282  93.0738831  18.5194004  34.5002627
  93.5665512  17.7663875  34.8265743  93.5767651  18.8258862  33.7456751
  79.0325021 104.4783934  68.8435984  78.0884027 104.6361027  68.8380003
  79.1758394 103.9096403  69.6000433  12.1332219   4.5522803  43.4136677
  12.1137002   5.4783475  43.1723166  12.5600484   4.1208053  42.6734781
   6.4667085  18.6889088  24.6497965   7.3663858  18.4432805  24.8653769
   6.3091901  18.2930374  23.7926459  68.3500718  99.5232981  27.3419166
  67.4706220  99.8623663  27.1750712  68.2564115  98.9939582  28.1339145
  81.5454197  25.6755209  84.5186901  81.3274097  24.9975157  83.8791466
  80.7097626  25.8924413  84.9320507 106.4012527   3.7698367  36.7347407
 106.6107273   4.4408518  37.3844242 105.8176804   3.1657997  37.1938920
  96.9755601  93.0298644  29.7418642  97.0476770  92.5310474  30.5556297
  97.8361844  93.4341138  29.6316648  97.9030228  30.8093929  45.7968616
  98.5139084  30.4773545  45.1389837  98.0860806  30.2880239  46.5784645
  50.6035280  81.8545967  29.6146607  49.6632337  81.6782289  29.6460152
  50.8703565  81.8951851  30.5330205  91.9504833  12.8700864  46.2085009
  91.9461060  12.0382488  45.7349396  91.9708633  13.5365534  45.5217409
  79.5756388  30.0907397  38.4924769  79.7831488  29.7624540  37.6176071
  79.1008043  30.9069300  38.3356357  76.7454433   7.4564409  51.8465614
  77.6826668   7.3082399  51.7205143  76.3695478   6.5779692  51.9033003
  88.7309933  32.9472542  51.7078590  89.1855335  32.9405189  50.8654881
  87.8889179  33.3628511  51.5223217 110.2666759  29.2244387  32.3000836
 110.8021355  28.8742971  31.5881014 109.8642540  30.0112987  31.9324708
  70.0285053   6.6151524  51.5289402  70.4440880   5.7849526  51.2959337
  69.5606804   6.8794441  50.7367754  80.1074886  31.5343404  67.1041632
  79.4411659  31.4198995  66.4265585  80.4849625  30.6621885  67.2186136
   3.0509999   4.7530112  65.9664249   3.9796975   4.8752609  66.1634445
   2.7978566   3.9821860  66.4743376 109.1010284  19.6623874  30.3004050
 108.4028339  19.0141892  30.2076793 108.7349415  20.3269053  30.8840394
 111.2683773  12.5914514  39.7556496 111.4641285  12.4519527  38.8291192
 110.3261948  12.4384069  39.8270798  98.1719589   1.7601715  31.6894746
  98.6213398   1.8774484  30.8524942  98.1328678   2.6395038  32.0656109
  17.5111440  14.6491861  52.4058676  17.4212602  15.1851010  53.1938744
  18.2751325  14.0983868  52.5766611  65.4154634  14.0676057  33.3768797
  66.0468197  14.7635663  33.1945086  64.5609903  14.4882798  33.2812405
 109.7195530  21.7758989  73.2061100 109.6678257  22.1714640  72.3360062
 109.4826412  20.8589959  73.0668402 111.2028122  45.6087875  46.3844633
 111.3222885  46.5294981  46.1515474 110.5700684  45.6235456  47.1025419
  58.4721517 103.9394407  69.0368748  58.7644910 103.0308315  68.9648008
  59.0128755 104.4157223  68.4067965  63.0471181  62.4400502  11.5147746
  62.4846219  62.7940207  12.2036433  63.6196756  63.1687146  11.2750649
  85.8732796  73.4954071  71.1547899  86.1663151  74.4042110  71.2214136
  86.0299110  73.1288385  72.0250368 105.6754875  20.0739264  26.9195914
 104.8052311  19.7596729  26.6743684 105.7067204  19.9744773  27.8710985
  90.1319885  33.2496929  67.1247005  90.9072590  32.8845620  66.6982317
  90.4631615  33.6310315  67.9378080  44.3494272  94.9786859  44.1684198
  43.4063863  95.0542658  44.3140173  44.5055818  95.4595214  43.3556175
  66.2423706  28.3984065  32.0898271  65.4281569  27.9010487  32.1667409
  66.2335157  28.9901996  32.8421140 108.3038330  27.5765109  67.6881933
 108.6206818  27.0068645  68.3891487 108.5559750  27.1268177  66.8816996
 109.3045044   5.3700680  48.7732553 109.1363430   5.6766081  49.6643162
 108.4442234   5.3702688  48.3535480  62.2184944  15.0176787  81.6588020
  62.9470491  15.3644240  81.1438179  62.0247746  14.1698039  81.2590313
  79.8785162   4.3475342  84.7612953  80.3133583   5.1977539  84.8266602
  79.2263126   4.3575945  85.4618454  78.5795879  17.5102854  34.7831345
  79.3033886  17.8716123  34.2714858  78.5862732  18.0144870  35.5967498
 101.5400696  29.8069668  41.8298817 102.2589588  29.8993301  41.2046719
 101.3916779  28.8630342  41.8865013  27.9421376 101.1643740  76.3939190
  28.4482335 101.0906583  75.5848074  28.2119369 102.0023724  76.7696810
  58.6024045  98.5734856  30.4290724  58.9226102  98.8429242  31.2899446
  59.3761300  98.6014247  29.8662210   5.0408700  23.3020234  28.8552523
   4.1535619  23.5951805  28.6479330   5.3455976  22.8757977  28.0541873
  83.9303684  24.0953827  71.1204433  84.2500877  24.6490574  70.4080820
  84.6969700  23.5924578  71.3954449 103.3298016  44.3054390  77.7820396
 103.2499599  43.3968401  78.0723953 104.2724609  44.4712782  77.7706099
  91.7595196  40.1579094  41.2802124  91.4231110  40.8350897  40.6932783
  92.5789452  39.8747873  40.8744955  49.4784260  30.2979207  34.9369454
  48.8956213  29.7804737  35.4926610  50.1096487  30.6829119  35.5448675
  90.9797573  16.4808869  39.0740585  91.0400772  16.2349439  38.1509638
  90.3419304  15.8701861  39.4434524 105.0668430  18.5848176  47.3296356
 105.7045555  18.9684784  46.7276716 105.4901505  17.7890217  47.6517391
   8.2756284  12.1704543  79.1827202   8.7604287  12.9684222  79.3935394
   7.3926690  12.3317266  79.5152903  77.1696138   4.8811287  37.6068068
  77.5686169   4.2654109  36.9920516  76.2316036   4.6977103  37.5546360
  11.3131383   1.7583202  67.5523567  10.7897237   1.6443503  68.3456326
  11.9382909   2.4481523  67.7749443  81.9670391  33.2938313  67.6497364
  81.2959385  32.7834392  67.1965742  82.7080345  32.6937985  67.7341032
  34.1639184  90.0725442  16.1576807  34.8924445  90.6732696  16.3145518
  34.1822004  89.9152452  15.2136707  86.8855714  90.5239314  44.3600893
  87.4257516  90.0885755  43.7006140  86.7245340  89.8501461  45.0206280
  16.6527894  71.3683271  63.7626266  17.3411992  71.2653637  63.1055737
  16.0234407  71.9657087  63.3585501  76.5435553  18.5923707  77.2034359
  77.1225643  19.1765869  77.6929998  76.6277075  18.8786852  76.2939405
   2.1522191  21.5037417  55.8610344   2.2785237  21.9230056  55.0098610
   1.2937596  21.0852218  55.7968426   9.6658471  59.9667597  52.7269983
  10.2813581  59.8936367  53.4564018  10.0030664  59.3606424  52.0673513
  91.8129730  47.1907711  25.8833790  92.0167732  46.7466593  26.7064619
  92.0524311  48.1044531  26.0385442  87.9373837  27.1017957  52.6896954
  87.2155380  27.6052880  53.0660772  88.2648849  26.5724134  53.4168339
  87.0482063  40.3129578  62.1604109  87.5149250  39.7486401  62.7768087
  87.7402306  40.7780170  61.6902494 110.2962399  24.7307014  55.2151155
 110.2104378  25.2241898  54.3994331 110.3750324  23.8184929  54.9360132
  85.6748295  23.3638167  38.5986114  85.8308887  23.9429688  39.3445730
  86.0288143  22.5181222  38.8737988  67.5307894   3.7927797  41.3332367
  67.1868372   3.4468704  42.1568155  66.7941093   4.2653742  40.9456968
 109.5601559  37.1910357  36.3026810 108.6060619  37.2151279  36.3759160
 109.8019028  38.0762625  36.0303450  73.2655621  29.0779972  15.8916533
  73.4760857  29.0479398  16.8249321  72.5585032  29.7198772  15.8261693
  90.2475739  24.3790078  43.6804008  89.3528748  24.0424466  43.6306763
  90.4505920  24.6526456  42.7858973  79.6142578  29.6821284  83.0403233
  78.9724684  29.2917132  82.4470997  79.6967268  29.0495014  83.7539196
  79.2912149  30.0526381  59.0816307  79.1765881  29.3187571  58.4778833
  79.6545076  29.6566391  59.8737383  30.3213166  82.4068433  50.4982710
  29.5194005  81.8905693  50.4169178  30.8974694  81.8702084  51.0426092
  95.8225106 102.3973354  45.4237986  96.1375856 102.2428944  46.3143635
  94.9772119 101.9496542  45.3877878 108.4157848  29.3958831  39.3636608
 108.4767437  29.9879646  38.6140227 108.6551094  28.5384893  39.0117598
   3.0064920  53.8342381  47.2077656   2.5647691  54.1751289  46.4300108
   3.7713483  54.3995094  47.3158932 103.2673836   9.3026280  69.2758179
 102.3604012   9.4325292  69.5528364 103.7197399   9.0093970  70.0667810
 102.2513866  46.0715961  49.6194363 102.4096775  46.7551851  48.9683723
 102.9690742  46.1664581  50.2456570  89.0412903  27.0358133  47.9557133
  88.5224342  27.4772859  48.6281061  89.6707535  27.6964831  47.6667070
  84.6642780  36.4097929  68.7037325  83.8545227  35.9537983  68.4743786
  84.4142246  37.3325133  68.7516308  83.0880451  29.3438888  30.8386135
  83.3868885  28.6854506  30.2114129  83.4571743  29.0622663  31.6756725
  27.1386050  82.9635268  28.1962514  26.8460082  83.1539851  27.3049903
  27.5155305  83.7871581  28.5057449 102.2466946  32.2998381  51.3857889
 101.3100529  32.2476697  51.5760803 102.4747753  33.2140756  51.5542603
  32.7372407  86.9902724  65.4866266  32.5979327  87.7173573  66.0934019
  33.4950303  87.2552210  64.9652910  19.7868016   6.5660167  59.6870327
  19.7472051   7.2108465  60.3933334  19.3594220   6.9957429  58.9461470
 105.2344513  10.0207186  27.1761966 105.7194424  10.7611406  26.8117881
 104.3292427  10.3280365  27.2250104  96.9706345  21.1804986  63.8315725
  97.1143436  21.5971375  62.9818773  97.8416824  20.8977365  64.1100645
 100.9102440  29.9432850  46.8901062 101.0350800  30.7060504  47.4547625
 100.3880596  29.3382406  47.4168634  95.4549789   2.8779307  79.0929699
  95.5540180   3.8173234  79.2477751  96.3411140   2.5724414  78.8988686
  78.1179380  26.6249943  36.8314743  78.9756680  26.5868306  36.4083004
  78.3082342  26.8708205  37.7367854  80.5505800  92.1296054  76.4358997
  81.4788293  92.0196324  76.2297964  80.1329469  91.3418704  76.0876369
  87.3347664  16.0369444  76.5838337  87.4641037  16.2392139  75.6572294
  87.8250599  15.2266836  76.7228222  89.2853021 102.3196202  37.7872348
  89.9351453 102.8664177  38.2287693  89.7975778 101.7716783  37.1926188
  94.0495014   6.5479594   9.6547049  93.1729984   6.4292389   9.2887878
  93.9466763   7.2466296  10.3008628  61.0710669  23.6975837  20.0879502
  61.2877464  24.4032621  20.6972933  60.9767723  24.1331410  19.2408204
  78.7907267  38.2460833  20.4572129  79.0605164  37.5590968  19.8477101
  77.8638792  38.0711579  20.6202626 104.0278530  50.7881546  23.7691545
 104.8850441  50.6352949  24.1667509 103.6708450  51.5352201  24.2494345
 100.5685997   8.3909005  57.5059271 100.6521988   8.6302280  58.4289455
  99.6354866   8.2129079  57.3882103  62.1348238   5.6358737  37.7927709
  61.5918350   5.4565090  38.5603786  62.7424860   6.3161653  38.0829096
   1.4398721  34.3378258  75.4744864   0.7993749  34.8813772  75.9333420
   2.2810224  34.7601318  75.6487179 100.0637150   3.2320109  50.7263565
 100.7554722   3.1476098  51.3825464  99.9829388   2.3558593  50.3494406
  40.0970554   4.0986767  37.0759916  40.6644201   4.6057647  36.4953089
  39.6210170   4.7577399  37.5812197   3.8269380  33.0334783  43.8778257
   3.7247232  33.8669658  43.4183884   3.6581090  32.3693275  43.2095194
  79.9607944  17.0145667  47.7223873  80.2604103  17.9218256  47.7802467
  80.3202057  16.5933859  48.5031986  49.5384168  95.2980059  45.1598930
  49.4725370  94.3534201  45.0197124  50.1899194  95.5899077  44.5222712
   4.1525224  25.7226992  70.5144548   3.9731362  26.1374617  71.3582754
   4.4858983  26.4320350  69.9649715   4.6210054  14.9615753  71.4746857
   4.6950009  15.7731807  71.9767332   5.5208066  14.6440554  71.3987160
  94.1905403  45.6066608  46.4683628  94.6181202  44.7972298  46.1886644
  94.8853970  46.2646246  46.4461613   7.9343560  52.2041416  38.0435658
   7.8276685  51.2660742  38.2013059   7.4436048  52.6232243  38.7505054
  53.6140823  21.2246037  58.2141256  53.4439802  20.2979255  58.0451107
  54.1869450  21.4975548  57.4974966  55.5416393  28.5984564  39.1662860
  56.0302162  29.3852520  38.9244533  55.5799437  28.5771871  40.1224852
  68.7779569 105.0428825  51.6287279  69.6514558 105.3187858  51.9063997
  68.7094449 104.1341451  51.9215345  78.5671902   9.1608816  39.1974235
  78.6050463   8.4657341  38.5404849  77.6413441   9.4001180  39.2399001
  84.6265554  99.5059794  63.6474419  84.0569066  98.7617033  63.4530592
  84.2999028  99.8465162  64.4802475  98.2947969 105.4952127  20.4220057
  98.3207845 105.1017881  21.2942290  98.7215566 104.8517859  19.8562217
   3.7130597  17.2551966  34.3486619   2.8645948  17.4056208  34.7654533
   3.9403012  18.0984521  33.9568520  56.3718557  35.4810929  25.5444670
  56.0228586  36.0625648  26.2199807  55.7821560  35.5981755  24.7996330
 110.8197403  18.9222920  41.2737417 111.6497135  18.4472740  41.2321329
 110.9865570  19.7378051  40.8011532 102.5970745  35.6911850  29.3300056
 102.6823521  36.3600278  30.0094247 102.6230526  36.1804223  28.5076904
 106.8965721  49.4488478   9.8884392 106.9800472  48.5600901  10.2339375
 105.9531498  49.5829916   9.7978997 106.4175129  16.7668283  67.7154016
 106.2728214  16.2393475  68.5009289 107.2454643  16.4442730  67.3594618
  17.8797582  41.4263296  32.6873255  17.7721265  40.7352972  33.3408713
  17.9914525  42.2263622  33.2008457  47.3134136  26.6538191  26.4167714
  48.2180023  26.5386128  26.7077732  47.0632076  27.5162649  26.7481613
  92.4177074  28.5442638  24.8368025  92.9931259  28.7342787  25.5777645
  92.3433208  27.5899839  24.8298836  86.1927891  25.4690528  29.9295664
  85.6540585  24.8206878  29.4761038  86.3010311  25.1152778  30.8123803
 106.6948891  73.9676713  11.9275284 106.7029095  74.4420527  11.0961819
 105.8789778  74.2372464  12.3492527  81.9640160  25.2516913  88.9561939
  82.5672150  25.9819245  89.0945244  81.1246872  25.6681442  88.7604141
  50.4457139  82.3449880  39.8076296  49.6435785  82.3417049  40.3299332
  51.1366510  82.5685745  40.4312086  89.1633797  38.0695486  45.1089764
  90.0940514  38.1926179  45.2959013  89.1459560  37.6285124  44.2596149
  13.6102346  28.9142203  35.0781155  13.6456826  29.8501801  34.8807549
  13.3802941  28.5023522  34.2452145  81.1169147   6.7452466  85.1838589
  81.9488430   6.9113261  85.6272030  81.1831951   7.2296226  84.3609238
  84.0981388  17.5901818  48.3220196  83.6814117  16.7323387  48.4037447
  83.5457325  18.0667448  47.7023649   4.9966386  13.7328887  44.1447258
   5.5367330  12.9745924  43.9222097   5.5716470  14.2912090  44.6680593
  96.4836979  15.0778830  18.4647739  96.7033100  14.7859585  17.5800252
  97.3178768  15.3649092  18.8362563  14.4008115  26.8829155  87.1817970
  13.8397267  26.1092305  87.1286297  15.2419236  26.5479016  87.4924850
 105.8441448  39.4828391  35.6945086 105.5053139  39.5213246  36.5889072
 105.8115673  38.5539341  35.4658079  71.4309597  24.7365856  35.6725955
  71.6326427  24.4826841  34.7719908  71.0442734  23.9521742  36.0617065
   7.4664453  15.7821953  37.3071122   7.1844915  16.5731025  36.8475509
   7.3330167  15.0768471  36.6739368 110.1984978  55.8311224  37.2060323
 110.3657436  55.2761984  36.4442420 110.3606033  56.7214108  36.8940425
  88.1611633   5.7718015  20.4305744  87.8333473   4.9350587  20.7601571
  87.3782349   6.2355757  20.1336455 108.2006550  24.1583085  57.0436239
 108.1101894  23.2148147  56.9099474 108.9849281  24.3961763  56.5490866
  97.0687675  41.8616819  63.0242968  96.6445732  41.1526823  62.5409651
  96.7636967  42.6606417  62.5943708  97.4183464  21.6507769  51.2403631
  96.9984627  22.2692704  51.8381929  98.0080891  21.1423492  51.7970848
  80.7742786   4.8838055  47.5005198  80.0273132   5.1846820  46.9830847
  80.4761219   4.0658727  47.8984118   7.3735669  12.3686194  21.3277698
   8.0985883  12.4042416  21.9517159   6.7975953  11.6843116  21.6686702
  34.6577882 102.7128505  22.0111394  34.5268153 102.2898757  21.1625099
  33.8789701 103.2563665  22.1305895  95.7663250  18.1901062  48.2786703
  94.9758816  17.8117168  47.8936195  95.4828453  18.5207963  49.1310310
  79.6011782   2.4319553  89.8515987  80.0113106   1.5849863  89.6764851
  80.1927662   2.8613397  90.4695606  93.0273247  26.8818283  34.8131490
  92.5072765  26.0810995  34.8810887  92.5637150  27.5156856  35.3604293
  85.3026390  47.9351759  29.9103618  85.3339100  48.1415224  28.9761925
  86.2185669  47.9434538  30.1882696  11.8754819  11.3950348  43.3494186
  12.1856835  12.0808041  42.7580452  11.5987256  10.6856906  42.7693558
 110.9849548  71.3010931  45.3350306 110.5330181  70.4601336  45.2658939
 111.2275410  71.5173626  44.4346905  97.5202465  51.8092489  18.8470519
  98.2137012  52.4615955  18.9460790  97.6171017  51.4911127  17.9494774
  76.1267376  36.2108803  21.6117406  75.4033613  35.6518030  21.8952680
  76.4180326  36.6494536  22.4111342  52.1621083  25.5987288  83.5089755
  52.1986818  25.7156350  84.4583052  51.7594289  24.7386910  83.3889061
   8.8812688  35.5308199  39.5792651   8.5892919  35.6798220  40.4785872
   9.7110608  35.0626349  39.6713114   1.7434457  58.3098269  35.6963587
   2.2370008  59.1289186  35.6549025   2.2737554  57.7384901  36.2518549
  69.6394491  12.4694610  34.2760372  68.8479137  12.1755934  33.8251019
  70.3441525  11.9544649  33.8830924 106.3997173  52.9466391  36.7071843
 107.0523548  53.1482267  36.0366130 105.5638790  52.9648590  36.2410665
   6.4622453  66.3917971  48.1947565   5.8424333  66.6129780  47.4996758
   7.3226979  66.5618658  47.8114319  94.3677902  44.4923306  11.1612642
  93.9483261  44.0130997  11.8758464  94.6916962  43.8101625  10.5730772
   5.7485631  28.2004404  28.9128780   4.9503377  27.7522707  28.6332130
   6.2683061  28.2850981  28.1135416  17.3415902  51.1012888   3.8337722
  16.5148214  51.2293625   3.3687106  17.2845796  51.6863585   4.5892024
  98.7866783  29.8216105  49.3057823  98.6385155  30.4256797  50.0333691
  97.9081726  29.5800877  49.0123034   6.4021638  43.2275486  43.6407852
   6.7220262  42.4835062  44.1509962   5.4572061  43.2340193  43.7933064
   7.7253392  60.0508499  19.1393971   8.1882146  59.2796707  18.8118923
   7.2658589  60.3972054  18.3744490 107.1166229   9.2409074  69.8785305
 106.6807461   8.4422934  70.1759481 106.6946983   9.4476950  69.0445948
  97.4191761  21.3325095   0.6510672  96.9650841  20.9745646   1.4138958
  96.7764187  21.2808275  -0.0563401  94.1208172  21.4338899  29.8185658
  93.7591171  22.1828961  29.3448615  93.4935284  21.2702775  30.5228162
 101.0430908  32.2956729  24.3281293 101.4896202  33.0295277  24.7503877
 100.1789761  32.6394463  24.1015124  95.3298569  61.5072107  72.8727674
  94.6031570  62.1174860  72.7474546  95.7056713  61.7526484  73.7181997
  91.0950851  42.0084953  44.4775295  90.7394123  42.7258730  45.0020313
  90.7694626  42.1743250  43.5928202   1.7077592  16.1854672  28.6726117
   1.7132905  15.4414368  28.0704331   2.3345140  16.8031347  28.2959223
  68.8248825  19.0317261  24.4965458  69.3796873  19.8114026  24.5195675
  67.9565334  19.3482280  24.7455955  21.6288236  38.1898761  86.8549728
  21.6894487  38.2879710  85.9047413  21.8043473  39.0661335  87.1978951
   5.8044961  63.2584000  14.1813910   6.5266088  63.6290216  14.6887672
   5.6277803  63.9113140  13.5041118 105.8499622  46.8003178  35.5571246
 105.1011276  46.6869450  36.1424685 106.6103649  46.8016672  36.1385107
   6.9150403  13.3113801  35.6748724   7.6882222  12.7530813  35.5929184
   6.7977002  13.6875737  34.8025513   4.0415338   7.6726770  33.0415034
   4.9195626   7.9923153  32.8338361   3.6618474   8.3567208  33.5930037
  29.2139295  32.9208684  39.4493461  28.5807565  33.1056023  38.7556624
  28.7265733  32.3970079  40.0851822 110.2823353  66.9017363  50.8184671
 109.4783783  67.4210358  50.8037901 110.7506180  67.2071886  51.5954113
  62.3549031  97.6276386  72.0317507  62.3103284  96.6922241  72.2298574
  62.7182531  97.6680630  71.1471224   5.5163148   5.2557164  14.0815616
   5.1857618   5.7033902  14.8603785   4.8389962   5.3949517  13.4196842
  80.3352642  32.4178743  21.6312146  80.2556419  32.5840092  22.5705171
  80.2377796  33.2797766  21.2264299  11.8036035  48.1161070  21.7824745
  11.6471151  47.8743839  20.8696151  11.0050824  48.5710716  22.0500445
  80.2254868   5.9625590  24.3272924  79.3789196   6.3294220  24.5821786
  80.7280159   6.7147160  24.0143132 106.0064030   9.6014386  51.7352486
 105.7202435   9.9617058  52.5746250 105.2477551   9.1153717  51.4121008
 109.3945026  40.7379436  10.4926729 109.5633698  39.7957611  10.4898965
 108.6873627  40.8564043   9.8585123 103.3776665  42.6637602   3.8420722
 103.6411572  41.9123363   3.3108735 103.6540127  42.4378967   4.7302425
   6.8091920  28.9971709  46.7216015   6.9942334  29.9352217  46.6763306
   7.4031785  28.6681533  47.3962545  26.3937619  60.3119135  35.9887481
  25.4988435  60.5591440  36.2215924  26.5341523  59.4752455  36.4320445
   2.9438356  24.2156029  59.2534876   2.1533921  23.8767171  58.8332605
   2.9650357  25.1416874  59.0123415  96.4111900  62.3043537   0.6403978
  96.0423756  61.4897203   0.9818320  96.0904026  62.9809380   1.2366872
  77.9159880  18.7606823  31.1524224  77.2799969  18.8868642  31.8565726
  77.5853491  18.0073011  30.6632090  72.4819279   7.4748951  22.6874661
  72.7383423   6.5628040  22.8237486  71.5638447   7.4282891  22.4206710
 108.4468460   7.3881531  19.5433915 109.3940830   7.4238724  19.6763790
 108.1085110   8.1417656  20.0269508  88.2127285  22.7799296  64.5919895
  88.9827824  22.3127532  64.2679453  88.0075932  23.4110188  63.9021492
  98.5468960  47.8169203  44.2631054  97.9528904  47.1264410  43.9687872
  99.3420506  47.6849651  43.7468243  41.5312436  12.8372908  18.5152733
  41.1487821  13.0542612  17.6650524  42.3579744  12.4042845  18.3025241
  10.2344373  32.0039129  51.5763426   9.5213464  32.3899174  52.0850086
   9.8261598  31.7440152  50.7505083   5.0076154  40.0394678  74.9616289
   4.7344449  39.8930383  75.8672571   4.2998555  39.6681046  74.4349432
  90.5433273  41.3570738  39.1946888  89.8660469  40.6878471  39.2929983
  90.9327888  41.1797237  38.3384800   3.4686330  12.0261061  31.0974717
   3.4364274  11.1239576  30.7791591   3.0894330  11.9840205  31.9753480
   4.2382196  42.2280121  58.9269352   3.3544400  42.1574306  58.5661125
   4.7579530  42.6030159  58.2159662  88.3190060  38.8907743  75.4165840
  89.0701580  39.1341591  74.8754978  87.5786877  38.8847637  74.8098516
  11.7660096  49.6912050  30.8429241  11.3894323  50.5196810  31.1396503
  12.5564912  49.9445057  30.3662610  67.2940874  50.0218153  27.5062728
  67.5474644  50.9419107  27.4323773  66.9527388  49.7971296  26.6406918
 106.1107922  16.0502553  44.9192286 105.2105236  15.7533228  44.7866440
 106.1605263  16.8819654  44.4480419  12.9123262  30.1630592  48.4681654
  12.9498151  30.0823903  49.4212246  12.8961518  31.1066461  48.3081150
  86.5165520  62.2588730  49.5194244  87.1094418  62.3299980  50.2675247
  85.9108639  62.9927635  49.6232176  80.9368229  27.2474861  81.7794704
  81.6972351  27.7846336  81.5570450  81.2079430  26.7586040  82.5564671
  44.7387312  83.5161264  84.9352682  44.3337821  84.3313296  84.6391386
  45.1507472  83.7424500  85.7690877  95.6194401  44.7725487  22.1491051
  94.7283936  45.1127195  22.0681834  95.7944870  44.7809696  23.0901265
  83.4981823  33.0633163  41.7966700  84.1003227  33.1378341  41.0563326
  84.0501499  33.1912351  42.5681591  95.9934044  48.7652159   7.1210772
  96.5706825  48.2927895   6.5212393  96.4169884  48.6831951   7.9755259
  92.8430557  51.1893797   9.0623403  93.4452724  51.6068268   9.6782148
  92.9143333  51.7139244   8.2648426  22.1885636  35.7190228  44.5561981
  21.7246583  36.4453435  44.9727106  22.1797040  35.0217152  45.2118778
  98.2074547  25.4533267  59.9664068  97.7506638  25.4816985  60.8070993
  99.0558529  25.0586081  60.1680088 104.7755337  19.7728479  56.6393185
 103.9422417  19.3026161  56.6666079 105.0771046  19.6735799  55.7363033
  11.3139966  12.8556347  16.8438780  11.6887620  13.6841440  17.1428013
  10.3976300  12.8946340  17.1176994 103.4218407   7.3761344  36.7819190
 103.5809231   7.2244835  37.7135444 103.6419964   6.5441996  36.3628149
  97.6853371  27.9966402  27.7043509  98.4038639  27.4501753  27.3860431
  97.7791405  27.9846978  28.6568666  31.2735513   6.2819213  52.6852894
  30.6324151   6.8436426  53.1207609  31.7509320   5.8633286  53.4016180
  90.4464436   6.3356656  19.0324748  90.9271049   7.0138925  19.5070255
  89.5845032   6.3174987  19.4483721  65.5812407  46.4167452  24.1051173
  64.9063683  45.8562994  24.4881010  65.7202911  46.0591269  23.2281899
   1.3239816  21.8536568  38.3502793   1.5087369  22.7803063  38.5033131
   2.1869805  21.4430928  38.2963681  96.7735386  26.9750237  32.6312304
  96.4489937  26.0812140  32.7408099  96.1746311  27.5125265  33.1495261
  25.1177648  29.2143106  43.4587145  24.6030286  29.5785737  44.1788483
  24.6256211  28.4424233  43.1790304  15.6538251  80.4351234  26.8727732
  15.8432630  80.7923222  27.7403879  15.2005056  79.6102953  27.0470929
  95.5255413  66.5066242  76.3079691  95.6856537  65.7457304  75.7497263
  96.3435268  66.6260004  76.7905521 106.3484001  11.1220145  41.6381788
 106.6269112  10.8988535  42.5263596 105.9754753  10.3107643  41.2931633
 105.4161358  33.1357074  27.0707750 104.5292854  32.9563642  27.3831296
 105.3930569  32.9089808  26.1410999  27.7503636  40.9325314  22.5960398
  27.2396615  41.7381382  22.5159550  28.2875589  41.0661268  23.3769393
  22.5998071  23.4502482  20.3614831  22.9516557  23.8500285  19.5661199
  22.7316144  22.5105476  20.2357149  94.3391800  57.7483940  61.5917063
  93.4171009  57.7603722  61.8483305  94.3798733  57.1162844  60.8740664
  85.6901932  47.9674387  44.9925566  86.3616657  47.6580334  45.6005383
  85.4591656  48.8389063  45.3141165  82.6792049  27.3954439  42.7931213
  83.4724331  27.9276037  42.8551006  82.9165173  26.5632534  43.2022333
  99.3483639  34.7458029  45.3145599  99.3694973  34.1986108  46.0996485
  99.1141510  35.6165576  45.6357431  50.5460595  93.9376384  75.8474874
  51.2632894  94.4238358  76.2542105  50.9675645  93.1738120  75.4536057
   1.0513738  28.9276433  40.3835249   0.1874974  29.0749907  40.7685328
   0.8853868  28.8543129  39.4436812 111.3041687  33.4685874  17.1911204
 111.0646534  32.5429392  17.2363305 110.7428837  33.8279366  16.5040541
  13.9707235  26.5796232  17.8038096  13.6051992  27.3362279  17.3453641
  14.0549901  26.8680024  18.7126374  -0.1168677  53.8382101  32.4308991
  -0.0307128  53.7447929  33.3796263   0.6037572  54.4164419  32.1807432
  98.7829018  35.6270051  14.9141335  98.4904385  35.3056288  15.7670188
  99.7369385  35.6596422  14.9847758  94.0211868  11.0126722  62.1867466
  93.1461430  11.1063910  62.5632286  94.5019436  10.4869652  62.8260756
  20.8770898  20.0885653  31.4446092  20.9517148  20.7879210  32.0938873
  19.9851182  20.1695013  31.1068559  80.9216881   1.5606120  51.7205286
  81.7488289   1.4048627  52.1764040  80.5329704   0.6910376  51.6258240
  85.9319687  61.1564922   3.5293010  85.9191322  60.5905056   4.3011358
  86.1147022  60.5634975   2.8004658   6.1122754  60.1150513  78.1725931
   5.7839921  60.5092192  78.9807320   5.3339532  59.7523642  77.7496243
  11.0200456  46.1240911  66.3033485  11.3682607  45.6772041  65.5318069
  10.9962800  45.4485369  66.9810629  85.6193447  12.7192914  56.4465332
  86.0388470  12.1718991  55.7827473  86.2999249  13.3378351  56.7119503
  73.5215044  52.3485518  46.7285252  73.8413715  51.9172573  47.5209284
  73.2504272  51.6298056  46.1574268  91.1146450  65.0530815  52.3349333
  91.8811035  65.1738167  51.7743969  90.7991219  65.9408808  52.5037146
 107.0230007  12.7750742  48.2555342 107.5690174  11.9899750  48.2970047
 107.0025349  13.1003952  49.1555214  11.5011647  32.9396653  65.7570219
  12.3452237  33.2476687  65.4269791  11.4545491  33.2803154  66.6503382
 100.0937271  60.1033354  53.8918400 100.0527000  61.0595226  53.9076614
  99.4500256  59.8468733  53.2314587  78.6501360  61.4217520  81.2814045
  78.3306313  60.5194569  81.2835884  79.2194128  61.4761114  82.0489979
  79.0627766  29.2253971  35.7398963  79.0802383  29.4510007  34.8098254
  78.3935738  28.5444641  35.8086562 107.2379112  53.3886862  53.0624437
 107.0860386  52.4463272  52.9908895 107.8984547  53.4733057  53.7500143
  15.4120973  27.8731203  47.1909428  15.9349588  27.9513264  47.9888964
  14.5524457  27.5823975  47.4954128  53.3325624  93.1861633  43.4393167
  53.0502080  92.3714488  43.8549471  53.6585569  92.9165441  42.5806761
 111.8047810  10.2763891  46.6916609 112.4247456   9.7895277  47.2346592
 110.9460449  10.0567901  47.0529985  75.3175974  33.4223795  22.2620964
  75.2154207  32.6778674  22.8549647  75.4445362  33.0263543  21.3999581
 106.0472965  67.2842741  45.2944422 105.8092690  66.5259409  45.8278322
 106.8928719  67.5664568  45.6431484   8.0423215  57.4769735  12.3966026
   8.2424882  56.5413857  12.3676407   8.6007646  57.8199005  13.0942917
  18.5942940  73.0456065   5.3622246  19.3245510  73.3518551   5.8999729
  18.2728390  73.8334201   4.9237633  98.8222980  27.0619392  36.9197893
  99.4179726  27.4663258  36.2890172  99.1557693  27.3362803  37.7740502
   1.4386991  57.0365620  30.3870583   1.0500672  57.4510241  31.1573935
   2.0344213  56.3779926  30.7443166 109.4727325  17.4488735  55.7153988
 109.8850727  18.0406868  56.3446569 110.2020645  17.0931065  55.2077341
  28.0000356  31.5937853  34.7363949  27.8692105  32.4989200  34.4538212
  27.5627759  31.0681629  34.0665007  90.2865124  42.6289463  33.6007166
  90.6879139  43.3720350  33.1502438  89.7434711  43.0264139  34.2814231
 104.3877220  23.2215834  27.0696807 104.4799423  22.6966929  27.8648019
 105.2854252  23.4484553  26.8270040  35.1673940  46.7882586  25.7695270
  34.2122415  46.8395472  25.8054042  35.3466275  45.9402084  25.3634310
  79.0005970  24.3995929  40.4838896  79.8608255  24.6746659  40.1667595
  78.9167929  24.8167348  41.3413239   3.7133840  12.4508262  34.0217328
   4.2397550  11.6927099  34.2755580   3.1597379  12.6237655  34.7831750
  87.2573948  23.5785747  76.3109541  86.9370747  23.4809685  77.2076702
  87.7358246  24.4076180  76.3164282  81.2388325  59.4035244  30.5898046
  82.1412182  59.2628813  30.8764362  81.3219166  59.8561049  29.7504616
 102.1501923  29.0549135  59.9768972 101.9734859  28.1718779  60.3013277
 101.4918518  29.6031404  60.4038239  80.4230595  14.5094025  35.4306436
  81.3234615  14.4988954  35.1059914  80.4497719  15.0887287  36.1921549
  20.4952577  61.5710258  42.1188736  21.4510968  61.6202450  42.1325302
  20.2081159  62.4839354  42.1381855  85.0737000  37.6774502  44.4661617
  85.0774860  38.3626199  45.1345587  84.4145679  37.0522857  44.7677374
 108.6553574  60.9637165  48.0785751 109.5976257  61.0432434  47.9301548
 108.5410881  61.1673021  49.0068674 103.6439419  43.1086254  45.7491207
 103.9062023  43.5163069  46.5744972 102.6873016  43.0988264  45.7801676
  78.9443779  30.1840019  41.7234421  78.1210661  30.5678606  41.4217138
  78.7816429  29.2407441  41.7273045  18.0666879  21.5944004  24.0367818
  17.6742414  22.2113347  24.6545267  17.4648145  20.8501744  24.0265369
   7.4541047  25.0947332  29.7663164   6.9959787  25.8755398  29.4553590
   6.7713216  24.5638180  30.1763988  53.9528894  32.2537066  73.2640517
  54.7377633  32.7267386  72.9875755  53.3546685  32.3269965  72.5204158
 105.9786129  14.9346840  73.2841206 106.2426186  15.2662325  74.1423845
 106.2950897  14.0314472  73.2685757  90.4222202  27.8989410  16.0244966
  91.2412071  28.1912971  16.4245188  89.7402573  28.2120824  16.6187251
  11.7341951  17.8927732  16.1299431  11.4009050  17.0834601  16.5174508
  12.2341493  18.3069468  16.8333209   5.0787404  45.5743694  53.9203262
   5.6252149  46.1879110  54.4114113   4.3440107  46.1035681  53.6099100
   5.6622460  22.9567099  69.5311928   4.9100450  23.5429645  69.4491100
   5.8671620  22.9594803  70.4661989  87.6594304  80.7091242  45.8146286
  87.2913217  79.8308068  45.9109974  87.2791433  81.0402542  45.0010109
 102.8327847  10.1643813  54.1544151 102.2271061  10.3835368  53.4463501
 102.3870564  10.4559743  54.9497318  44.0873098   9.1629982  53.8086510
  43.4024000   9.1355354  53.1405306  44.1606140  10.0892782  54.0385723
  22.9229501  42.5338173  44.1139889  23.8618138  42.4292755  44.2684221
  22.5319055  41.7338562  44.4652414 105.7193661  73.8030529  37.2226119
 105.1555634  74.4265604  37.6804376 105.1146507  73.1586695  36.8547440
  21.0490754  42.9546690  59.0446663  20.7792333  42.5586033  59.8732471
  20.2294877  43.2229710  58.6293077  83.4748173  58.8506031  67.8959751
  84.0407372  59.3719625  67.3266315  83.3662510  59.3866014  68.6815643
  13.7449029  17.1181750  67.1834278  14.6203473  16.8270087  66.9283724
  13.2772210  16.3111341  67.3983479 104.9625587  54.5523262  55.2133703
 104.0173435  54.5872784  55.3602409 105.3369808  55.0423050  55.9454679
  95.2903461  29.4989300  31.1542797  94.3610001  29.7032475  31.0503435
  95.3516674  29.0964651  32.0205903   5.2819112  42.8888559  28.5220504
   6.1480954  42.4843693  28.5705876   5.2123216  43.4031391  29.3263555
  87.1597099  24.1711116  43.7155676  86.5803909  23.7027502  44.3166113
  86.6201305  24.8807836  43.3670616  15.4757550  17.1143448  36.4442968
  15.3044561  17.2827983  35.5177379  16.4055303  17.3126161  36.5558815
  11.3425592  23.4098172  47.6201105  10.6233743  23.4470534  46.9895363
  11.0519746  23.9598751  48.3475876   2.0697358  33.0946207  52.1199274
   1.6954759  32.3261070  52.5506783   2.5303033  33.5599995  52.8181648
  95.5518150  39.5325541  61.6390038  94.8052120  38.9468336  61.7644644
  96.2937546  38.9463639  61.4902163   1.0698846  12.6961005  54.4459057
   0.6349137  12.6199734  53.5966492   0.7598737  11.9388127  54.9425316
 101.4691067  43.9331818  63.0071974 102.1474361  44.1941738  63.6300850
 101.8308544  43.1636620  62.5676298   0.9087709  18.3894229  37.3213148
   1.0968927  18.5787380  36.4020729   1.5891507  18.8565922  37.8061628
 110.5524063  48.3801174  68.4722662 111.3454723  48.5896730  68.9655876
 110.6697273  48.8219166  67.6312637  19.1008523  38.2459903  65.0821781
  18.2473138  37.9609323  65.4084396  19.4119409  37.5121355  64.5521688
  93.1289577  38.0957913  23.2796836  92.2253418  38.2240319  22.9911327
  93.5923290  37.8053880  22.4940705 108.6122894  48.1285906  36.5182018
 108.4782505  48.2350492  35.5764294 109.4593811  48.5408258  36.6876721
  60.3637933 102.3917553  35.6500006  59.9856233 102.4796581  34.7750759
  60.0779104 103.1782856  36.1146235  94.9146271   9.1637486  43.2887745
  94.0654278   9.5543087  43.0825138  94.7070026   8.2710135  43.5647202
 104.9947071  42.5356007  65.6016922 105.8417797  42.3371792  65.2025366
 105.1950264  43.1793594  66.2811565  96.5325737  23.5295653  53.6091232
  95.9868145  24.0400934  54.2072392  97.0186138  22.9330492  54.1784811
  26.9605115  49.5750046  53.7374496  26.5977719  49.1384125  52.9667091
  27.8893903  49.6861219  53.5347986  79.9547672  43.8305187  62.6909351
  79.8482704  43.0283785  63.2022667  79.7424459  44.5348883  63.3033180
   2.1169999  40.9644413   6.9008780   1.7850927  41.8328285   7.1288598
   2.6307824  41.1055708   6.1056805  99.8290157  55.3536415  72.0208645
  99.8612595  55.1510382  71.0859108  99.2469215  54.6894169  72.3899364
  13.1985047  15.5721664  24.0285301  14.1003278  15.2593255  23.9573526
  13.2822564  16.5166700  24.1594100   1.2216428  41.0577488  26.4725494
   1.5016130  40.2548933  26.9121742   1.6009381  41.7628336  26.9971704
  84.6210384  36.4562559  64.2423105  85.5064201  36.2735128  64.5568562
  84.0564156  36.2637520  64.9908972  99.9918175   9.3762964  33.0572176
  99.4085693   8.9324641  32.4415350  99.4030762   9.8017025  33.6806393
  86.4461136  33.4911895   6.7154151  87.3961639  33.5589147   6.6203266
  86.1727142  34.3589354   7.0129120  90.9738255  43.5216951  37.5261331
  91.7621231  43.6037731  38.0628705  90.4394341  42.8722477  37.9831624
  85.9701538  24.4085050  67.6893759  85.5507088  25.1508808  68.1243277
  86.4647770  24.8007202  66.9698286  92.6029968  31.7551780  63.3679199
  92.2596455  32.6098633  63.1074429  92.2018909  31.1390018  62.7550030
 104.4144249  39.1723228  49.0372562 104.8940659  38.4084439  48.7168503
 104.0940380  39.6035767  48.2450390  92.3689461  31.2566757  28.5354304
  91.9168186  31.8492842  29.1359568  93.2268143  31.1177349  28.9366508
   7.2001985  18.0991232  27.7956629   7.9181531  17.8959465  28.3952379
   7.2586301  17.4278188  27.1158338  89.0002537  51.7043161  31.5759158
  89.0924454  52.5068760  31.0624671  89.0252209  51.9983435  32.4864960
  92.5611687  25.6096101  40.7892942  91.9120502  25.0230503  40.4009438
  93.2728481  25.0312543  41.0636234  80.7803440  73.6020565  49.7376394
  81.0513020  73.5107565  48.8241434  81.1184788  74.4571829  50.0034428
  80.9879971  35.8653760  81.9864750  80.9303951  35.6919813  82.9260731
  81.6488361  35.2497697  81.6693783 106.6137123  39.6107745  41.1996651
 106.7219353  39.7751498  42.1364164 105.9777451  40.2663708  40.9133577
   5.8725694  11.1867547  43.5140610   5.3774884  10.3796303  43.6543369
   6.5951493  10.9281588  42.9420137   6.4911225  60.4824495  21.6453552
   5.8193353  61.0653067  21.2915039   6.9033387  60.0953484  20.8730459
  90.9736729  58.6846447  67.9619694  91.4153004  58.6505318  68.8105154
  91.3741970  59.4292784  67.5132656  53.5844278 103.0282107  30.4734159
  53.3313512 102.2511491  29.9750590  54.0603303 103.5712503  29.8450422
   7.0870546  11.3293207  39.5668483   6.2847283  11.8388152  39.4531441
   7.6973680  11.9344699  39.9882030  82.5668716  54.2134666  48.5495043
  82.5762653  54.7361040  47.7476406  81.7026806  54.3726587  48.9290571
  80.9435081  73.7074757  32.0385146  80.7337093  73.9003849  32.9523015
  80.2692604  74.1650152  31.5362358  43.9264631  92.7937907  34.7948527
  44.6927022  92.7832252  35.3684306  44.2842054  92.6746386  33.9150476
  84.9428749  57.7029467  45.0151300  85.5134869  57.6899195  45.7835484
  85.5296993  57.5335169  44.2781353   8.5180429  44.5422506  28.5685611
   8.1928018  44.3016052  29.4360495   9.3451741  44.0681744  28.4828877
   5.6807283  65.0913382  63.7153149   6.0913804  65.6467724  64.3779516
   6.1755040  64.2726231  63.7489605  33.8302377  58.5770702  23.9871883
  33.3930734  58.7123728  23.1464672  34.6100000  59.1305017  23.9434862
 110.6337547  74.8753357  32.1969867 110.9679317  75.6837845  31.8084478
 111.0999107  74.1776752  31.7363405  27.5940850  22.8542089  46.4362669
  26.6622403  23.0582190  46.3570452  27.6424268  22.2336268  47.1634388
  76.9158649  48.6751842  20.3455281  76.0174656  48.3451414  20.3321290
  76.9359159  49.3430614  19.6601295  99.6870327  91.8691063  45.3863478
  98.8266945  92.0454884  45.0056314  99.9671936  91.0508156  44.9763155
   0.9488538  64.3875980  37.5339127   0.6248048  63.7012339  36.9507098
   1.7626145  64.6838760  37.1261787 103.3803749  39.8124576  43.4892654
 103.2427979  39.6574831  42.5547647 104.2206764  40.2685452  43.5352516
  14.1513112  31.4349723  85.7054424  13.5207608  32.1551228  85.7102013
  14.2156366  31.1790180  84.7853470  99.9973679  37.6259828  26.6413283
  99.3733311  38.3017731  26.3765311  99.4710636  36.8299484  26.7158961
  81.0243988  31.0841489  53.0030727  81.7150688  30.6415415  53.4963369
  80.5130386  31.5452266  53.6680126  27.0918134  54.7032356  41.3184881
  27.4340203  55.5970812  41.3055658  27.0389321  54.4536591  40.3959131
 104.5422077  44.2146206  75.0911379 104.1524506  44.3280506  75.9580040
 104.8293781  43.3016539  75.0752497  26.6019776  62.8287268  83.9764404
  26.6678479  63.5908222  84.5518589  27.5097802  62.5735426  83.8120651
  90.9826469  58.5973549  54.1147184  90.4453945  58.5767126  53.3227777
  91.6973019  57.9863596  53.9353132 103.0552673  72.1270275  73.8561630
 102.5221825  72.5705147  73.1963348 103.8799572  71.9363928  73.4092093
   4.8623040  47.1214294  43.5845613   4.8003247  46.1891270  43.7924099
   4.1840985  47.5320101  44.1209316  21.3235143  32.7862144  49.0022564
  21.7413190  32.3440266  49.7412682  20.7706788  33.4557343  49.4051886
  86.4286613  54.1648197  23.8215399  85.5329895  54.3444967  23.5356760
  86.3514709  53.3901787  24.3784952   2.3798230  64.8412323  46.3672495
   2.9709199  65.0678110  45.6492662   2.9113534  64.9441433  47.1566296
  17.7143720  62.4618578  18.1001782  17.3991349  62.6009846  17.2071481
  17.9350141  61.5310478  18.1340015 104.1052532  44.3886042  33.9934659
 104.5325661  44.2941618  33.1421661 104.8052979  44.2444468  34.6301603
   9.8808816  32.4751687  17.6450074  10.5790761  32.0786476  17.1239173
  10.3327897  32.8669238  18.3923614  -0.0799415  48.2777882  45.3809834
   0.8135942  48.3868551  45.0555086  -0.6253859  48.2978487  44.5946550
 104.2574596  50.0202894  55.2928877 104.4736290  49.3752575  55.9662628
 104.9129391  50.7092619  55.4019785  75.6477880  44.7088051  57.6628160
  76.2218904  44.1975021  58.2330847  75.3465509  45.4321480  58.2126045
  95.8679008  80.0438023  39.6056581  96.0574055  79.1067934  39.5573926
  94.9668598  80.1223946  39.2923188  63.7484264  26.8939590  25.4066896
  63.0488920  26.4233470  24.9534655  63.4614658  27.8071332  25.4072404
  18.3940461  49.3535471  19.3671870  18.9463475  48.6484241  19.7048199
  18.7668660  49.5603275  18.5101664  89.0738773  39.6042490  52.6084900
  88.3933067  40.2724266  52.5273132  88.6492538  38.8855362  53.0768681
 106.9234562  54.3337345  38.8883042 106.7265606  53.7615633  38.1466246
 106.1200237  54.8363256  39.0229774 102.1764374  35.5655289  46.5608454
 101.3766479  35.5354857  46.0358095 102.6583767  36.3191557  46.2202406
  89.8696709  53.3417702  57.5373077  90.0282288  53.0931997  58.4479666
  90.6537151  53.0530739  57.0702362  89.3694401  37.6861119  33.9390302
  90.2146530  37.7351260  34.3856144  88.8038445  38.2815218  34.4307804
   2.2706655  40.7729864  68.9050531   1.3954404  40.4013586  69.0151262
   2.2788671  41.5401125  69.4774914 101.9552040   5.9353650  30.5469751
 102.6523685   6.0580367  31.1912847 101.4803696   6.7664921  30.5466962
   6.3415292  40.9302330  81.6238213   6.4760450  41.5988588  82.2954464
   6.9890836  40.2547169  81.8252754 109.3042946  38.7067175  18.1451464
 110.1258564  39.1971827  18.1184399 109.1340542  38.4747386  17.2322190
  59.7155809 104.9985758   4.6925148  58.7845468 104.8762920   4.5068938
  59.8534154 104.5541721   5.5290186  79.4330215  64.4946957  55.2289581
  79.9062634  65.2382755  54.8556423  79.4652367  64.6405506  56.1744308
 105.8932209  56.9555569  46.9777489 104.9675751  56.9957161  47.2181606
 106.2180233  57.8436136  47.1263647  28.6277440  57.3882580  38.5255766
  28.9414838  58.2871199  38.6247802  27.9036859  57.4546385  37.9030299
  36.9802812  26.4697194  48.8451862  36.7760137  26.4046168  47.9123020
  37.8907827  26.7639112  48.8710451 107.8333950  51.8471098  43.6458540
 106.9831944  51.4305162  43.5050058 108.3462334  51.6122913  42.8724861
  96.7313194  24.5722723  80.9954453  97.5031757  24.3819523  81.5285873
  96.0205460  24.0957260  81.4243221  11.0220292  54.1398382  30.5854249
  11.8573430  53.8671255  30.2057910  10.8355287  53.4798050  31.2531090
 112.1697330  49.4430923  33.8678932 111.8029690  49.0567255  34.6631527
 111.4216042  49.8529959  33.4337211 101.1877537  69.0097713  47.9491615
 101.0984993  68.1105471  48.2648659 100.9655476  69.5524025  48.7057400
 102.2705936  41.9951487  55.7005739 101.8831635  42.7014446  55.1835871
 102.6270771  42.4321985  56.4739704 104.2331028  89.8838997   9.8642051
 104.2950249  88.9566231  10.0934207 104.6601868  90.3390503  10.5899251
  40.1987508  72.9230881  25.8808112  40.3733590  73.4984541  25.1360321
  39.3696359  73.2400179  26.2390900   4.7030118  35.5669665   3.5658097
   4.5825055  35.3180647   2.6494262   4.2113832  36.3829637   3.6590022
  16.8679383  67.4436331  43.3067656  17.6042989  66.8887281  43.5638285
  16.6628793  67.9490614  44.0933514   8.7574342  53.5713673   9.0464705
   9.6297124  53.8088417   8.7318712   8.6068967  52.6937199   8.6953282
 101.6829205  81.8547153  67.3958635 102.4930286  82.1703911  67.7962494
 101.5136433  81.0167503  67.8264236  88.9334011  79.8251295  53.0561829
  88.7721539  79.0825701  53.6382771  89.7709274  80.1829147  53.3507490
  95.2150631  41.7776775  38.7291002  95.4797268  41.5920734  39.6300626
  94.4935894  42.4008417  38.8149571  68.8199425  97.0274544  47.3934031
  68.8693285  97.0891953  46.4394712  69.1018772  97.8878403  47.7040148
 109.7549438  73.4887934  75.7617569 109.8101997  72.7152443  75.2006912
 108.9614105  73.9387751  75.4718256   8.0311635  50.6086254  50.3059578
   8.4478810  51.1114740  51.0057640   8.4460023  50.9254980  49.5036316
  91.0058975  68.6511421  44.7927237  91.0678196  67.9427195  45.4334497
  90.0783443  68.6816835  44.5583200  98.3108425  27.2686124  54.2924404
  98.6613369  28.1395292  54.1056490  99.0608215  26.7745924  54.6236658
  99.6660042  69.6490908  21.1941576  98.9973164  69.2780018  20.6184983
 100.4943752  69.3309736  20.8352375 107.6932812  28.6626124  59.6314287
 108.6304379  28.7142515  59.4435310 107.2701359  28.9030457  58.8071918
  85.0004482  24.6887398  45.8523655  85.6985760  24.9636793  46.4467239
  84.8261738  25.4608774  45.3141642  86.1951828  16.8522334  14.3544352
  86.9532681  17.3987305  14.1473556  85.4534817  17.4571919  14.3428278
 101.7230511  51.4696264  40.6252670 101.9283390  51.5237188  39.6919060
 101.4435863  52.3543310  40.8607006   4.2059281  29.0688586  17.7324283
   5.0657800  28.7886524  18.0460632   3.9903405  29.8294950  18.2720459
  14.6444085   3.1154263   3.7858230  15.1773313   2.3254162   3.8758573
  13.9700368   3.0274689   4.4594026   1.6728738  32.6603198  22.3963904
   1.2420800  33.2820630  21.8097997   2.5570825  33.0095196  22.5079918
  57.0256281  44.7420835   9.8748279  57.3298788  45.6387472   9.7346246
  56.1252356  44.7411251   9.5499891  25.9382585  27.1634269  46.8312454
  26.1873487  26.3480663  47.2664118  26.7421106  27.6829100  46.8176126
  13.7400964  10.2346587  67.3650551  14.5864442  10.0290537  67.7620983
  13.4924558   9.4347620  66.9012976  73.0570364  26.2616181  16.1151004
  73.5110044  26.9240332  15.5941868  72.6803446  25.6650138  15.4682636
  90.1278687  39.4585776   9.5753390  90.5064964  38.5925674   9.7266710
  89.1970253  39.2906737   9.4284636  10.7218125  25.7538104  60.7719135
  10.0985101  25.1696539  61.2037468  10.7454255  26.5323687  61.3282585
  45.3222083  53.1825069  91.0653311  44.7531222  53.5451322  90.3864586
  46.1318682  53.6881278  90.9943907  49.9618912  29.6283031  43.1058645
  50.2897882  30.1649046  43.8275099  49.6901321  28.8094902  43.5205030
  16.8463801  64.7172530  66.8820405  16.6278265  64.0072853  66.2783766
  16.1489390  65.3608782  66.7573690  49.8934268  24.7318013  78.9453006
  49.6377848  24.7280438  78.0228782  49.6296977  25.5952127  79.2634165
  25.6764558   6.1717957  33.0045223  25.7792810   6.4754784  32.1026158
  24.9064115   6.6391766  33.3282971  74.8802757  17.6630723  -0.3050973
  75.3749323  16.9032884   0.0019462  74.3110847  17.8912616   0.4298744
  75.2045727  27.5982070  37.8142309  75.8960819  27.4473524  37.1698070
  75.5564308  27.2433543  38.6306310  98.0586338  46.0104322  33.3971095
  98.5224819  46.7623949  33.7653852  98.7194920  45.5521297  32.8780150
 109.8343658  16.2862730  21.6270232 110.1107693  17.0265746  22.1671939
 109.9401188  16.5939558  20.7268119  57.4544191  44.1830397   1.4830315
  57.7710533  43.7629175   0.6833614  57.6873970  45.1054239   1.3773835
  68.9577436 103.0662313  14.5651197  68.1903981 103.6100359  14.7431493
  69.6014070 103.6727571  14.1989803  83.6365032  34.0966558  26.5472269
  83.4910488  34.2835212  27.4746728  83.0068874  34.6533966  26.0891175
  83.5959386  99.3783855  20.8141232  83.5733747  98.7746447  20.0716805
  83.8662194 100.2145868  20.4347157  73.8837147  20.9953332  29.6246862
  73.7501192  20.3640270  30.3316760  74.4588757  20.5444789  29.0065050
  73.9966153 101.2505296  34.6360898  73.0872201 101.1364576  34.3600225
  74.2240476 102.1357184  34.3515801  89.3046665  21.1296988  29.4126463
  88.3667088  21.2237978  29.2464614  89.6338844  22.0279980  29.4427180
  93.6313248  23.0143309  13.2867217  92.9587078  22.7202606  13.9009976
  94.1100311  23.6930323  13.7625825 106.5552235  19.8001206  40.5786276
 106.5117455  19.9590135  39.6357083 106.7882442  18.8748717  40.6551075
  56.4952897  98.6714428  39.5061731  56.3630819  97.7239185  39.4753504
  55.7027482  99.0367770  39.1129303   3.5876611  19.4998121  83.2682037
   4.3598893  19.3168509  82.7330399   3.1857541  20.2641797  82.8553486
  80.0625371 100.8509469  31.3470697  79.3620061 101.4396018  31.6281009
  80.0350618 100.8852869  30.3908801  38.2325696  87.4142319   9.4120443
  38.6658525  88.2503634   9.5834655  38.9492940  86.8048471   9.2354316
   5.9331372   7.4373704  41.0637951   5.4075387   6.6552186  40.8958197
   5.8713487   7.9456902  40.2550793  87.2957993  47.8638800   0.9833717
  86.4935494  48.3598630   1.1465549  87.1849108  47.5129990   0.0997353
  95.3590679  20.5766058  36.7998385  94.4750309  20.5887914  37.1666813
  95.5307293  19.6524012  36.6192627  18.8823465  32.1466827  24.0524721
  19.3129781  31.6904473  23.3295393  17.9740670  32.2446632  23.7667155
  94.2279243  48.8753605  33.8956928  94.5632553  48.3339596  34.6103072
  93.5268974  49.3909264  34.2944241  79.4288635   5.5434781  17.1572793
  80.1033020   5.7696784  17.7977443  79.2953682   6.3478112  16.6558230
 101.1884308  50.8647251  19.5549417 100.5672073  50.7792568  20.2781367
 101.0284233  50.0945950  19.0094757 109.4114304  17.3651683  18.9494014
 109.5179749  18.3158898  18.9811659 108.7376595  17.2217357  18.2848048
  57.5938749  85.4461676  66.6068220  57.6729154  84.5296484  66.8713522
  58.1795835  85.5296463  65.8543539 101.7280102  28.2242155  32.6199675
 100.9411240  28.7473369  32.7728701 101.4005947  27.3959661  32.2692108
   2.4943593  39.9698615  51.6725445   2.6250699  40.8896685  51.9029808
   3.1752828  39.5025992  52.1565247 102.9953861  14.6822596  59.1949129
 102.0859432  14.9607766  59.0873289 103.4475899  15.0406599  58.4311724
  96.6215515  16.1079502  37.4050021  96.0976601  15.3146744  37.2932863
  96.6584396  16.2391651  38.3524489  36.3495591  47.6823092  30.9151769
  37.0698598  47.3258400  31.4351034  36.0984662  46.9665384  30.3313494
   1.8998669  68.2477291  85.5829412   2.3009490  67.8071983  84.8337418
   2.5006007  68.9637394  85.7895344  39.0047025 104.4388585  25.1991820
  39.3590736 103.5699662  25.0102925  38.5199975 104.6768436  24.4088292
 102.8774643  56.9712067  35.1724267 102.0116329  57.3331213  35.3611040
 103.2964325  56.8932295  36.0295248  96.4662838  39.3453813  35.5944657
  96.8620586  40.2004099  35.4255772  95.6748295  39.5425487  36.0954213
 105.3488064  12.8520608  52.8795767 104.5057106  12.9282260  52.4327946
 105.3121567  12.0013738  53.3168602  81.0344410   7.3454195  42.7558756
  80.1577950   7.7077961  42.8839684  80.9028721   6.3973391  42.7478027
  20.3495692  89.3796832  90.5715864  20.3249453  88.7484844  89.8524109
  20.9055041  88.9676578  91.2329574   6.8015721  52.0499325  77.1172476
   7.0123056  52.5786734  76.3476658   7.1987203  52.5226784  77.8486967
  20.8408068  48.8618837  84.4281745  21.0561656  47.9726995  84.1467392
  21.6891383  49.2713882  84.5981115  71.3411140  24.1765618  22.8043461
  70.4550982  24.5220470  22.6954913  71.4418316  24.0692759  23.7501669
  95.4180717  20.8898544   5.2791882  94.9420357  20.7931161   4.4544098
  96.1509228  20.2784681   5.2058846  45.9267949  99.8238015  54.1461468
  45.6661271  99.7071683  53.2325411  46.5804719 100.5226034  54.1213703
 101.5680408  32.0236206  48.7425709 102.4265289  31.8084550  48.3779573
 101.6765690  31.9201112  49.6879482  44.1818288  18.1074357   3.8639688
  44.2540315  18.5784984   4.6941009  43.2396749  18.0187201   3.7200812
  99.9238396  48.0501413  34.1304111  99.4162560  48.8155842  33.8608098
 100.6087208  47.9709148  33.4664059  82.8103161  41.6822863  52.4706745
  83.2163906  40.9827566  51.9588327  82.6998234  41.3067484  53.3441734
  15.6409219  37.7223516  15.1722240  15.7366613  36.7904997  14.9754477
  16.2252477  37.8714395  15.9155774  99.7192192  19.6744275  25.2536035
 100.5802631  19.6252573  24.8383856  99.1023922  19.7093153  24.5224833
  25.5397700  54.7827462  83.3754808  25.5548762  55.7383723  83.3227324
  26.2956141  54.5609055  83.9192742 109.5652294  42.8594255  62.5640726
 109.0605831  42.2428179  62.0336437 110.4365349  42.8590536  62.1677637
  15.6391004  43.4774876  25.6757164  15.6800702  42.5217485  25.7091022
  15.4872468  43.6785984  24.7522831  96.5547276  47.3637676  24.5314240
  97.1091080  47.1361017  23.7850618  95.6860256  47.4978209  24.1524506
  90.9072971  22.9218006  38.7792206  90.5613232  23.5359836  39.4267678
  91.0768700  22.1209669  39.2753458  29.5845178  40.8318090  24.5800948
  28.8977006  40.7043362  25.2345109  30.4018739  40.7406187  25.0698328
   7.5254491  49.0797138  20.0789785   7.0637086  48.3350563  20.4643440
   6.8389466  49.7241259  19.9067152  30.7773164  23.2436252  44.1261435
  31.2451890  22.6957011  44.7563171  30.3912690  22.6223254  43.5087442
 102.5295448   0.2361812  31.7165899 102.5155258   0.8388554  30.9730721
 102.9567432   0.7295686  32.4168062 104.6368504  20.6085181  52.3036432
 104.6208763  19.8108041  52.8324413 104.8312283  20.3043485  51.4171171
  22.9653166  94.9967058  87.7505940  22.6258563  94.2616327  88.2611531
  22.6101397  94.8623283  86.8719432  84.1438484  31.2768388  67.6747417
  84.8673058  31.6913891  68.1448364  84.5227242  31.0136747  66.8360376
  94.1685200   0.3974138  15.7427311  93.4706402   0.1128685  15.1526225
  94.8938847   0.6279096  15.1622546  87.1553421  25.5548739  56.2802649
  88.0876923  25.5587602  56.0636234  87.0616913  26.2346292  56.9476461
   6.8467668  28.2723212  18.5517311   7.1197084  28.1356764  17.6445019
   7.4498990  28.9362574  18.8858843  37.8102015  34.6378906  72.6328206
  38.3409976  35.1972206  72.0656860  36.9502161  35.0579698  72.6464856
 106.8670654  23.3411598  65.8712292 107.7589893  23.4605217  66.1975098
 106.9454002  23.4311557  64.9214935  12.2761396  52.2656918  33.4054041
  12.4952939  52.1313906  34.3274474  11.3675454  51.9740915  33.3302474
  89.6625614  19.7985864  50.9413195  90.2606869  20.1745486  51.5871811
  88.9210510  19.4820893  51.4572906  91.2274647  32.8575301  30.4469109
  91.3013268  33.7698317  30.1667643  91.1565685  32.9047370  31.4003134
  74.2192839  67.1161933  82.9853255  74.4089888  68.0061359  83.2823837
  74.0951251  66.6158373  83.7918371  89.1553783  33.7660718   6.5382236
  89.4101524  32.8974867   6.2269723  89.9818802  34.2406893   6.6268706
  99.2275143  38.6498499  23.1962371  99.1531563  39.3527532  22.5507665
 100.1699734  38.5363817  23.3192754 110.2538109  19.8042023  26.0505199
 110.5350494  20.0351214  26.9358540 110.9645081  19.2627645  25.7070279
  13.6213925  24.2306137  39.6312118  13.8795617  23.3283973  39.8198557
  14.0385297  24.4287801  38.7927866  26.8120912  34.9721074   6.3951927
  26.8895105  34.1329217   6.8490702  25.9141210  35.2554798   6.5671682
   3.5295156  22.0462918   7.7695638   4.3091062  22.5720525   7.9485697
   3.2748464  21.6970682   8.6236250  14.6594003  49.6358824  26.2757969
  15.3693154  49.5282555  25.6428170  14.9750283  49.1982174  27.0664048
  95.2450752  18.7904024  16.0250068  94.9379349  18.2219601  16.7312431
  96.1426163  19.0143502  16.2709749 107.2685242  29.7699714  22.9513550
 108.0793667  29.7692394  22.4426603 106.6176510  29.3840647  22.3651242
  12.0015767  19.8718977  44.6744251  12.8992704  20.0228095  44.3784428
  11.9727853  20.2487707  45.5538416 110.8680058  58.3337021  36.2620091
 110.8153057  58.9488983  35.5305815 111.8040848  58.1609154  36.3626695
  92.9564190  26.0001969  25.1919580  92.5704861  25.5293727  25.9306145
  92.9236031  25.3763032  24.4667625   7.9119828  36.6255474   4.1763625
   7.2103265  36.1778378   4.6490842   8.2637075  37.2531056   4.8077866
  11.2614682  16.1220312  44.2298222  11.0559610  16.3015652  45.1472998
  11.5357068  15.2050006  44.2208147  74.7269230  24.9996178  13.4910774
  73.9168746  25.4483264  13.2487774  74.4439145  24.1293662  13.7718010
 110.9815075  99.9740696  84.7472858 111.0048150  99.7444439  85.6762505
 111.6595080 100.6425190  84.6487141  36.7848998  83.4749817   1.6541100
  37.6020090  83.8907193   1.3789177  36.5985136  82.8350876   0.9670639
  59.5502056  13.3669131  49.7938728  59.1492845  13.9613860  50.4279804
  59.1463901  13.6004870  48.9580441  70.2608395 104.5004819  60.4489517
  70.8990741 104.2261003  59.7904682  70.4389621 105.4315303  60.5818081
  38.4570409   4.0356343  42.5030804  37.7946497   4.7203581  42.5959301
  38.3752514   3.5134785  43.3011341  36.5431451  85.4543398  14.9240303
  36.9679333  86.2407850  15.2665138  37.0109515  84.7295235  15.3388023
  37.4880028  50.6723595  82.7051258  37.4790764  49.7660303  83.0128860
  38.3677626  50.7956028  82.3486614  61.8386234   4.9003785  35.1484776
  61.6536523   3.9633172  35.0857925  61.7958213   5.0907939  36.0855770
  86.9151068  98.3576130  34.2713547  87.2841740  97.4773573  34.1994190
  87.3104811  98.7190078  35.0646400  61.4254237  91.4950369   7.4773884
  61.0123206  91.0733341   6.7238998  60.8435226  91.2974452   8.2112694
  92.4266042   5.4369156   4.2766094  92.1462144   4.6408265   4.7281170
  93.3391251   5.2697699   4.0408134 103.5578801  12.8496688  44.2412758
 104.0834118  12.4757092  44.9485207 102.9973103  13.4935897  44.6741295
  76.0947502  19.9468892  15.6965923  76.5511107  20.7855313  15.7647705
  76.7848091  19.3142312  15.4971123   3.0922455 101.9541645  66.5826511
   3.4858972 102.3431778  67.3636341   2.1950719 101.7472553  66.8443775
  74.1275070  33.2450383   1.6319561  74.3348835  32.3110287   1.6027927
  73.1738208  33.2763856   1.7076683  38.9831921  94.2455171  15.5458546
  39.2826156  93.3495258  15.7000446  38.7663702  94.5787738  16.4165783
 100.5474661  93.8655876  10.0162411 100.3847025  94.6469425   9.4878292
 100.7045362  93.1717657   9.3757916  82.3774554  29.1620247  40.2441120
  82.9020561  28.5378544  39.7426796  81.8960477  29.6571820  39.5813179
  50.5044605   6.4004843  26.7563534  50.3028656   6.2544816  27.6806259
  49.9953128   5.7359259  26.2922764  47.4487354   2.6547616  17.6636505
  46.7503811   2.2760623  18.1976223  48.1475212   2.8512900  18.2875919
  61.5690030   3.9181845  52.8851318  61.5391280   3.7954085  51.9363022
  61.0624243   3.1863921  53.2374001  34.2101268  87.8605436  38.0797291
  33.3755011  88.0512665  37.6516438  34.5525099  88.7186502  38.3300495
  50.9383858  96.3627742  17.9004288  50.8742464  96.5267824  18.8412952
  50.3238369  95.6467317  17.7396774  80.7412483  10.5156939  22.7264595
  80.4912801  11.0982363  22.0092487  81.5246583  10.9188788  23.1005573
  30.0629139  41.3396311  80.6423664  29.2288423  40.9834242  80.9484291
  29.8271179  41.9003201  79.9032736  46.9831044  71.5759979   7.3353672
  47.2651059  70.8614336   7.9064274  47.7852762  72.0633124   7.1475506
  14.6606743  56.7109108  83.4201241  15.3217602  56.3578987  84.0155888
  14.1056049  57.2581005  83.9757347  43.6028914   3.5342686   0.9699631
  43.6015467   3.3828013   0.0248241  43.6017375   2.6570933   1.3531113
  94.0791930  10.1521866  22.3056507  93.3397104  10.3114932  22.8921795
  93.8973691   9.2960589  21.9180679  50.1337172  23.3739894  16.2300205
  50.3579666  23.8866847  17.0066071  49.4629003  22.7618830  16.5326214
 108.6408514  86.0878086  68.6729002 109.2870933  86.7436695  68.9345312
 108.5277781  86.2248707  67.7323389  61.0089446  79.6776293  32.6206398
  60.6299592  78.7986849  32.6131630  61.3510395  79.7984956  31.7348671
  91.4612290  66.9135809  68.1967878  91.1201069  67.7979612  68.0635929
  92.3112652  67.0454550  68.6166430  72.5942999  15.0776332  23.9832020
  73.0250521  14.9506943  23.1378746  72.9772152  15.8841221  24.3284225
   9.0629882  47.0805693  89.2977810   8.1842351  46.7392015  89.4635868
   9.6087694  46.6741991  89.9709988  96.5919973   5.7864325  45.7903481
  97.0647432   6.2849658  45.1238632  97.2499992   5.1984971  46.1612797
  80.8068027  21.0864394  32.4055099  81.0957147  20.3361933  32.9250145
  80.3006460  21.6208356  33.0174351  11.9860637  52.4140787  89.0220642
  11.2158263  52.4698257  89.5876312  11.7896760  53.0004644  88.2914352
  82.2899659  32.2790139   1.6257286  83.1313635  31.9390195   1.9301701
  81.8135507  32.4926751   2.4279785  88.1577302 102.9159759  25.6960106
  87.7032424 102.0767282  25.6230068  87.9825164 103.3563827  24.8643970
  73.2038189  97.8394769  13.3670712  72.7119423  97.6676010  14.1700363
  73.3393527  98.7870334  13.3674049  67.8211785 100.5262493   7.0993805
  68.4176803 100.1612924   6.4457512  66.9638754 100.1695703   6.8669033
  41.5645424 101.8143676   1.9257069  41.0932473 102.6195358   1.7116547
  41.1250318 101.1360477   1.4129257  99.6194991  39.0648651  62.0144510
 100.2567109  38.4370208  61.6738510  99.0603742  39.2691875  61.2648773
  23.9115381  74.2482853  77.9195261  23.0785561  74.4129086  78.3614206
  23.8763356  73.3223963  77.6792812  68.2527614  96.6781686   7.7681541
  69.1591931  96.5316270   8.0385876  68.3222819  97.0498298   6.8887901
  39.8181284 100.1868938   0.2993584  38.8629655 100.2482103   0.3109932
  40.0109769  99.5890926  -0.4229164   2.7476555  53.8654280  82.0651531
   2.6278290  53.3922005  81.2417889   1.9361910  54.3606377  82.1770668
  17.4850667  30.8855438  80.2638245  16.8500900  30.9457016  80.9775639
  16.9505012  30.8099985  79.4734097  61.8114914  21.8865960  16.4226341
  61.2337793  21.9299595  15.6606674  62.6564421  21.6109889  16.0672092
  10.4891209  26.7140525  13.6435032  10.5551772  25.7773440  13.4579086
  11.3969998  27.0081322  13.7176895  96.6095616  53.7675564   7.5286675
  95.7982399  53.7437909   8.0360413  96.4435436  53.1892197   6.7842293
  41.0813022  20.3503818  86.3429737  41.6039834  20.5734176  87.1132278
  40.5446226  19.6093196  86.6240883  64.3299700 101.7993711  25.2018452
  63.5568047 101.9835018  24.6684170  64.6074415 102.6564668  25.5253124
   0.3283124  24.5856803  15.5232906  -0.5448242  24.5747464  15.9153938
   0.8086304  23.9011614  15.9890747 106.0801746  36.1507027  26.2195969
 106.4942576  35.6212418  26.9010925 105.7509662  35.5121129  25.5870914
 106.9382431  12.5217049  35.0127697 107.3996998  13.2850306  34.6654511
 107.3362948  11.7762129  34.5632839  96.6958119  44.5440953  16.8215561
  96.1850144  45.2157967  16.3697529  96.0935856  44.1820042  17.4715137
  45.5068857  90.4916094  31.3201618  46.1403031  91.0573577  30.8786297
  44.7312606  91.0414337  31.4311981  32.8779864  49.9210930  80.1951408
  32.3434973  50.4576778  80.7804966  33.4866023  49.4655657  80.7767963
   7.5661568  33.8183396  22.5690460   7.1128277  33.7345879  21.7301750
   6.8655543  33.9502804  23.2077789 101.1223747  22.5532525   8.1483459
 100.2311660  22.5749343   8.4969234 101.0130168  22.3247950   7.2252655
   5.2469687  30.3426926  11.3095474   4.7503333  30.3974717  10.4931068
   4.5797448  30.3372758  11.9958591  91.2403533  88.0302334  86.3956928
  90.3335330  87.8273296  86.1660385  91.7638251  87.5205708  85.7772541
  58.1360985 103.5892271  17.0542622  57.5155450 102.9104589  17.3196316
  57.6343609 104.1570352  16.4693832  26.2434626  67.1217489  62.1748495
  25.6408954  67.1338940  62.9184866  27.0451260  66.7309856  62.5225163
  80.9997161  28.4416764   2.5268555  81.8903328  28.7916081   2.5510502
  80.4373623  29.2125218   2.6029015  31.9833565  57.6147556  67.5933409
  31.5306711  58.0631876  68.3076334  32.2731495  56.7865944  67.9759550
  88.1195785   1.9817155  24.1951656  87.5732233   1.5636056  24.8606873
  88.4814693   2.7526515  24.6321201  33.8595486  81.9311714  72.1758986
  34.6451521  81.5512276  72.5692177  33.2626796  81.1904335  72.0696306
  79.3739714  16.6975539   4.6446991  79.6083589  15.9201567   4.1378021
  78.4173177  16.6846888   4.6743679  26.5654206  56.9946432  76.4836121
  26.9633698  57.3338747  75.6818724  26.7203832  56.0507727  76.4471102
  92.0634212   1.5272229  12.6010323  92.2390975   0.8434098  13.2473755
  92.0647372   1.0686581  11.7608166  38.6149674 103.0755209  10.2090073
  39.2055773 103.4426235   9.5512486  37.7436668 103.1583809   9.8214436
  58.3069445  14.5419209  23.9184284  58.7912442  14.0861075  24.6068382
  58.1451251  15.4145377  24.2770100  88.5357238  83.1509207   2.0161533
  88.6741019  82.8452872   2.9126358  89.2130042  83.8138627   1.8818855
  23.2138371  34.5660114  77.9747534  23.1249309  34.9633479  77.1084690
  23.1570220  35.3027868  78.5831690  32.6811051  95.1067352  80.5891132
  32.1766734  95.8453369  80.2481651  32.7073550  95.2509117  81.5350342
  75.1899119  15.7938712  32.7820969  75.8204481  16.1673586  32.1663380
  75.7280405  15.3348677  33.4270573  11.8620837  89.3573380  76.8833447
  11.5620661  89.3765354  75.9745836  11.1118615  89.0250492  77.3762798
  18.8383102  72.7679539  86.0083961  18.5739255  73.4764671  86.5952015
  18.2165968  72.0628834  86.1888981  91.0717179  35.2026742  11.5524101
  90.9483613  36.0540192  11.1326218  90.8716609  34.5660298  10.8661842
  78.2874636  12.7685969  28.9428997  77.5536172  12.5604527  29.5211506
  78.2917987  12.0617287  28.2974911  45.4599632 101.5254472   9.3375969
  45.7076741 101.4880060  10.2614307  44.5781023 101.8976616   9.3409729
  26.5066624 104.4305395   2.0638847  26.3427580 103.9868473   1.2317085
  25.6858648 104.8821615   2.2602558  39.0327621  92.5805855  51.1556244
  39.9713278  92.5104141  51.3299894  38.9236188  93.4541321  50.7798243
  50.7043387  33.6932938  26.7124653  51.0397316  33.1371110  26.0093308
  49.8435809  33.9764302  26.4039803  14.8282342   2.8000586  16.8720627
  15.2132182   2.2970526  16.1544323  15.4354529   2.6791136  17.6020527
  60.2819252  95.0863934  90.1768589  60.3234100  94.2669773  89.6838284
  59.3512583  95.3096581  90.1924992  49.5508003  34.8386741  78.8814688
  50.3462219  34.9619818  78.3634615  48.9111900  34.4920492  78.2593918
 107.2954680  41.4490883   4.8222351 107.2814943  41.9538396   4.0090561
 106.3914134  41.4748566   5.1356983  79.9127461   3.8941186  22.6886940
  79.9627466   4.6591466  23.2618141  79.0363593   3.5395138  22.8384781
  82.6833571  45.5833237  46.2044525  82.2218938  44.7801201  45.9633160
  82.9325856  45.9766381  45.3681374 104.1420604  24.7333949  17.6641846
 104.6090962  23.9428370  17.9346085 103.2472612  24.6020310  17.9777336
  78.2234736   2.0827763   9.3872070  77.4947275   2.2013466   9.9963856
  78.7111451   1.3381188   9.7391891 102.9116847  20.3600590  18.3256340
 102.1673895  20.2982419  18.9243317 103.4422041  21.0755580  18.6761189
  61.3156366  79.7096968  89.7828770  60.8951807  80.5314255  89.5294666
  62.1708727  79.7359800  89.3537998  93.6538316 104.3416761  21.4445114
  92.7356625 104.3041252  21.7124367  94.0542365 103.5744213  21.8534470
  80.6609364  10.6234591  33.2633686  80.4751880   9.8086445  32.7966785
  80.3390987  10.4694550  34.1515923  77.8027968  27.3502438  54.3250847
  76.9756752  27.2428219  54.7947311  77.8111984  28.2706158  54.0622425
 103.1476642  19.6695798  67.4664021 103.4926058  18.8456528  67.1223164
 103.2681943  20.2962391  66.7529583   1.6600637   2.0050471  26.7633533
   1.0825042   1.6308491  26.0980415   1.0710888   2.2719901  27.4691010
  86.4068748  12.4269192  32.8190136  86.3477685  12.8175681  33.6908627
  85.5204989  12.4970477  32.4645424  96.2271287  31.3883488   4.8247147
  96.2077261  30.6264203   4.2456532  95.8784677  31.0663693   5.6559753
   1.1229210  26.7968791  25.1727581   1.2042694  26.7204754  24.2220879
   0.2152662  27.0656960  25.3146458 110.3651549  44.4449608  42.5670910
 109.9576952  44.5082753  43.4309196 109.6295334  44.3548291  41.9613075
  75.2876078  10.7221263  13.0927944  75.4760161   9.8767083  12.6853657
  74.4831118  10.5744069  13.5899925  19.6091132  64.9617093   8.4558678
  20.2860980  65.5837720   8.1894684  19.4103484  65.1975339   9.3620205
  38.1790400  87.3814583  54.1576529  38.7400842  87.0493126  53.4568357
  37.3078513  87.0458412  53.9464140 100.7124044   6.5792124  11.4939404
 100.1823856   7.1812909  10.9716225 100.5103923   5.7132428  11.1396599
  66.3008595 101.4686655  35.6474018  66.7967749 101.5064643  36.4652443
  66.9603134 101.5774034  34.9621773  10.8293919  58.9031022  14.4058228
   9.9034123  59.1180031  14.5181370  11.2944321  59.6862595  14.7001648
  47.9122556 103.1841158   8.2949162  47.4517537 103.5489868   7.5392532
  47.2571022 102.6439165   8.7367249  30.3147656  76.2150119   3.3050156
  30.4393620  76.4140652   2.3770714  29.8508633  75.3777550   3.3101845
  79.3096985  33.3105366  25.8393192  78.5824765  33.6553662  25.3211689
  78.9049058  32.6686947  26.4227581  78.9732961  33.4028905  14.2741299
  78.6845420  34.2961877  14.0873718  79.4952647  33.4818928  15.0725937
   8.9968872  80.3923130  78.1286716   8.0805320  80.1946163  78.3221769
   9.4138271  80.4601288  78.9876175   5.9192730  94.5701812  35.0151920
   6.1357117  93.6798357  34.7383022   6.7629410  94.9632763  35.2386475
  89.9123169  36.7581170  30.9522343  90.7424857  36.7536824  30.4757595
  90.1652123  36.7149727  31.8744183   5.1467948  31.1946099  20.5695343
   5.2861504  32.0337575  20.1306343   4.7284274  31.4247792  21.3991261
  65.1231243  25.4214852   3.3010101  66.0161681  25.6112616   3.0134583
  64.6239634  26.2030451   3.0638886  44.0224743  47.7747154  78.2994461
  43.7054348  46.9896603  78.7459993  44.9251032  47.5655413  78.0591440
  56.3307047  85.5620003  83.8833141  55.6973791  85.0240993  84.3584824
  57.1654415  85.1082516  83.9997387   4.8721716  77.7470016  78.3400059
   4.6326625  77.6080942  79.2562866   5.1027489  78.6747074  78.2907057
 107.9808857  31.1774342  12.4993610 108.5036303  31.3107674  13.2900524
 107.8201009  32.0604890  12.1667957  45.0035763  69.8153305  64.9535751
  44.6673584  70.5344534  65.4884148  45.3084803  70.2367163  64.1500187
  29.7666860  78.7053204  72.9943228  28.9463329  78.7892246  73.4803391
  29.6992755  77.8574657  72.5551939  96.2527563  12.6177876  39.8634529
  96.3623430  12.4577325  38.9261150  95.6397869  13.3514302  39.9111080
   6.3817601  45.0372880  26.4612389   7.2570662  44.7591965  26.7309475
   5.8009963  44.6906273  27.1385670   4.9652438  24.1116994  16.9874001
   5.1081233  24.5815747  16.1658001   5.5685382  24.5228140  17.6064777
  72.1010900  93.1219219  18.5646248  72.4711538  93.8897680  19.0001678
  71.2144352  93.0501770  18.9180756  98.2891633   7.6145213  25.2817631
  99.0573598   7.4384778  24.7385120  98.0855490   8.5352700  25.1174736
  10.9919441  30.1047993  72.0422792  10.3041542  30.2755308  71.3988304
  10.6313658  30.4252529  72.8690338  60.0940276  93.0067133  18.0789566
  59.4243456  93.5691808  17.6898670  60.6267048  92.7201437  17.3370934
 103.9226772  48.6585038   3.9212322 103.7132288  47.7668183   4.1991901
 103.9781381  48.6051743   2.9671288  28.3058476 101.8471718  83.6184692
  29.0424919 101.9699574  83.0197144  27.8643131 101.0611057  83.2969475
  16.8207479  63.1748629  24.0893364  16.3821959  63.2164669  23.2395291
  17.7490473  63.2888746  23.8856387  98.2944037  39.9953072  25.8245945
  97.7315380  40.5737774  25.3100204  97.9758407  39.1143029  25.6281853
  42.6888943  45.1211071  84.2875671  42.0529795  44.6054649  84.7835064
  43.2988596  44.4735813  83.9341736  31.9642896  99.2355035   5.8556271
  31.1087830  99.2321037   5.4262924  31.9016863  98.5490774   6.5197945
  66.3492370 101.0431074  31.2054729  66.1681748 100.4058527  31.8963718
  66.6103888 101.8361591  31.6735554  18.8556962  53.6746876  21.9808483
  19.2976145  54.1947072  21.3096428  18.8616280  54.2326443  22.7585888
  14.1495042  19.7850363  30.1860619  13.5063367  19.1489546  30.4990578
  14.9824242  19.4804995  30.5462360  76.7103684   9.2518275  29.1318512
  75.9169485   9.2611449  28.5964775  77.4198081   9.4198840  28.5116291
  85.3666593  38.3148854  19.2252731  86.2578668  38.4090512  18.8889408
  84.8058809  38.5654156  18.4911060  67.6202668  29.7203820  19.0266991
  67.5129344  28.7743275  19.1252136  66.7480095  30.0372594  18.7922096
  21.8814731  45.6281996  46.4356804  21.6840887  44.9147034  47.0424747
  21.8694377  45.2175808  45.5711174  68.2578326  91.8416737  16.9013023
  67.9848099  91.3510989  16.1260509  69.1615630  91.5654205  17.0535755
 104.4843770 100.3569912   7.2305679 104.6587039 101.1926387   6.7975140
 104.2535163  99.7613786   6.5176964   1.4174120  56.4763403  90.3543758
   1.9100682  57.1717072  90.7902527   0.5192985  56.5874338  90.6662750
  18.7475181  93.3378029  85.3242874  18.2539511  93.0189705  86.0799122
  19.6573019  93.3527374  85.6214428 103.2001306  17.8300326   4.9797630
 103.3978011  18.7647240   4.9205208 102.5502111  17.6786988   4.2935181
  20.9701777  76.1875248  86.0246181  20.2842450  75.7387447  85.5303288
  21.7563081  76.0883093  85.4876041  91.4401819  22.6461880  21.3166904
  91.7180075  22.7896063  20.4119968  90.4904319  22.5404494  21.2616730
  74.4893164  22.3531811  31.9397640  74.6941372  22.6823084  31.0645676
  73.9151517  21.6030543  31.7852497  35.6644344  80.4785919  73.7329626
  36.6044307  80.5367851  73.9040041  35.5039954  79.5455647  73.5917568
  88.9180841  76.6797059   3.1677437  88.3330704  75.9419053   2.9955673
  88.4245254  77.4484723   2.8820229  33.4432793  68.5654545  81.7352581
  33.5704994  68.2197666  82.6187420  33.6026144  69.5054340  81.8206120
  38.5739733 100.0293182  19.8520660  38.3301066 100.2046321  18.9432049
  39.1375995  99.2571424  19.8041344  21.6941202  79.7841095  24.6964264
  22.4839724  79.5399450  25.1788712  21.1193741  79.0229152  24.7769547
  17.5035004  22.2984736  42.5957012  17.6087241  22.0001214  43.4991169
  16.8511967  22.9969971  42.6486015  23.0965666  23.5648577   2.1361351
  23.1996350  22.8462212   1.5122986  23.7004285  23.3526604   2.8478527
  86.7348279  55.7841961  19.5446301  86.1699857  55.0427048  19.7622871
  86.1433472  56.4310258  19.1599369  11.7374265  66.0999870  87.4282932
  11.6237235  65.3552532  88.0187798  12.3313975  66.6875315  87.8954315
  33.0105233  58.8344622  90.1591110  32.5559568  59.6038198  89.8160553
  33.8011694  58.7650299  89.6240520  30.3319216 103.0463028  82.2834778
  29.8092389 103.3099651  81.5261745  31.0181570 103.7108707  82.3439598
 109.2861272  57.1606820  20.5294991 108.6537720  57.0593255  21.2408924
 110.1378657  57.0268529  20.9452724   2.9628819  82.7323532  80.9985065
   3.6489585  83.2578087  81.4101219   2.3889709  83.3736515  80.5794621
  37.2459126  47.8163576  83.3768749  38.0225205  47.3201561  83.6355209
  36.5888882  47.1482420  83.1815052  85.0936343   9.0089648  36.2194824
  85.9816326   8.9586728  35.8657074  84.5708956   9.3709319  35.5039787
  69.6037197  73.7478685  85.8569336  70.1575947  74.2421770  85.2526951
  68.7577868  73.6891270  85.4128838  58.2132483  58.1900072  79.7724438
  59.1008854  57.8376865  79.8373032  58.3370018  59.1083145  79.5323896
   6.4813952  28.5456460   6.6839027   7.3232464  28.6201947   6.2345028
   6.0618357  29.3953602   6.5490627  77.0108314  50.5416291  17.2396469
  77.2459586  51.1787884  16.5651226  76.5819105  51.0604851  17.9201221
 104.3091537  34.3162243  35.0702572 104.1867973  34.8698323  35.8414745
 104.3680812  33.4273236  35.4204178 111.8815757  25.4060547  13.0969906
 110.9429599  25.2292245  13.0340290 112.1252777  25.0981515  13.9699459
  94.5311619  11.9985335  49.3663025  93.6543716  12.3294633  49.5611286
  94.3860878  11.1056750  49.0532684 106.7345907  21.2787764  38.1237316
 106.3706543  21.0156767  37.2784138 105.9768178  21.5712397  38.6301613
   5.2609687  57.7410405  27.8554535   5.5597691  56.9368832  27.4308777
   6.0560565  58.2618992  27.9684639  13.8600306  34.7291939   6.8287945
  12.9363827  34.4780152   6.8321800  14.3255143  33.9270489   6.5919018
  11.3715081  46.1740010   8.8159084  11.1019663  45.6479066   9.5687771
  11.9602255  45.6025593   8.3228493   9.2489152   9.8186677  19.8244286
   9.4045834  10.3793566  20.5844402   8.4448342  10.1616185  19.4344616
  84.2442276  36.5182774  10.4666805  83.4084703  36.8964856  10.1933765
  84.0353788  36.0228818  11.2586403  96.2330939  35.7037919   6.6326714
  96.8059374  35.1487916   7.1618748  96.1796714  35.2564519   5.7881260
  89.2016173 100.9166502  12.0428085  89.4472361 100.2345155  11.4178371
  88.6747456 100.4613184  12.6995564 106.8746568  12.0806019   3.6009216
 106.3925292  12.8217833   3.9675713 106.7184092  11.3648789   4.2170048
   4.8569255  19.7560446  34.5643520   5.2496342  19.9579661  35.4136181
   5.4480843  20.1553099  33.9261150  11.7310958  21.1547845  16.1577129
  11.9932322  20.5429833  16.8456173  10.7853226  21.2504571  16.2699223
  99.9616148  35.4306977  29.5694160  99.5141841  35.3294747  28.7293053
 100.8915044  35.3517144  29.3565845  53.9295435  78.6467505  89.3443394
  53.9640236  78.1821632  90.1805210  53.2821178  78.1652498  88.8293266
 102.4700929  28.2587998  26.2914467 102.1269800  27.8330224  27.0770741
 102.4879982  27.5655072  25.6317139  92.1585274  92.5487279  17.0944023
  91.9462968  91.7393278  16.6295815  92.4573613  92.2586726  17.9562569
  62.9771900  62.9548311  82.0915699  62.8644276  63.5068846  82.8653622
  62.2453308  62.3389673  82.1280193  95.8291532  54.6343415   4.7655201
  96.5629365  54.2536442   4.2829609  95.7262804  55.5101578   4.3932438
   8.3117157  92.5321579  82.2790337   9.1876239  92.8195381  82.5367737
   8.4347516  92.1309853  81.4187145  74.4479108  73.3642285  22.5624466
  74.7781593  73.9685052  23.2272816  73.7220726  72.9103558  22.9906845
  63.7012972  12.2975390   0.5579376  64.4474520  12.7967970   0.8899403
  63.9965166  11.9592898  -0.2874374  19.1795878  31.2160008   1.7912674
  18.9092688  32.0387070   1.3834476  18.3862834  30.8856766   2.2129059
   5.0175767  36.6042607   0.4691601   5.2870993  35.9880345  -0.2119160
   4.0634112  36.5320771   0.4934883  24.4467311  30.6155484  15.5621052
  24.4952874  30.4824536  14.6154404  25.1428084  31.2446969  15.7515335
  37.5838661  70.7922602  49.1790533  38.4998178  70.5777693  49.0022469
  37.0956922  70.3477049  48.4860277  59.7163582  86.9719696  87.2082329
  59.4190645  87.8788471  87.1345234  60.6688976  87.0250988  87.1303177
  13.3821253  39.6375458   9.5705700  13.8226180  38.8074010   9.7523499
  13.6609511  40.2169316  10.2796555  21.7796139  21.1676829  12.8123188
  21.0323434  20.6881611  13.1699085  22.5238804  20.5787890  12.9368114
   6.1096673  14.1536038   0.5391979   6.6287951  14.0489237  -0.2581596
   6.7504649  14.3753045   1.2148190  82.0737340  23.7188523   4.2271137
  82.1350820  24.4945519   4.7845745  81.4505674  23.9640896   3.5431862
  15.9981208  75.1944440  38.1970787  15.7119422  75.8116715  38.8704014
  15.7975440  75.6323807  37.3698998  89.6763135  79.1623109  12.5703812
  88.9862074  79.7822468  12.3344517  90.4218127  79.7132104  12.8090572
  93.4554948  12.5521367  12.8857517  92.6704599  12.7811329  12.3882389
  93.7316157  13.3748858  13.2895660  38.8835148   4.1314261  21.7513752
  39.5946412   3.5607092  21.4601517  38.6966424   3.8442128  22.6451492
  88.9408518  36.4709561  15.8469200  89.3078507  35.6244176  16.1016941
  88.2272865  36.2520688  15.2476406  68.5151196  63.8063860  77.0725870
  69.0863371  64.2981815  77.6625681  67.8482151  63.4277010  77.6453590
  87.1384980  13.4894173   7.6043129  86.3856150  14.0480464   7.7975369
  87.2042550  13.4979289   6.6494083  57.1896387  10.4041690  83.9994526
  57.5557423  11.0255164  83.3700562  57.9273773  10.1716441  84.5632839
 111.2943269  26.9048016   8.8761997 110.3948881  27.1226351   8.6316776
 111.2218238  26.0677378   9.3347836 100.6502081  60.8866398   3.3002949
 100.2360298  60.9155648   2.4378300 101.5861489  60.9737580   3.1195736
 102.8287092  58.1311464  57.3375273 103.7335894  57.8200817  57.3117781
 102.3189655  57.4170065  56.9549131  96.9647433  10.8591359  22.0245838
  96.0362650  10.6318753  22.0747280  96.9911505  11.6371625  21.4676189
 111.7864777  52.3062031   4.6001244 111.7125012  51.4043992   4.2878532
 111.2185670  52.8091519   4.0163898  27.3666096  64.5975113  89.3240356
  28.2996392  64.6115637  89.5373249  27.2992277  65.0980377  88.5109138
  24.2310862  16.7945759  19.0586758  24.7822766  16.0844128  18.7298965
  24.8323493  17.5302260  19.1749954  94.3698467  44.9104684  31.6480637
  94.3091227  45.8656972  31.6565609  95.3066732  44.7307198  31.5688229
  98.0262043  47.0830052  17.3121357  97.3211910  47.0208447  17.9565907
  97.9096152  46.3136952  16.7546368  36.3717437  85.5495358  86.3998604
  36.2034988  86.0217762  87.2152805  35.9781575  84.6877766  86.5365696
  40.5120802  54.6944284  90.3456974  39.8180127  54.1080952  90.0445175
  40.0706530  55.3043699  90.9367466   8.9015567 101.7533302  49.3184376
   8.0856824 101.8815517  48.8345528   9.3491042 102.5975323  49.2613125
  19.5121054  21.5145819  18.2549000  19.5345120  20.5910008  18.5053635
  19.2149501  21.9693320  19.0430164  56.5006138 104.1516517  20.3771400
  56.9899202 104.5938371  19.6833992  55.8122040 103.6720489  19.9163723
 106.3902570  45.6638806  29.2184544 106.6011883  46.5961926  29.1682243
 106.6907240  45.3050130  28.3834934 109.5974661  27.3908131   1.2629032
 108.7169768  27.7652543   1.2904930 110.1804353  28.1405823   1.3821507
  99.9029399  55.4079335  38.4052753 100.2233316  54.7571557  37.7807236
 100.0729109  55.0200646  39.2637062  17.2146611  57.3742478  23.9571762
  16.8479828  58.0378049  24.5415306  16.4507346  56.9601243  23.5557365
 104.3233754   1.2484353   4.9986839 104.5395853   0.8482163   4.1564751
 103.3716585   1.1696856   5.0639915  70.4184492  10.4709046   7.8533173
  71.2443139  10.7808440   8.2249641  70.6800301   9.8562424   7.1677589
  97.9273654  90.0135701   6.1505032  97.8233387  89.8309224   7.0843410
  98.1005956  90.9540169   6.1082459  12.8873257  27.7640622  32.8494263
  13.0039982  28.5000508  32.2486496  12.1742968  27.2530120  32.4664879
  29.5117430  58.9050286  16.6896248  28.8026433  59.1144364  16.0817051
  29.1451554  58.2313054  17.2622776  32.8639388  69.3619347  64.5136499
  33.5661054  68.7344503  64.3420219  33.1825018  70.1850843  64.1432762
  31.1287951  75.7366467  89.7041130  31.0612130  76.6671371  89.9182510
  31.8505526  75.4179525  90.2460861  61.5021540  19.9880974  42.3046398
  62.2201075  19.6629851  41.7614365  60.7111563  19.7704308  41.8115139
  68.4530473  85.9225415  43.1249714  69.1135932  86.4860033  43.5279846
  67.9966188  86.4930462  42.5065613  88.0767645  27.2655909   8.3970547
  88.8181986  27.8063004   8.1247616  88.0341710  27.3782055   9.3466568
  80.6516171  96.2276173  82.2496796  79.9880981  95.7618904  82.7586746
  81.2131691  95.5363846  81.8988228 103.4674050  20.4992144  15.5128670
 103.4996511  20.5988972  16.4643097 103.1514908  19.6060460  15.3761864
  32.1205473  92.5297070  67.9169750  31.9396424  91.5936375  68.0023432
  32.0322752  92.7062607  66.9803476 109.9355355 105.0626278  76.2247276
 110.2368820 104.4062424  76.8528843 110.5228819 104.9643803  75.4753256
  12.6017384  59.2085450   7.1465015  13.4964566  59.4914715   7.3353577
  12.2861533  59.8325532   6.4928532  35.2995598   1.6861743  87.0403767
  34.6869902   1.6960639  87.7758312  34.8743408   2.2176188  86.3673306
  80.1526976 102.0243095   8.7201691  80.0347234 101.7837165   7.8012466
  79.2626286 102.1007370   9.0639210   9.8745780  34.8663514  19.2159557
   9.4862656  35.5236809  19.7933292   9.5341210  35.0796025  18.3471394
 104.9006249  38.8729375  30.8190918 105.7081200  38.3590596  30.8086491
 104.3382908  38.4226411  31.4493656  32.1340060  49.4782162  74.9427700
  31.2035298  49.2542315  74.9593973  32.4077344  49.4326735  75.8588648
 101.4735271  35.8211510  15.3866100 101.4953615  34.8756497  15.5341721
 102.0769192  35.9637540  14.6573544  11.6671157  83.2663918  87.2807980
  11.8119812  84.0528011  87.8069305  11.7342091  82.5444317  87.9056835
  77.5245000  82.0441221  22.9973793  77.0096279  81.4954375  22.4057007
  78.4070683  81.6756176  22.9585838   6.0042983  70.1185417  80.9925842
   6.1731756  71.0319757  81.2235546   5.6425095  69.7327089  81.7903805
  34.8804331  69.9056387  84.1690445  34.5358801  69.0988827  84.5520115
  35.7353163  70.0215578  84.5837402  40.0451744 105.2448200  38.0412483
  40.8889020 104.9515461  38.3852673  40.2193723 105.4502653  37.1227264
   6.3821082  40.2530663   7.9903317   7.2587208  40.6169026   8.1144428
   5.8909659  40.5442135   8.7586021  75.4633427  93.5183834  10.5496407
  75.0747419  94.1988300   9.9999046  76.3720608  93.7952875  10.6670570
  20.4635577  35.3664296  28.6233711  20.4873709  36.3233082  28.6173248
  20.6590800  35.1162617  27.7203655  91.9220079  40.7825463   6.4864349
  91.6308786  41.1499398   5.6518650  91.7603363  41.4781659   7.1237659
  80.0275131  47.7921670  15.1650620  79.6547462  48.4783547  14.6115112
  79.7364964  48.0135815  16.0496616  11.2857537  27.6523202  43.1413364
  10.7496409  28.0964654  42.4844170  10.6602435  27.1423380  43.6560059
  93.9327027  31.6314118  12.2756958  94.7826244  31.6009419  12.7149391
  93.5052933  30.8116906  12.5239086  18.5461812  22.9635613  16.0063934
  17.7708392  23.2957547  16.4588547  18.9023165  22.2999566  16.5971851
  89.6864583  30.8824055  21.8530655  89.0286328  30.6693452  21.1911678
  90.0732531  31.7040532  21.5505409  95.1079299  38.3254807  10.2787113
  94.8358990  38.8762467   9.5446110  94.9617912  38.8690083  11.0529518
 107.1339513  29.4962590  26.8233490 107.2009875  28.7774460  26.1948109
 106.1964394  29.6822446  26.8754101  11.1789787  69.3029928  86.3619328
  11.5770447  69.9444771  85.7734776  11.8958950  69.0225840  86.9308186
  26.9778971  48.3415787  10.7922173  26.9943957  47.9932969   9.9007797
  26.3286738  47.8050225  11.2470150  38.1616402  88.4525204  82.2425461
  37.3117566  88.4007263  81.8052292  38.0079412  88.0778599  83.1098557
  88.4975614  50.7750504  16.0108089  89.3550910  50.8896153  15.6012344
  88.2703496  51.6453068  16.3382912  26.8117337  56.5540211  20.4302502
  26.5152506  57.2845643  20.9730434  26.5994553  55.7736294  20.9422588
  45.7993854   0.9909743  89.6357250  45.1607395   1.7038363  89.6216106
  45.5941302   0.5012435  90.4321384  82.5614162  38.3178990   9.4486809
  81.8595560  38.0941289   8.8374901  82.8013869  39.2157357   9.2194939
  82.5923808  63.0378239  42.0973587  83.2102366  62.4883263  42.5795746
  81.7360057  62.6497643  42.2769833  37.6063065  52.6950162  32.2425175
  37.3971610  52.3923104  33.1261826  36.9722752  52.2496884  31.6804504
   4.3314795  14.8986571  16.4713287   3.8493161  15.3481524  15.7772732
   5.1196866  15.4271691  16.5963554  96.9506313  37.5341790  25.8799934
  96.8020298  37.0944111  26.7171001  96.0755779  37.6415341  25.5071831
  69.1116095 101.6519165  86.4973164  68.6765385 100.9190750  86.9330883
  68.5307264 102.3980331  86.6460133  97.8279711  63.4232895   9.8118687
  97.1168400  62.8613942  10.1197815  97.4854304  63.8281624   9.0150261
  18.8436031  67.4234343  88.4729099  18.6241210  68.2131910  87.9786015
  19.6139622  67.6681519  88.9856434  53.7694836  92.4001122  82.7259445
  53.6602879  92.0742130  81.8325710  54.5474100  92.9563046  82.6845837
  40.1528931 103.9045334  52.0441866  39.9521637 104.5102310  52.7576828
  41.1070585 103.8292027  52.0552540 101.8914892  19.7106927   0.7179642
 102.0550348  18.9672845   0.1375866 102.4723412  20.3993504   0.3945541
   2.8379349  12.9350178   6.5096188   2.0372920  13.1889956   6.9686317
   3.0986981  12.1109717   6.9209290 101.8211652  38.0794709   7.4256516
 101.7157151  37.4835580   8.1672764 101.0652448  37.9015343   6.8660545
   4.2982916  49.8053162  36.9105053   4.0976529  50.7258408  37.0796585
   4.2070632  49.3797200  37.7630234  40.8568768  82.0583527  26.7870808
  40.0823741  82.1612160  26.2340927  41.1919408  82.9481118  26.8978977
   4.7376876  20.8016055  23.9908791   5.3531842  21.0021823  23.2857800
   5.1226954  20.0476782  24.4376373  80.9783889  24.5613091  10.3222275
  80.4621966  24.2720788  11.0746384  80.7356544  25.4796403  10.2040100
   2.4813013  60.4875653  39.4099712   3.2998137  60.6860249  39.8648167
   2.4449258  61.1223118  38.6944199  65.6835985  97.0428371  86.3917923
  65.8394480  96.4392853  85.6653786  65.6974745  97.9110527  85.9889984
  77.5360966   4.6203631  86.3286209  77.3545600   3.6854285  86.2328815
  77.6083565   4.7547835  87.2735786  54.2308808   6.8539924  79.9335432
  53.5284639   7.4061412  79.5900726  54.3212760   7.1225280  80.8478451
 111.3555647   2.4900191  18.6910439 111.9897677   1.7770665  18.7666225
 110.5115940   2.0500462  18.5892296  81.1507018  65.1713269  37.3419857
  82.0400955  65.3352158  37.0283794  81.2545849  64.5009606  38.0173016
  92.1664108  39.2808335  33.9307499  92.6550914  38.4614365  34.0082645
  92.5695409  39.7308056  33.1882954 106.0404111  20.5242198  14.4729137
 105.1120545  20.7504170  14.5296764 106.1508919  19.8073666  15.0975227
  85.6606699  64.9667351  11.9102860  86.2702323  65.0904744  12.6378536
  86.1761536  65.1675599  11.1291504  98.6442663  38.6717885  46.3840199
  98.7215687  37.9407780  46.9971085  99.5479633  38.9349454  46.2099075
  51.6863764   8.8559932  87.8639889  51.2547315   9.3441028  88.5651779
  52.5310410   8.6005420  88.2348251  22.7686362  31.5152161   2.8191662
  23.1045680  32.4114030   2.8340721  22.3452716  31.4039319   3.6704063
   0.2998690  36.0488694   1.0516357  -0.2201314  35.5214875   1.6580105
   0.0198488  36.9492333   1.2164974  11.5654997  77.1436398  13.3920956
  11.3317923  76.7570393  12.5482082  11.4451604  76.4334290  14.0224552
 110.4940392  94.2240613   3.6693954 109.9145724  93.8912099   4.3547058
 110.9738089  93.4532826   3.3661652  20.6019263  49.6955388  31.5178871
  21.3957648  49.6340077  30.9866047  20.2485709  50.5630581  31.3209438
  39.8594928  70.8179712  67.7839804  38.9152312  70.6760073  67.7172756
  39.9471712  71.5818977  68.3540297  98.1989647  87.0951169   7.8548431
  98.6890699  86.9141953   7.0527840  97.4768712  86.4669221   7.8411484
   0.8381252  39.5035260  37.2373390  -0.0464959  39.4544022  36.8750381
   0.8984093  40.3859513  37.6032925  89.5515729   6.1574096  88.2182503
  88.6093665   6.3072795  88.2958603  89.7846461   5.6804580  89.0147591
 102.3299243  56.3796322  20.2184200 103.2795931  56.4210312  20.3308678
 102.1788217  56.7117207  19.3334770  91.1190034  25.2714675  48.9027309
  91.7460026  25.7200616  48.3353901  90.2634932  25.5844205  48.6087990
   2.5121574  37.9832451  16.3384533   2.7089815  38.1934064  15.4255867
   2.5604968  37.0281785  16.3801479  62.3294783   1.1421031  81.5430164
  62.6474047   1.3783282  80.6716156  61.4354492   1.4828128  81.5722942
 106.4142252  25.7873433  59.3551636 105.7119729  26.3950961  59.1234112
 107.0379998  26.3193076  59.8492813  17.6265483  16.5802567  12.6789856
  18.3453803  15.9809439  12.8798103  17.2989468  16.2851613  11.8293858
   7.9134755  37.1531861  28.0389500   7.5965409  36.4011567  28.5391903
   8.7192921  37.4147790  28.4844399 103.0723168  23.1978409   5.2309322
 102.6120259  23.7705319   5.8444405 103.8387872  22.8931944   5.7166672
 106.8368675  81.6112321  38.6436176 107.4808146  81.7062085  37.9417992
 106.0061647  81.8670170  38.2426929  64.3891359  11.7491740  87.1413136
  64.8394132  12.2008056  87.8551102  63.7530733  12.3870963  86.8177319
  13.4512746  90.3706551  80.0361061  14.3928623  90.5359840  79.9880362
  13.3439600  89.4903851  79.6757698   8.2727818  38.5043519  33.8459778
   8.7887292  38.8292496  34.5838547   8.6566786  38.9300339  33.0793953
 107.8511062  34.7084856  62.5292158 107.5926012  34.0799093  61.8552017
 108.4701261  35.2908349  62.0888567  89.0697964  96.0963589  61.6890812
  88.9487418  95.7101792  60.8216476  90.0025889  96.3073456  61.7292690
 110.3131723  28.1469440  62.3594046 110.2822585  27.2428942  62.6724052
 110.4306899  28.6708665  63.1518221  12.5488174  12.8793538  63.3521986
  11.8439412  13.5002470  63.1681538  12.7427495  13.0055904  64.2810059
  83.9775202  16.6921139  53.9414263  83.3432195  17.1843112  54.4626141
  84.8192951  16.8644428  54.3632650 100.7581279   9.2283851  70.5944920
 100.1949427   8.4576458  70.6653118 100.1862988   9.9115098  70.2443695
   5.5227471  75.5387496   7.4607182   5.5857325  75.6072067   6.5080452
   6.1399508  74.8447322   7.6923084  68.2886172  89.4466351  11.6477680
  68.2201648  89.6615146  10.7175159  67.9335380  90.2134012  12.0974541
  13.9382887  35.1128674  81.1596203  13.2353342  34.4879222  81.3371849
  13.6195230  35.6276226  80.4182339  56.0459209  85.3868269  18.0072975
  55.5239714  85.7824515  17.3092461  56.9035578  85.8050917  17.9315090
  30.8997941  12.1202135  80.6873322  30.0897455  11.7175126  80.3744698
  31.5850639  11.4954698  80.4499817  70.3091885   6.4170258  28.7388229
  70.9596737   6.9919245  29.1420460  70.3831096   5.5948012  29.2232990
  98.7602195  33.0248809  39.0959668  98.0662259  32.8227186  38.4684825
  98.7702391  32.2756696  39.6916294  38.2162530  96.6069578   7.4604988
  38.9808329  96.0323452   7.4221325  38.5035446  97.3530696   7.9868221
  39.5619813  85.2200769  36.2007046  38.6449880  85.1096390  36.4520264
  39.9378953  85.7588647  36.8968582  64.1665555  85.7020925  19.2865849
  64.5206667  85.4446338  20.1377869  64.7542549  86.3934635  18.9818668
  17.7329242  42.1775436  66.0556030  17.2268569  42.8686523  65.6284094
  18.3955371  41.9319248  65.4099655  91.8521819  40.6058645  87.0089054
  90.9703276  40.4458570  86.6728115  92.1047816  39.7799015  87.4214745
  23.4061265  25.1218677  83.8189125  23.6465549  25.9567642  83.4171963
  23.6869955  24.4615650  83.1853962  99.3712184  30.1411533  58.1746149
  98.4719858  30.2868986  58.4684992  99.2836913  29.5762658  57.4068451
   0.1770842  19.3295932  50.6088209  -0.0894295  18.4236813  50.4522181
   0.1554898  19.7385800  49.7436666  40.2551746  41.6568375  85.3808212
  40.7486200  41.2887764  84.6478367  39.6117043  40.9826040  85.5989742
  39.0966453  83.9518927  31.5356922  39.6497381  84.3353819  32.2163200
  39.7099011  83.6848353  30.8509827  23.9056230  22.1220875  89.9445248
  23.2130909  22.5805187  90.4204082  24.3762898  22.8145552  89.4806290
  56.4910937  92.3119329   7.0349026  56.7779613  91.5307950   7.5079346
  57.2920728  92.6650880   6.6476727  19.0678728  35.5993605  41.4296198
  19.9308717  35.1938415  41.5133953  18.4689295  34.9745250  41.8383694
   5.8265738   3.9610760   1.2738323   5.7757811   3.0053990   1.2554359
   5.0626473   4.2317717   1.7831135  59.5867110  93.3017944  22.9360580
  59.5780111  92.3596905  22.7669525  60.4929400  93.5654281  22.7764320
  10.7275081  77.7610970  79.3099022  11.5561104  77.5746870  79.7513771
  10.6291342  77.0511436  78.6754560  29.0088940  25.3032112  49.0291739
  29.2430711  25.2598810  48.1020737  29.0067935  24.3908095  49.3185711
  14.1727960  22.9352903  88.2277298  13.2971394  22.7816510  88.5824776
  14.0892267  22.7459168  87.2931767 106.3904896  40.5749369  83.0982685
 107.0486209  41.2651062  83.1804848 105.7160220  40.8100033  83.7355042
  44.9100430  56.3679518   6.2626266  45.6553132  56.7219173   5.7773304
  44.3765069  57.1339353   6.4743805  34.3843631  58.6237602  10.5743599
  33.6056776  59.1070895  10.8505440  34.2068941  57.7181886  10.8286762
  16.9965863  14.9841619  79.2764282  17.0057142  15.9046149  79.5389462
  17.2386873  14.9967813  78.3504391   5.0493276  48.8285828  88.8022614
   4.5949104  49.2828035  89.5117760   5.6263423  49.4920444  88.4239578
 101.0611774   8.8201659   4.1936779 101.9334675   8.4558098   4.0433788
 100.7836653   9.1392272   3.3349419  54.8888206  26.8145347  86.6004944
  55.7204628  26.7507339  86.1308765  55.0490141  27.4652576  87.2839546
  23.4855652  30.4070091  53.2026434  22.5586462  30.2030039  53.3268785
  23.7986207  30.6405663  54.0765333 106.5903760   8.7402480   2.3423290
 106.5591027   9.0045970   3.2617760 106.8619539   7.8226893   2.3660183
   1.3207190  30.1830673  52.9537058   0.4081044  30.4428029  52.8275919
   1.2863302  29.2327857  53.0633163  25.8628083  83.1502555  41.6682625
  26.0900689  82.5501250  42.3784924  25.4765583  83.9072560  42.1087074
   0.8738004  42.9631901  63.7285328   1.4363779  42.3226357  64.1637611
   1.1359200  43.8048124  64.1016245  26.5024352  20.8011293  89.0964603
  25.6892562  20.9446096  89.5805931  26.9260192  21.6593480  89.0800381
  36.5416960  76.9436525  33.2918549  37.3198642  77.0118259  33.8450623
  36.6984366  77.5645755  32.5804424  49.6327353  74.8785208  23.6855507
  49.4952977  74.0315317  24.1097546  50.4563142  74.7766374  23.2085037
  19.2117524  49.4641972  40.9441900  18.5378003  50.1272917  40.7947683
  19.8869479  49.9183035  41.4483023  51.7166031  75.6202601   7.7606773
  52.2892667  75.0205110   8.2387829  52.2544814  76.3980745   7.6126099
   9.4587112  81.0481428  15.7659626   9.5447541  80.2915977  16.3460255
   8.7940837  81.5958713  16.1836910 102.0231047  24.8524022  67.6192093
 101.6535780  25.5255222  68.1906891 101.9851395  24.0495872  68.1390905
 100.8348283  47.2731209  91.4701462 100.1906273  47.6639652  90.8798313
 100.8145294  46.3390064  91.2621975  57.3636819  71.0889004   5.9458351
  58.1642509  71.5606676   5.7161427  56.6634787  71.5842746   5.5209255
 101.8193528 102.4662304  57.3314285 101.0426649 103.0148983  57.2221088
 101.8632200 101.9501114  56.5264893  89.5647383  27.6735185   1.6512966
  88.8092232  27.8819536   1.1017704  90.3188420  27.9812478   1.1484432
  13.3825362  52.4062777  83.1467819  12.4433422  52.4531841  82.9680443
  13.6458302  51.5459204  82.8201389 106.9275028   8.3415866  35.7923460
 107.4369928   8.9715540  35.2826452 106.4732870   8.8736236  36.4456868
  79.3169849 104.1811041  84.0263653  78.5315325 103.8990876  84.4951534
  79.9707641 103.5124054  84.2304325  92.1744677  42.1971226  89.1564846
  91.6538832  42.9904509  89.0305710  92.0534489  41.7003012  88.3473110
  44.9393571  84.9776910   0.2640724  44.0753413  85.3002475   0.5203247
  45.5286462  85.7134770   0.4301643  -0.2013731  68.7674761  81.0028553
  -0.3732517  69.6264887  81.3885880   0.7214662  68.5995626  81.1936569
  96.1644222  11.8519871  12.0516014  96.2647416  12.1285431  11.1407375
  95.3121783  12.1992676  12.3148823  46.0694265  31.5131712  77.9744577
  46.5760612  31.2886477  78.7549305  46.2987566  32.4248242  77.7941036
   9.4937754  36.9416857  67.2907591   9.2470580  37.5808144  66.6222715
   8.7175852  36.8634892  67.8454161 110.5048648  29.0931630  79.8648262
 110.4646900  29.9241757  79.3915033 110.4281938  29.3387127  80.7868099
  24.9415804  92.3238824  33.9849949  25.3730560  91.6991376  33.4021091
  25.1068819  93.1778310  33.5854054  40.6367762  70.1525222  27.0328426
  40.8277459  69.4740151  26.3852406  40.4223973  70.9267698  26.5124416
  98.2286073  42.7165120   5.4216576  99.1522028  42.8747933   5.6169891
  98.0523230  41.8485825   5.7847786  86.0860182  15.3154414   2.0880508
  85.4080631  15.3889125   1.4163303  85.9074034  14.4791787   2.5181580
  66.1681391   3.7406294  18.7184906  65.4652949   4.3676179  18.5478210
  65.7253016   2.8939002  18.7748432  39.0667177  90.7871173  23.9705086
  38.4960197  90.1192878  24.3506908  39.8988450  90.6818699  24.4317150
   3.4640199  48.9840841  68.9466572   3.4214541  48.5601044  68.0895329
   4.0812281  49.7057819  68.8264894  99.7175726  37.0648789  90.0056076
 100.1467142  37.5705504  89.3154144  98.9614210  36.6658115  89.5752430
  31.5995348  88.9475487   7.1333885  31.2942863  88.5981225   6.2961578
  32.1622062  88.2597421   7.4891377  99.5476939  25.3947203  20.0810432
  99.4368078  25.1690428  21.0046291  99.3216754  26.3235943  20.0326538
  63.3138609  50.0600910  88.4962273  62.9714918  50.9518194  88.5581684
  63.8185978  49.9408960  89.3007565  86.0164452  84.1423749  14.5603848
  86.3703633  83.4435748  15.1105309  85.9093810  83.7383102  13.6992836
  58.1515169  31.2034988  83.9342785  57.7706051  31.7583513  83.2536316
  57.4960136  31.1959147  84.6317673  79.4632883  19.3162243  21.8328953
  78.6908101  18.9875119  22.2927475  79.9764533  18.5325186  21.6361713
   0.3863548  65.7811165  74.7027397   1.1521048  65.2828741  74.9884176
   0.6645924  66.6957855  74.7496700  65.7501651  87.2357200  17.4300671
  65.9920479  86.6248654  16.7339516  65.4076005  88.0012106  16.9686508
  37.6655459  50.0062418  78.9735365  37.9577136  49.4845533  78.2260656
  38.2881403  49.7968149  79.6697760  50.6202078  17.3362887  86.4306736
  50.2041292  16.4750004  86.4666080  49.9575615  17.9063165  86.0405540
  47.6974464  99.6051286  13.0221558  47.0619304  99.1328119  13.5599995
  48.5272480  99.1553520  13.1814194  79.3169491   7.2802537   1.5557671
  78.3840279   7.4944680   1.5542507  79.6837617   7.8024476   0.8423328
   7.3038608  33.3782387  84.3825722   6.7543453  32.6690555  84.0489197
   7.6727289  33.0331612  85.1956463  24.5740140  85.2650951   2.2968292
  24.2999113  85.4610466   3.1927681  23.8805319  85.6320642   1.7485142
  69.3920894  17.6343625   0.7615471  69.7036590  18.3627980   1.2987041
  69.7854830  16.8578236   1.1596107  60.5865050  88.2722639  36.6309643
  60.0689841  88.4956168  35.8573341  60.8484650  89.1174291  36.9960785
  45.4586477  75.1982998   4.0506268  46.3598300  75.3361152   3.7588882
  45.4237629  74.2725323   4.2913914 106.3653484  26.9828534  56.4446831
 106.7215690  26.1964202  56.8580389 105.8561119  27.4067926  57.1354723
  66.6954065  97.0953487  32.1563911  65.8855272  97.5975107  32.2467422
  67.2261263  97.3595260  32.9079151   8.0605543  38.1242895  89.1751289
   7.7663642  38.5697055  89.9696636   8.9286804  37.7874875  89.3968391
  79.0034009  88.7149166   6.1727715  79.1571093  88.7291597   7.1174431
  79.8490430  88.4714292   5.7961655  58.6394288   9.7370665  14.8433495
  59.0780641   8.9090293  15.0387669  58.3085240  10.0383370  15.6894970
  91.0315491   4.6378939  33.3797741  91.9634773   4.4612401  33.5083675
  90.8009757   5.2364724  34.0902519  20.6612611  69.4611263  90.1791477
  19.7489893  69.7055197  90.3349209  20.9287095  69.9971962  89.4326019
  55.4317392  80.4215525   7.9568863  54.8571790  80.2051090   8.6912346
  55.6930567  81.3284610   8.1164551 108.7546636  16.3972609  25.0983143
 108.1358744  15.7444089  24.7710228 109.4072773  15.8886044  25.5795670
  20.5202150  47.5327969  72.9738379  20.0883508  46.6801357  73.0257750
  21.3255024  47.4246216  73.4798479  63.2074070  46.9701385  90.6322289
  63.0396938  47.7591610  90.1169109  63.1353712  47.2585058  91.5421104
  10.2110791  22.6633763  35.1346445   9.9781930  22.2843552  35.9821939
  10.7468879  21.9925594  34.7113872  29.8839879  24.3096828  80.7397175
  29.5986414  23.5802674  81.2899494  29.3170381  24.2649770  79.9697781
  59.4549943  96.2802814  20.5028248  58.7728668  96.2628912  21.1741161
  59.6727920  95.3593944  20.3587627  17.2803295  36.7975044  66.4952517
  17.4475157  36.0895061  67.1173573  16.9314480  36.3576937  65.7199574
  61.8098892  30.3759282  21.4344025  61.7723693  30.0188058  20.5471134
  62.3174526  29.7332661  21.9299889  65.2368832  53.6923537   3.3386230
  65.6640960  53.1591002   2.6682758  65.9507895  53.9769183   3.9092255
  78.8399635  19.1400712  14.8769093  79.1770358  19.9754088  14.5531464
  79.3875973  18.9387410  15.6357193 105.2885857  89.4356060  73.1313944
 104.3498418  89.6129036  73.0717516 105.6811860  89.9960709  72.4620867
  15.1332104  23.1056142  83.9681149  15.0849450  22.9070592  83.0329800
  15.9049392  23.6652398  84.0546322   1.3630302  64.8986292  85.9370995
   1.0749380  65.5560875  86.5703297   1.4772618  65.3858709  85.1211452
  71.2531257 103.9886068   8.1837559  71.4076687 103.7949632   9.1083336
  70.4547191 103.5065769   7.9682922 100.2019025   3.9521163  33.3966351
 101.0121871   3.5364573  33.6914253 100.1041175   4.7161048  33.9649582
  23.8977504  42.5939989  83.6777020  23.2642365  42.2292089  83.0597878
  23.8013983  43.5420847  83.5878086  69.1370607  79.1655205   8.9127254
  69.9314833  79.6717118   9.0827084  68.7387825  79.5923947   8.1541824
  74.8672200  73.3833550  16.7949581  74.6713305  73.4403299  17.7301598
  74.5256139  74.1990112  16.4285660 111.8301584   0.3219836  25.2977943
 111.3042523   0.7969802  24.6543407 112.0708634  -0.4924209  24.8561573
  36.7011333  85.1807308  51.2289858  37.5257039  85.5655575  50.9319544
  36.6932893  85.3313732  52.1742249   9.7930288  11.5929413  64.1873360
   8.9468026  11.9981122  64.3769932   9.5728660  10.7811332  63.7304735
 101.8937279   8.8369267  16.7537689 101.8372036   8.1211274  16.1207867
 101.7514755   9.6280472  16.2340355  76.7027241   0.1943009  32.4860954
  75.8126657   0.4775517  32.6953697  77.2635828   0.8815234  32.8458023
  48.9040638  93.9626239   1.6543198  47.9668511  94.1546081   1.6225624
  49.3156851  94.8077463   1.8347931  42.3985624  12.1673262  72.9799366
  41.6293478  11.8435681  72.5111866  42.3927927  13.1120479  72.8259897
   7.2447304   7.1906226   2.2961140   6.6525368   6.6844790   2.8523159
   6.6686253   7.6310389   1.6713142  67.7698565  83.8012217  11.4224052
  68.2116819  83.9542769  12.2576237  67.0125724  84.3863700  11.4412785
   7.7543212  92.4460243  17.5138283   7.4612332  92.5058769  16.6045666
   7.0740343  91.9343375  17.9515648  49.3078471 102.4640249  21.1237526
  49.0936518 102.3001550  22.0421791  50.2642656 102.4966405  21.1030006
   9.0062821  29.6472788  68.4704828   9.9452800  29.8318315  68.4491396
   8.7063557  30.0265694  69.2965651  30.3697777  55.0025034  46.7546701
  30.7575536  54.1605663  46.9934082  31.0294771  55.6494951  47.0045280
  43.3688593  44.2892838  61.7568254  42.7430868  43.6048412  61.5198088
  43.1727886  45.0105715  61.1588860  25.6858182 101.7616177  88.2349682
  26.6166925 101.7998219  88.4546185  25.6305385 102.1436214  87.3590469
  44.6938533  92.8510545  28.6623669  44.1918439  92.6013754  29.4381809
  44.1289885  92.6168202  27.9259586  17.7891505  34.2259884  73.0267715
  17.5005531  33.4251142  72.5891113  16.9778144  34.6773624  73.2596397
  36.1624455  82.6910971  11.8754673  37.0470988  82.4082039  11.6439629
  36.2777536  83.5734199  12.2282314   0.6441908   9.6531670   5.3753662
   1.2391357   8.9340155   5.1630116  -0.0362034   9.2498820   5.9144974
  18.3913195  72.7101994  81.3971424  18.7833929  73.5444117  81.6551971
  17.5263917  72.7150488  81.8071461  47.1605486  96.1776470   9.2330170
  46.7146320  95.5433487   9.7943211  47.6592530  96.7251419   9.8394680
  30.2827311  41.1018658  64.3047380  30.1462054  41.4294672  65.1937103
  29.5196319  41.4101982  63.8160229 107.4528815  11.9592278  14.0656185
 106.8444158  11.8317883  13.3377743 107.9039742  11.1192649  14.1505623
  80.1956273  53.2922048  16.2563610  81.1336423  53.1510411  16.1281776
  79.7934438  52.4554378  16.0233307  47.0724154  16.7139685  91.2650871
  47.8492785  17.0711493  90.8348083  47.1130991  15.7736516  91.0907936
  14.2274749  46.7296696  62.6560831  14.1402185  45.7781315  62.7125788
  14.3252718  47.0155716  63.5643387  29.5071864  48.2795620  57.4110126
  29.4174123  48.8287067  58.1898642  28.6406803  48.2967281  57.0046759
  46.5375132  83.3330058  25.7485199  45.9913028  83.6235736  26.4789009
  46.7832554  82.4360965  25.9752274  28.8378048  51.6076994  68.3396149
  28.3025122  52.0408964  69.0044689  28.2684302  51.5528107  67.5721312
   7.6443660  14.9870825  86.6040325   7.3187125  14.8162162  87.4877739
   7.2618586  15.8319116  86.3670063  36.9951773  74.5534468  68.0762625
  36.2397695  74.3363571  68.6225796  36.6220331  74.7398329  67.2147179
  23.4798336  33.5538554  87.1324921  24.0271497  33.3207560  86.3825989
  22.6614094  33.8636112  86.7445946   1.4102645  35.0327969  87.7972698
   0.6333719  35.4623008  88.1553173   1.2837324  34.1049290  87.9954624
  38.6501886  13.7943690  38.0895329  39.3287183  13.1254904  38.1813145
  39.0819289  14.5113461  37.6250172   7.5111568  48.5500240  81.7338753
   8.4326398  48.6112118  81.9855785   7.4125540  49.1895914  81.0285568
  22.5246024  59.9868059  80.8857155  22.9764652  59.1541767  80.7486916
  21.6499615  59.7382689  81.1848164 107.2924782  10.9783118   9.3915367
 106.6464712  11.5652411   8.9985657 108.1356813  11.3071101   9.0798759
  78.9276887  97.7340482  12.9965591  78.9928818  98.2182621  12.1734428
  78.7321330  98.4027265  13.6529636  78.9316369  98.8181041  19.2352200
  79.4620324  98.0738853  19.5199108  79.0177727  99.4579004  19.9419594
 101.9330622   1.2447970  18.7891865 102.3213817   0.4845708  19.2221832
 102.5037362   1.9747346  19.0294933   3.6879402  43.8745356  73.1234598
   4.3861124  43.2298851  73.2384157   4.0660232  44.5363998  72.5444746
  52.8838873  29.2980933  81.2074566  53.2554626  30.1523519  80.9874535
  53.4906101  28.9314628  81.8506527  17.9112793  93.4914564  12.8257942
  18.1486858  94.3354915  12.4417782  18.1018639  92.8533863  12.1382046
  28.8538933   5.3302473  69.0553141  28.4658742   4.5961305  68.5791349
  28.1039381   5.8196574  69.3933630  32.2368623 102.1083759   4.0424919
  32.8591115 101.3839553   4.1076756  32.2640682 102.5256895   4.9035072
  12.7310137  11.7732518  24.5962811  13.1301741  10.9056800  24.6612453
  12.8754000  12.0358651  23.6872005   7.8444867   7.4965661  14.4498444
   8.0337815   7.6590150  15.3739738   7.7770285   6.5440838  14.3830109
  88.9871761  50.8349848  79.6358156  88.1022474  51.1478472  79.4480562
  89.5342943  51.6187096  79.5841360  26.6502929  34.0340042  86.8369675
  26.4071989  34.9196839  87.1066189  26.2316203  33.4638929  87.4818897
  12.9946352  61.6854046  21.1199665  13.8252307  61.3233780  20.8112907
  13.2007838  62.0623194  21.9753456  43.0823524  89.0854548   3.3020306
  43.4890426  88.2738160   3.6054802  42.7595467  89.5044421   4.0998268
 107.8860642  27.3852151  32.5687790 107.3560144  27.1526234  33.3311272
 108.6123778  27.8944867  32.9284191   6.8034892  28.9924901  33.4070873
   7.4021725  29.5968621  33.8458920   5.9445815  29.4078534  33.4843826
  95.0409707  31.9232249  57.1948195  94.8203751  32.7159095  56.7057180
  95.1537153  31.2508249  56.5229559  87.6275887   6.0747378  33.1913280
  87.9392804   5.6827586  32.3755836  86.7801179   6.4576333  32.9645729
  53.4973944  50.0814374  24.4634151  52.8684307  50.8009552  24.5175457
  53.5348333  49.8656403  23.5316086 102.3406793  25.0616830  56.8093681
 103.1424643  24.9349063  56.3021183 102.3690988  25.9803717  57.0766544
  99.2222262  79.4203280  12.2018623  99.2227746  80.1810335  12.7828598
  98.6136246  79.6545528  11.5011597  65.7220054  74.8383640   4.5732117
  65.3666139  74.0394424   4.9626350  66.4546896  75.0763320   5.1413536
 105.7696249   9.8857443   5.0701332 105.2098156   9.7569077   4.3044662
 105.3213407   9.4195359   5.7757759  23.1309485  52.8572559  77.0088577
  23.5328293  52.0790339  76.6227245  23.0378556  53.4669733  76.2768650
  92.3229620  57.0448732  85.7354927  92.9225025  57.5441217  86.2900543
  91.5607211  57.6147318  85.6331253  24.3776941  16.1711609  91.2640953
  25.1663756  16.1759496  90.7217026  23.6557841  16.1325788  90.6367302
  38.8209140  70.5703555  21.6364670  39.6928612  70.9296964  21.8002129
  38.9850528  69.7092782  21.2519741   9.5404631  65.8212948  72.1494102
   9.2314494  65.9969950  73.0381584  10.4442847  65.5275917  72.2637701
  70.7327722  38.6363499   0.2777386  70.4369326  38.5194199   1.1805344
  71.5171219  38.0918496   0.2102947  49.7115184  29.3146889   4.1020584
  49.6341468  28.4537690   4.5132446  50.3340436  29.1834633   3.3868790
   1.5566395  39.2380261  90.2949333   1.9488607  38.9824843  91.1298561
   1.9622356  38.6565256  89.6518326  66.1408615  29.8303390  84.9754238
  66.6361046  30.5898786  85.2821255  66.7891121  29.2865324  84.5278931
  14.1490130  26.7761128   8.5162258  14.9535184  26.8823569   9.0238762
  14.4146542  26.2674801   7.7500916  36.0439634  46.3040352  71.0080862
  35.6742406  47.1028805  71.3840961  36.1107683  45.6999063  71.7475462
  77.3969889  84.2447923  26.2021637  77.6793338  84.2522405  25.2875805
  78.2021571  84.1039251  26.7002583  80.7004781  -0.1006658   1.9417858
  80.0593330  -0.5327804   2.5060844  80.3416832   0.7750981   1.7984772
  77.5950111   4.3717663  20.4552746  78.5041000   4.3595402  20.7546806
  77.0829581   4.5196478  21.2503624  62.4546994  24.4259541  12.8390312
  61.5525152  24.3767207  12.5230026  62.4358214  23.9830201  13.6873722
  18.1626832  40.5750561  71.8288231  18.4337795  40.0576639  71.0705042
  18.1393099  41.4764977  71.5077543  12.9163432  53.9575672  47.3674393
  13.3093739  53.9167213  48.2392693  12.6319206  53.0608559  47.1906805
  86.5732051  97.4606870  53.8506413  87.3543597  97.9963468  53.9888191
  86.8921996  96.6876052  53.3850002  65.6681348  80.1577471  31.2049675
  64.9461032  80.6131719  31.6379642  65.2447010  79.4647978  30.6982517
  69.1699696 102.9335807   2.2436523  68.3708454 102.4894594   1.9601250
  69.7061849 102.9898809   1.4527416  15.9850514  10.0568688  63.6345005
  16.5171504  10.1704860  64.4220257  15.8269501   9.1140503  63.5862303
  85.0772466   1.6133397  23.7655926  84.1681333   1.3748925  23.9469433
  85.2333976   1.3015216  22.8741837  40.8751869  41.8467379  91.1499691
  40.2461338  41.2502527  90.7440948  41.2522793  41.3427305  91.8710804
  84.1751750   3.4312146   0.2064133  83.6203487   3.5522502  -0.5641365
  83.6169453   2.9717581   0.8337212  32.2507882  53.8309669  90.2322960
  31.4721155  53.5053492  90.6838226  32.3328447  54.7397566  90.5214310
  78.7695981  87.2928475  31.3778400  79.5653392  87.5626348  31.8363571
  78.7158204  87.8813981  30.6248760  70.9555388  66.6318916  46.0508537
  71.9048119  66.7544638  46.0601521  70.6058408  67.4415289  46.4229202
  21.2636590  47.7518415  60.8526421  21.2112427  48.6273623  61.2359810
  21.2050319  47.8997421  59.9087572 103.9839508   0.6045621  10.6200314
 103.3910896   1.2538760  10.9983635 104.6656848   0.4883378  11.2818146
  91.0428072  17.4057810  26.0383129  91.5599133  18.1691973  26.2952805
  90.5269255  17.1931212  26.8160439  11.7410254  81.0576439  89.1626549
  12.6524591  80.7652473  89.1672611  11.2630534  80.3451538  88.7382412
   1.8697654   2.5232798  67.0929718   0.9749887   2.4883030  66.7547703
   1.8432881   2.0012884  67.8948832  62.6738716 100.8088325   2.7850056
  61.8582607 101.1375784   2.4069405  62.7845217 101.3130067   3.5911083
   0.2592687  30.4875081  49.3268585   1.1852913  30.2841752  49.4586563
  -0.2049466  29.7254937  49.6733570  60.1880837  67.6432227  54.3474197
  59.6758509  67.8215669  53.5587215  60.8686233  68.3163475  54.3483257
  29.1054154  97.5470899   7.4077892  28.8339622  98.1380342   6.7054176
  29.8606939  97.0805811   7.0497990 111.1114399  30.3658700  75.0268364
 110.8350024  29.8418093  75.7786179 110.5875690  30.0338173  74.2977762
 110.6383144  38.2156467  82.5668049 109.9121186  37.6779842  82.8827000
 111.1145404  37.6446509  81.9639683  96.9269658  90.6232999  11.6955090
  96.3657571  91.2710737  11.2692928  97.7668095  90.6989621  11.2425613
  22.0747423  30.3080177  70.1755571  22.0823050  30.5846405  69.2592287
  21.3346982  30.7768989  70.5611944  38.6314535  32.2368717  76.2336493
  37.7506280  31.9111729  76.0484505  38.6189437  32.4431634  77.1682692
  44.8397709  84.4249366  33.6055374  45.6998689  84.6499323  33.2507992
  44.3206228  85.2219843  33.4986305  90.0499214   6.4920561   0.8117962
  90.7768442   6.2589114   0.2343369  90.0151409   5.7813065   1.4519882
  59.5162631  76.0822271   9.1304302  60.1095677  76.1213015   9.8805618
  58.6636663  75.8699130   9.5102119  11.9074476  26.5059543  84.8892498
  12.1529114  27.2435284  85.4477882  12.1068192  26.8014812  84.0009117
  29.0163970  57.5525999  88.8769627  29.2622447  56.6386461  89.0200520
  29.3110824  57.7432919  87.9864407  95.1645447  10.7410901  46.2485504
  95.3899266  10.0000470  45.6861591  94.4423975  10.4206841  46.7889881
  58.0032565   8.2501404  39.1229439  57.8069200   8.0898373  38.1999111
  57.5664259   7.5367015  39.5881462  74.1296364  85.2374552   9.8176861
  74.9556089  85.3928493   9.3595886  73.5826040  84.7823833   9.1774559
  18.1716824  45.4963255  66.9897699  17.3804021  44.9577093  66.9908190
  18.8720477  44.8935509  67.2395468  53.0169190  67.1394180  22.0198917
  53.7138081  67.2104763  22.6722145  52.2190595  67.0164071  22.5342083
  41.2674553  92.0479392  28.9181805  41.6022775  92.0363353  29.8148346
  40.3177411  91.9796918  29.0162468  90.1491524  11.8729966   4.8530388
  91.0590924  12.0973914   5.0476837  90.1033641  11.8663161   3.8969612
  28.2705021  38.9360428  67.1999121  27.5613022  39.2715096  66.6515207
  28.9091134  39.6485186  67.2279406  30.2362013  19.6253896  83.8962555
  30.1192880  19.7853124  84.8327255  30.8733201  20.2835774  83.6185837
  25.3197598  36.6632771  52.2858238  26.2602830  36.7882133  52.1591711
  24.9695754  37.5501037  52.3703146  69.8261858  77.4782895   1.8767452
  69.4312073  77.2965287   2.7294922  70.6173921  76.9398378   1.8595982
 110.9638120   5.4186337   8.5849762 111.3181879   5.0758784   9.4054413
 110.1182772   5.7956259   8.8282394  81.2403346  81.5726493  19.0920162
  81.7664672  82.0697402  19.7183704  81.7403937  80.7702159  18.9427757
 101.3018895  95.7523702  -0.1518059 101.5958882  94.9215768   0.2217960
 100.3945256  95.8386968   0.1405525  57.2109461  44.0615749  79.6472454
  58.0175877  43.6250162  79.3734360  57.4500704  44.5252037  80.4498100
  19.7764564  33.7850595  67.0778656  19.2401361  33.7897038  66.2850428
  19.4437766  33.0464315  67.5877523  79.7791012   9.5684903  25.2013874
  80.3755899   8.9546435  25.6298923  80.1039280   9.6305649  24.3031216
 111.7466638  81.1125945  28.7941837 111.0002039  80.6540893  28.4084320
 112.0145605  81.7407631  28.1234646  57.6539899  59.0251111   4.8217201
  57.7584959  59.9604796   4.9960613  57.7935053  58.6061303   5.6709671
  55.0461376  99.2944311   4.0968418  55.5543721  98.5562681   4.4330597
  55.1522864  99.2453741   3.1468105  22.7256012  64.7342968  81.1511898
  22.4969053  64.6834517  82.0792770  23.5332847  65.2476025  81.1313057
  91.9923867   7.7225869  35.5720425  92.7333166   7.7337115  34.9661255
  92.3936714   7.7194207  36.4410591   7.4015582   7.3348552  79.2802429
   8.0566382   7.9976904  79.4987631   7.7084398   6.5411782  79.7185755
   9.8030293   9.2124027  86.9928551  10.6508839   8.8331366  86.7614841
   9.3080992   9.2102855  86.1735439  60.8954955  94.9551939   0.1359177
  61.2556124  95.1164793  -0.7361698  61.6122366  95.1670240   0.7339478
  21.7728066  69.7089624  84.3217087  20.8636665  69.9056196  84.0958214
  22.2528362  69.8196793  83.5010052  62.9526687  83.4416174  41.2232876
  62.1619583  83.7568639  40.7855320  63.6636091  83.9427875  40.8237648
  66.8281174  75.6497453  13.0491447  67.2226549  75.0437163  12.4220085
  67.3954368  76.4203857  13.0269146  80.1059438  86.6009925  38.8012028
  80.3445054  86.4126109  37.8935432  79.1716433  86.8060492  38.7656593
 101.6491613  84.7441769  83.2785225 102.1558425  84.0677071  83.7278557
 101.7676446  85.5280876  83.8148689  97.2884938  31.6671991  88.4703445
  96.7606589  30.8754492  88.5740471  96.9456586  32.2715569  89.1287041
  21.4176321  51.4705753  81.0183144  22.1539879  51.7324638  81.5709782
  20.7275414  52.1011686  81.2241364  90.9481145  75.3809260  34.2290401
  90.0445700  75.4300164  34.5411778  91.1698294  74.4512962  34.2825508
 111.6435577   3.2799857   6.8555546 111.2295915   3.4692567   6.0135078
 111.5453245   4.0888159   7.3579216   0.6213741   3.1446498  21.3064098
   0.4111461   3.2050746  20.3745365   1.3944869   2.5813573  21.3414860
  29.0983343  55.9572744  77.0038652  29.2422843  55.3765392  77.7510309
  28.5971618  56.6895676  77.3627615  22.4339557  38.9551878  72.9589081
  21.8929434  38.3344102  72.4708796  23.2691455  38.5029745  73.0780315
  51.0623503  40.2643204  89.9034595  50.4370880  40.5347252  90.5758858
  51.1968899  41.0490179  89.3720627  61.5448595  99.1202234  16.2346077
  62.1904231  98.4195112  16.1425114  61.1097027  98.9370607  17.0672607
  86.2497470  50.1223421  60.0729036  85.4176924  49.7365522  60.3469181
  86.0024902  50.9298897  59.6223879  51.6633917  82.1788167  18.7229919
  51.2188578  82.2530244  19.5674610  51.8860639  81.2507223  18.6502838
  87.5263310  56.7005940  10.1306534  86.8510009  56.4426376  10.7580471
  88.2050277  57.1126922  10.6652355  88.3674957  11.9084208  23.0900383
  88.8782860  11.1008160  23.0343246  89.0234531  12.6038497  23.1382751
  56.4206208 101.6102289  25.0013924  55.9812976 102.2737716  24.4694805
  56.9409049 101.1070608  24.3750095  10.7220893  25.6958048  10.4793549
  10.7210164  24.8412554  10.9106064   9.9833207  26.1623042  10.8702946
  67.4489547 102.4173854  10.9192753  66.7793966 101.7422365  11.0292721
  66.9675613 103.2430194  10.9723663  52.5306619  93.3602356  51.6758251
  51.8399847  94.0168213  51.5858936  52.0638550  92.5454281  51.8613243
  46.6979922  89.6700429  38.3331776  46.2907506  88.8817738  37.9739857
  47.5705207  89.6892546  37.9400349  84.5625521  14.9289935   8.5127735
  84.9833013  14.7817605   9.3598366  83.9899386  14.1710847   8.3948040
  41.2866259  82.3462582  83.3648109  40.9213161  83.1399250  83.7557983
  40.6755972  82.1218967  82.6629925  45.2699089  66.6513395  65.2651834
  45.1481056  67.5553131  64.9749613  44.9772453  66.1204624  64.5244074
 111.6069271  21.3940280   8.1052017 110.9855963  20.9275668   7.5461006
 112.1896292  21.8432419   7.4929142  43.3621473  69.5470940  12.0428085
  42.4435175  69.8149620  12.0672417  43.7586243  70.1114522  11.3790798
  41.5651894  49.1346693  75.1255751  40.9080410  48.4667635  75.3212404
  41.7338037  49.5585394  75.9670830  41.2665701  37.4933767  78.2210493
  41.1299038  36.7168212  77.6783562  40.3989077  37.8911757  78.2927847
  16.6798675  77.9902458  67.1957684  16.6867924  77.2807693  67.8382826
  17.5995469  78.1061935  66.9570684  17.9185987  43.3908844  71.3483143
  18.5033000  44.0081072  70.9085464  17.6458609  43.8456059  72.1452284
  32.3366070  68.2120037  78.9803362  32.6852274  68.2780123  79.8693466
  32.7477169  68.9356422  78.5075092  92.0782146  65.2080393  86.1048031
  91.8407151  64.2817163  86.0629845  92.9322371  65.2170563  86.5370083
  27.6730466  36.0779738  84.0164185  27.9784226  35.8174467  83.1474590
  28.2610726  35.6268215  84.6221638 107.9651715  11.2195580   6.2535763
 107.1957113  10.6520360   6.2992096 107.6256372  12.0977442   6.4260292
  59.2109169  25.7927172   4.0038967  58.8588299  25.8506816   4.8921013
  59.3048193  26.7031281   3.7235928  10.2044487  59.1094685  74.4048548
   9.2973334  58.8451481  74.5581818  10.2449143  59.2935753  73.4664011
  59.5941139  84.4857787   7.2768879  59.2017985  85.2465414   6.8484497
  58.8793040  84.1017507   7.7846241  22.4299741  48.3978033  88.3332062
  22.9893923  48.2472277  89.0951920  23.0120039  48.7905073  87.6826286
  69.8419667 103.0656217  17.8499889  69.3658973 102.3873590  17.3708820
  69.9649335 103.7682222  17.2116566   9.1123694  52.4901295  79.0242672
   8.3529550  51.9131279  79.1054821   9.6413839  52.3002577  79.7990751
  25.6532530   5.4587262  16.6045570  26.3226132   6.1207383  16.4315605
  25.5775838   5.4382269  17.5585461  13.5501134  49.1283560  78.9674664
  13.6981332  48.3155537  79.4508648  14.3266606  49.6584940  79.1468000
  15.6368832   9.6450417  13.3653164  16.1026387  10.1895993  12.7306747
  16.2662844   8.9647906  13.6047840  47.4027956  83.1081556   1.9270325
  48.3439756  83.2819794   1.9129658  47.0053781  83.9144634   1.5981579
  76.2213779 101.1788295   1.5741062  76.3306142 100.8502124   2.4664688
  75.3515387 101.5783332   1.5707874 100.6194831   5.9987109   4.9768257
 100.9521438   6.8712609   4.7665405 101.1408712   5.7184737   5.7290554
  69.2964340  88.0367468   1.2175179  70.2330256  87.9597853   1.3994694
  69.2497826  88.5668110   0.4218483  28.1406093  90.4725647  87.6923370
  27.3035908  90.7080078  88.0925846  27.9415584  89.7066593  87.1538162
  64.4789148 104.2559932  12.7867508  63.6585761 104.5881771  13.1513500
  64.2329694 103.8917850  11.9364071 109.2580987  33.5334199   0.2518940
 109.5243885  34.0000050   1.0441208 110.0397684  33.0499737  -0.0155163
 103.9046726  61.1996412  87.0497131 104.4279501  60.4030800  87.1386051
 103.8669828  61.5615034  87.9350758  30.3687620  77.4311018  63.0927277
  30.3857398  78.3669996  63.2928276  30.9034085  77.3451948  62.3034191
 101.0056259  15.9744828  16.8392468 100.7600428  15.7731478  15.9362602
 101.3056208  15.1392071  17.1977901  67.8461123  67.6114082  83.9728737
  68.7179804  67.2166395  83.9575005  67.3212385  67.0122623  84.5036793
  80.8003855  96.6567348  19.8522949  81.4695407  96.4444088  20.5029774
  81.0507346  96.1526798  19.0780258  17.9226947  69.3907309  90.5386066
  18.0067575  69.7833967  91.4074993  17.0828974  68.9320755  90.5632687
  14.8999226  66.0875368  83.4234810  14.5665407  65.5515862  82.7038670
  14.2512703  65.9839487  84.1197300  63.6581064  68.8889490  31.3555622
  63.0473710  69.5856987  31.1151981  63.3370186  68.5693430  32.1987629
  28.9771199  34.7904038  75.5377579  28.7880492  35.2677631  76.3456059
  29.8046470  35.1596832  75.2294350  76.0883088  39.7956936   6.8299484
  75.5494419  40.3994172   6.3186932  76.3837753  40.3137295   7.5786591
 104.6233460  88.1190395  70.2834272 103.8786682  87.5280571  70.1719236
 104.2693028  88.8604259  70.7745743  65.1062250  83.2598495  89.0435982
  65.9190845  82.8221512  88.7907887  65.0564241  83.1431580  89.9923515
  11.3956408  30.2921956  24.9156475  10.7331137  29.6159356  25.0569153
  11.3255410  30.8601658  25.6829357   8.0120949  14.8887389  13.2976246
   8.9517455  14.7068255  13.3117390   7.6695733  14.4397109  14.0704727
  99.5540787   9.9400227  28.8828087  99.0978886   9.0997737  28.8369083
  99.7907115  10.0339882  29.8055267   1.7376465  92.7720642  72.7443552
   1.3271937  91.9552517  72.4605083   2.4116769  92.9426575  72.0864725
  26.6516209  40.6192112  72.7743435  27.4354815  41.0878038  72.4876118
  26.9499350  40.0784254  73.5056353  28.0235819  25.2920144  15.5319309
  28.6105208  24.5932191  15.8207703  27.3230366  25.3012698  16.1841393
  36.8449092  43.9716673  82.7678490  37.5768232  44.2204618  83.3323288
  36.2766790  44.7419071  82.7589989  84.2508364 100.0943206   2.5230408
  84.3967438 100.2035307   1.5833473  83.9843941  99.1800140   2.6193810
 110.1030661   6.8552392  22.2926617 110.8785583   6.2942212  22.2826290
 109.3778612   6.2581580  22.4765205  19.6623635  63.3427191  56.6100597
  19.2243457  62.4989176  56.7213058  19.1030931  63.9658880  57.0738554
  17.4211693  21.9674563  89.3987370  17.1690392  21.6083741  88.5480213
  18.2972264  21.6157532  89.5570469  28.6902809  74.2778587  72.8231668
  28.5684848  74.3330336  73.7709808  28.5271859  73.3581734  72.6138592
  84.1816659  25.5979388   6.3170338  84.9644293  25.0594037   6.4332008
  84.3193306  26.0434287   5.4810810  15.8650899  14.3298709  88.0225277
  15.8776391  14.4966471  87.0800591  16.0597038  13.3961368  88.1031418
  41.9757414  31.2932420  84.6812820  42.5146246  31.9981837  85.0403023
  42.5123358  30.5069184  84.7812462 101.1965109  28.6548226   7.6561642
 101.7606927  28.0414288   7.1853352 100.5142976  28.8851922   7.0254993
   2.4521448  40.8294964  64.3588352   3.0932277  40.2323246  63.9733076
   1.6086820  40.4000139  64.2161846  34.3168807  46.1743593  77.1221066
  35.0841570  46.2056112  77.6935482  33.7265396  46.8389034  77.4772167
  17.9934168  26.3255477  85.4114151  17.2418904  26.8893576  85.2282238
  18.1493604  26.4316916  86.3498497  34.0878844  55.4651022  75.6174994
  33.4406805  55.2704954  76.2953520  34.3693709  54.6065187  75.3015423
  85.5775166  95.8746313  17.7029037  85.4202891  96.5129255  17.0071411
  85.4906703  96.3770889  18.5129833  96.9609404 100.1966976  13.2707596
  96.2495185 100.7030033  13.6629009  97.7297927 100.7609962  13.3523846
  27.5141072  81.4462852  72.9813528  27.1629882  81.1347198  73.8155460
  27.5774622  82.3954487  73.0876923  16.7834334  25.2826207   8.8779259
  16.2320428  25.1256602   8.1114006  17.3240046  26.0340636   8.6343002
  30.3489804  42.6828051  83.2423306  31.2079883  42.3641968  83.5195065
  30.2233768  42.3060608  82.3714066  87.7884234  40.6372159   5.9682083
  88.1513657  40.2460854   6.7628860  88.3329977  40.2916615   5.2609158
  12.5929892  87.1654224  85.7393551  12.9985833  86.3060760  85.6242466
  11.6915262  86.9722557  85.9967995  93.5190333  22.3808806   2.9113388
  92.9428627  22.7200310   3.5963440  94.3573238  22.8162139   3.0662155
  25.0701094  39.9882245  68.5061646  24.4653964  40.6892729  68.2630873
  24.7787285  39.2328238  67.9955721  60.7291079  83.0578540  10.2455616
  61.5251971  83.0651950   9.7141266  60.0176740  82.9783581   9.6101379
  93.2468701  87.5654625  12.0190430  92.2932673  87.5487350  12.1002769
  93.4382916  86.9446038  11.3160992  17.3976493  67.2798777  74.7016048
  17.8030455  67.3071814  73.8349247  16.5295899  66.9067621  74.5483351
  68.8494404  23.6300748   2.4394512  68.5130985  23.2373469   3.2449722
  68.0711617  23.7789958   1.9024754  27.4367194  40.8425133  12.0308113
  26.7294459  40.2616303  12.3111057  27.0007662  41.5161603  11.5089130
  37.2613263  62.5306177  62.9003716  36.9558096  62.8087282  62.0369244
  36.7314315  61.7602539  63.1052589  90.6123210  15.6941359   6.5046501
  91.5617527  15.6594126   6.3879967  90.2569224  15.4311125   5.6556892
 105.5131961   8.7693780   7.8820038 104.8087670   8.3237355   8.3525467
 106.0775019   9.1196292   8.5712910  74.6105964  21.6935628  11.9462681
  74.0519074  21.8232482  12.7126122  75.4101239  22.1797841  12.1477127
  32.3477889  90.0441693  18.2059288  33.0471838  90.0861977  17.5537777
  32.2233248  89.1082977  18.3636856  36.1670542  57.4083090  90.7573128
  36.2230754  56.6004419  90.2469730  36.5288281  58.0813599  90.1808071
  54.7475887 103.2317232  26.6242599  55.0688029 104.0904497  26.3492203
  55.2656663 102.6080106  26.1155224 102.0847060   3.5567181  36.0150051
 102.2690703   3.2175248  36.8908978 102.9010345   3.9767783  35.7441044
  19.6748793  63.6737347  89.6089172  19.2183101  63.0699492  90.1947689
  19.6527529  64.5141792  90.0665092  95.1731779   8.8350384  24.9240494
  96.0380389   9.2420619  24.8732471  94.8453166   8.8562195  24.0250015
  39.4507670  46.4504719  84.1100788  39.7591233  45.5452871  84.0678120
  40.1813459  46.9346523  84.4948673   2.0876583  50.8454847  81.0625076
   1.6654812  50.4314995  81.8152428   3.0083743  50.5943203  81.1361885
  59.5323849  42.8520155  79.0096474  59.0416336  42.0947647  78.6903238
  60.2972794  42.9008579  78.4362555 110.6212888  89.2448616  85.0047016
 110.6572130  88.6215115  85.7302284 110.6187446  90.1039028  85.4269123
 110.6793381   1.1683695  10.0928307 111.2616397   1.9062369   9.9119949
 109.9725892   1.2587445   9.4536400  35.6655097  62.1811199  89.5808029
  36.4591646  62.0794535  90.1061726  35.5631208  61.3396168  89.1362572
  62.8999472  98.9281295   5.8651543  63.0398751  99.7805236   6.2775612
  62.0250679  98.9884065   5.4815102  66.4677716  91.8004964   7.2475338
  67.2271753  91.3145064   6.9260597  65.7931066  91.1335872   7.3751640
  30.7114792  82.8360558  80.7156754  31.4759779  82.5363350  80.2237988
  30.8134747  83.7867355  80.7610035  69.1975434   0.7250111  16.3521290
  70.0885652   0.4409449  16.1481285  68.6382712   0.1628344  15.8160305
  59.3445730  98.9958286  82.7299976  58.5465288  99.4757843  82.9513454
  59.6375513  99.3852425  81.9061375  88.6283900   9.7387068  16.5489292
  88.3946504  10.5969946  16.9023991  88.2751872   9.1143887  17.1827412
  10.7597339  48.4892654  69.6065474  10.9659481  47.5783587  69.8161936
   9.9150163  48.4465742  69.1583729   4.2581324  34.0505307   1.3369179
   3.4958558  33.4956925   1.1716366   4.8431115  33.8799470   0.5987263
  69.9025393  90.1819585   7.5986671  69.3234850  90.3073262   6.8468571
  70.6562401  90.7432555   7.4166965  66.0279489 102.2474550  13.8262272
  66.0705353 103.1872057  13.6493492  65.8922959 101.8479274  12.9670429
  18.4495902  48.5306597  79.7662830  18.0230212  48.4458590  80.6189728
  18.7417936  47.6438808  79.5554018 109.4401409   6.9272416   0.6686974
 108.5846187   6.6541140   0.3374577 110.0143363   6.1819737   0.4923153
  13.1917672   9.1930525  12.7787685  14.1375641   9.2272132  12.9220390
  12.8136258   9.2825930  13.6535454  18.0612732  98.6585640  13.2443523
  17.9078413  98.7957548  12.3095417  18.9635623  98.3430933  13.2952118
   2.9479556   9.8806422   1.7621803   2.8998284   9.7477906   2.7089024
   3.6411147  10.5305379   1.6464520  22.7164102  45.9681416  86.9322777
  23.6302257  46.2035322  86.7717552  22.4273825  46.5786791  87.6104641
   6.1594605  27.4826241  59.1377449   6.2019658  28.1461501  58.4491539
   6.0258573  27.9818225  59.9434662 106.7520024  17.7738564   7.9745674
 106.4582159  17.2896855   8.7462521 106.5281607  18.6850398   8.1639481
  74.8151375 104.1605733  10.1364708  74.7754360 104.0202879  11.0824966
  74.3127228 104.9623941   9.9919415  94.6826626  19.1897528  32.2588634
  94.9171855  19.7578328  31.5250206  95.4757787  18.6826413  32.4321747
  46.4567423  38.9374280  73.9970064  45.7799435  38.3400798  74.3153572
  46.7013931  39.4534349  74.7651958  83.5752697  28.1959527   7.1533775
  83.6228402  27.2708266   6.9123077  84.1412063  28.2727044   7.9215240
  54.4996346 105.0842928  28.8868904  53.6282719 105.2736209  28.5388756
  54.9201799 104.5583986  28.2065868  42.8015471  73.0703163  82.4520874
  42.4613333  73.3171272  83.3120728  42.8148603  73.8887501  81.9558811
  38.3594088  30.5414860  13.4961033  39.0076213  29.8392480  13.4420967
  37.8999428  30.3804581  14.3202305  59.8159004 101.9847559  32.9955864
  60.3937484 101.6861509  32.2933292  59.3507791 102.7329086  32.6212025
  42.1153355  38.6196136  87.4501705  42.6414013  38.0055046  86.9379711
  42.5067854  39.4751716  87.2740459  41.9147632 100.2750896  26.5397930
  41.2950660  99.8818945  27.1542931  42.6781584 100.4916261  27.0751190
  87.5409413  90.9569143   1.3555908  86.9934703  90.6126712   0.6499004
  87.1387387  91.7950414   1.5836430  16.2206177  16.5180056  54.0760517
  15.5265622  16.8268817  53.4937191  15.7687001  15.9700577  54.7177315
  69.1110970  37.2463315  17.1913624  68.2445104  37.2602360  17.5976467
  69.6083938  36.6134732  17.7094555   9.2888808  68.1043100  77.1919632
   8.9994931  67.2054863  77.3488379  10.1544678  68.0112410  76.7940569
  40.3442383  61.5725279  69.1799545  39.4337773  61.2880850  69.2598343
  40.4362869  62.2670507  69.8321819   8.6512715  72.2387457  89.5075417
   8.1845641  73.0121279  89.1908455   7.9879147  71.7352152  89.9793911
  29.0464432  72.6513957   9.3843555  28.1678695  73.0129026   9.2675114
  29.4793630  73.2621358   9.9808502 102.7076055   0.7382195   1.3222981
 102.6716472   1.6910927   1.2387753 102.3303534   0.5588811   2.1835423
  22.7638316  69.6145487  87.8874779  22.7103806  70.4873610  87.4981499
  23.1525278  69.7604036  88.7499619  98.4758450  30.7044022  18.4446526
  97.6228382  30.2720540  18.4035969  98.3582975  31.4057343  19.0853977
  98.3993532  15.9977191  30.6579399  99.0824892  16.6663306  30.7081127
  98.8751413  15.1793568  30.5160236  95.3366901  23.7169354  33.9577007
  94.6287562  24.3339055  33.7722111  95.5693342  23.8867133  34.8705387
   6.7226392  78.1079102  76.1328316   6.3530195  77.9426956  77.0001936
   7.6325482  78.3517170  76.3027048 110.5427028  65.5244057  38.4429836
 111.4289142  65.2667039  38.1891155 110.4144336  65.1252644  39.3034840
  94.1566182 103.8676952   3.7501240  94.8127318 103.1917547   3.9199734
  94.6199322 104.6928047   3.8942528  21.9846348  62.2475045  11.7151928
  22.3199277  62.8545277  11.0553932  22.7679305  61.8459790  12.0913029
  27.0877886  57.0956707  69.6695948  27.0179176  58.0439425  69.5594597
  27.9641533  56.9603348  70.0300121  39.8658180  27.1566463  71.9896173
  38.9614248  27.0928979  71.6826296  39.8840356  27.9553080  72.5169086
   2.7399781  80.7450867  60.4345989   1.8128577  80.8885288  60.2445841
   2.8997195  81.2420750  61.2369156  64.8703171  88.4968876   3.5513210
  65.2402044  87.6276444   3.3969593  65.6305028  89.0550254   3.7151337
  55.7498360  88.6559151  43.6000061  56.0982514  89.5357798  43.7438011
  55.2330328  88.7311004  42.7978325 106.0046269   7.2973530  17.2241211
 105.8767678   7.7980559  16.4184093 106.8635203   6.8883174  17.1181774
  75.8983374  71.7397152  30.6689930  76.0833145  70.8188091  30.8532429
  76.1466528  71.8550299  29.7517872   0.5017380   7.1489613  11.4515018
   0.7326393   7.0732396  10.5256557   0.1534371   6.2878745  11.6826820
  41.9545317  54.8999786  88.0289936  41.6379452  54.8917723  88.9322853
  41.4516687  54.2122269  87.5926971  46.3069201  95.0397968  79.9595404
  45.9886646  94.1437912  80.0696373  45.5493593  95.5244732  79.6317911
  57.4839307  99.0545820  16.8456554  56.6043628  98.9780544  16.4758778
  58.0379773  99.2853807  16.1000061   3.2033353  16.6073840  26.1681175
   3.9797024  16.3469164  25.6724930   2.4886565  16.5664904  25.5326748
   1.7841484  47.7586222  48.7829494   0.9228747  47.4231672  49.0317631
   1.6768202  48.7097263  48.7723160  13.0534923  28.8485765  75.8741236
  13.7031269  29.0728855  75.2078724  13.5635030  28.7290168  76.6752672
   2.9040477  18.6103392  72.0724058   2.6235220  18.6519170  71.1581802
   2.0920499  18.6740422  72.5752306  67.9399873  90.1118325   5.8088398
  67.9956079  89.6996854   4.9467087  67.5146271  89.4557403   6.3609695
  62.7769829  95.3327631  11.6009045  63.6591411  95.3719400  11.2314510
  62.5378824  94.4071792  11.5523911  82.2927661  32.3457139  49.0368366
  82.2115989  31.3927548  48.9980221  81.6112597  32.6193326  49.6507740
  92.5235221  72.4785042  87.0648193  93.0239055  71.7150831  86.7766476
  92.7148923  72.5512981  87.9998589  62.4638439  85.5179499   5.0541306
  61.9779707  84.7894071   5.4406357  62.6769233  85.2211665   4.1693974
 106.6747238  18.6744158  23.5704422 107.3300649  18.2607453  24.1322517
 106.7016555  19.6000998  23.8125420  54.5110798  69.5695496  76.9970798
  54.4029856  68.8372040  76.3902760  54.0232086  69.3076658  77.7778721
  91.1862946 103.0037807  25.3285313  90.4226113 103.5069440  25.6110954
  90.9413291 102.6584266  24.4700718  57.7597071  27.8723424  21.1277771
  57.5704886  28.4613793  21.8581581  56.9558300  27.3651784  21.0146427
  60.5280341   1.8123858  32.6818180  59.6223928   1.5271990  32.8031254
  60.9458686   1.6490643  33.5273838  40.2692050  96.7248605  14.4330311
  40.5834941  96.9041227  13.5468483  40.1316113  95.7777809  14.4513512
  84.6026326 104.6110939   3.2126331  83.6499644 104.5747541   3.1270218
  84.9297763 104.4084571   2.3361969  19.0027527  19.2884534   9.7832012
  19.9267583  19.1792147   9.5584583  18.5350041  18.7584489   9.1378021
  61.4994825  21.3780396  24.3879604  61.7165925  21.7346995  23.5266304
  60.5477728  21.4606326  24.4484425  15.8545594  36.6326802  23.0982876
  16.4563088  37.1273701  22.5420380  16.1066584  36.8669503  23.9914894
 103.7078263  19.2663615  10.4036236 103.0969788  19.1958039   9.6700573
 103.1796385  19.6132033  11.1226177  18.2393646  52.3677254  75.1975870
  18.2097340  52.0630360  74.2906570  19.1518128  52.2478485  75.4608345
  96.0326458  34.1644089  35.2062321  95.9344508  33.3421033  34.7262287
  96.7298056  34.6297639  34.7440147   5.2942614  12.1386235  50.8320332
   6.0083203  12.4531691  50.2775764   4.9695019  11.3575022  50.3841400
  83.6442662  84.5512436  36.3146400  82.7818824  84.4169186  36.7076778
  83.7687970  83.7920569  35.7451057 101.7514922  24.4870322  33.9292431
 101.5839554  23.7065690  33.4010029 100.8809711  24.8177045  34.1507912
   8.6711936  27.3076718  11.3978100   8.2622437  26.4558213  11.5505791
   9.2015557  27.4623768  12.1794796  95.9866740  14.0878575  28.2941151
  95.8268739  13.5079472  29.0386868  96.3649918  13.5185807  27.6240158
 101.9700147  19.0404217   8.1186771 101.6625358  19.4400590   7.3050594
 101.5263225  18.1929152   8.1518555 100.1205589  22.2789948  28.5048103
 100.0234605  21.8197434  27.6706028 100.5294467  21.6371482  29.0853882
   7.7556376  59.6839612   3.3266735   8.1566434  60.0757210   2.5508213
   6.8224768  59.6405976   3.1179619   8.0281071  99.7862505  17.1571350
   8.6584858 100.4611848  16.9054985   7.9730705  99.2129444  16.3925934
  38.8177304  12.7948754  28.1680775  38.7651925  12.1249144  28.8497162
  38.1215911  12.5653546  27.5524902  35.3752589  87.2637844  88.4375286
  34.9984241  87.8192043  87.7550697  34.6213627  86.8283844  88.8353920
  79.6831442  62.2494214  17.5726891  79.5746465  62.0323460  18.4986115
  79.2827491  61.5157597  17.1061611  64.8462105  91.8483353  83.1067753
  64.8095179  92.3491001  82.2918415  64.7185612  90.9393597  82.8353024
  12.3076539  61.4796345  12.9318523  12.1652608  61.5990250  13.8708401
  12.6782040  62.3118775  12.6380730  73.1160284  97.4906705   0.7521343
  73.2464028  97.5535415   1.6983223  72.4905444  98.1864141   0.5497837
 111.1385395  44.0481465   9.9010944 110.2841569  44.0988915   9.4725037
 111.0312368  44.5496743  10.7092953  60.6205559  61.0156155  87.7883339
  60.9754372  60.8516550  88.6620617  60.8546162  61.9247580  87.6014805
  30.6801371  32.7974694  31.9920254  29.9675803  33.2518475  32.4415016
  30.3952031  32.7487652  31.0795116  39.1996169  85.6101799  89.3590736
  39.1388321  86.4849758  88.9753151  39.2005157  85.0181961  88.6068916
  80.5641223  88.0825256  15.3681278  80.2455521  88.6028050  14.6305180
  80.7218362  88.7224983  16.0622406  65.1044369  89.5906925  73.6023855
  64.5594501  90.3643227  73.4584904  66.0017014  89.9237823  73.5881805
  20.1380114   3.8963120  34.7447872  20.7732157   3.1962578  34.5942116
  20.2823262   4.5097249  34.0242767  15.2013640  45.8424275  28.5746765
  14.9288087  45.9314816  27.6614285  14.4661812  45.4032605  29.0023041
  25.1295809   7.0372908  36.2946701  24.7167878   7.6670449  36.8856335
  25.9492306   7.4564736  36.0325623  48.7099791  99.6016216  69.0889549
  48.7202549  98.6444759  69.0917015  47.7858448  99.8315048  69.1857433
  95.5897018  81.7252350  84.7764492  95.5218408  81.3621044  83.8934040
  95.6310841  82.6722527  84.6434498  70.5114651  90.8789921  83.6896515
  69.6966219  91.1208916  83.2494926  70.4122353  91.2166691  84.5798016
 108.1583501  29.9956982  17.9293156 107.7956821  30.3422349  17.1140766
 107.9247643  30.6466000  18.5911369  54.6545267  92.8022957  75.7348585
  54.7138977  91.9772816  75.2531242  55.4952240  93.2322502  75.5780363
  87.2513343 105.2417062  11.3179779  87.5355912 105.7563089  10.5625820
  86.7207289 104.5388149  10.9429646  54.4679559  76.7813657  19.1364765
  54.9690128  77.5491832  18.8614750  54.8219777  76.0636567  18.6113167
  66.0750484  60.0093889  89.9526119  65.3539562  60.6264544  90.0770664
  66.6258383  60.4163742  89.2838573  73.4474064  99.1491865  18.0755711
  73.0536509 100.0216220  18.0823708  74.3254901  99.2799209  18.4334946
   2.5996196  85.3682423  86.4746284   3.0985996  84.8335171  87.0921326
   2.5150397  84.8184776  85.6956291  19.4714265  61.1454289  23.3955097
  19.3823771  60.2595894  23.7470627  19.2062764  61.0671990  22.4790955
   6.2207989  38.3695691  16.2473106   5.9101205  37.8272145  16.9722748
   6.8924622  38.9289658  16.6374016   7.7433543  52.3458951  13.3183861
   7.4753766  51.4864628  13.6436462   8.2371192  52.7324002  14.0416050
   8.3469586  37.5796311  14.5655823   7.8502564  38.2094185  15.0879574
   9.2525391  37.6891987  14.8556709   4.2576842  37.7418988   9.1682720
   4.5187621  37.5367921   8.2704926   3.7698416  38.5621350   9.0943718
  75.3696632  68.3567810  60.1301670  75.2474546  67.4915695  60.5209351
  75.3702307  68.1955433  59.1866446  26.2521553 102.2852135  85.5773258
  27.1529984 102.0850658  85.3230476  26.2637138 103.2196903  85.7843208
  87.1961023  59.9671166   8.5196877  87.9195549  59.5921509   9.0219307
  87.1768738  60.8883946   8.7787342  95.4392149  27.4782269   4.3553543
  95.6719233  28.1178181   5.0284004  94.7094108  26.9875615   4.7333241
  16.5641074  41.9424813  11.2472534  17.2893052  42.1287148  11.8436146
  16.4812808  42.7345364  10.7161999  92.4342836  14.4923728   1.9188404
  93.3149601  14.2852347   2.2314644  92.3335363  15.4287856   2.0897484
  57.0027472  57.4307149  30.0213432  57.2192050  57.1710866  29.1258144
  57.8421880  57.6797764  30.4080391  52.7177143  81.1726284  86.5179920
  53.0341625  80.3245354  86.2068272  52.4881315  81.6498470  85.7206345
  30.7715654  81.1378193  82.7329254  30.6346846  81.7128944  81.9800758
  31.6982484  81.2422657  82.9487419  63.5786109  35.7020753  18.7990570
  63.7519316  36.0958760  17.9440117  63.2858138  34.8131173  18.5984135
  17.8640132  34.9669354   8.5555077  17.6034932  35.8005707   8.1638432
  18.4012465  34.5448392   7.8850937  30.4900527  57.9478025  86.3708210
  30.5892158  58.8678408  86.6156292  30.9650111  57.8675175  85.5436611
  39.0571904  68.9560080  82.2980690  39.6974230  68.9128923  81.5878010
  39.3029857  68.2415771  82.8857803  11.5282874  25.7358401   7.9406929
  12.3116164  26.2773268   8.0377769  11.1356787  25.7239001   8.8135910
  21.7957520  84.6723175  85.7814980  22.4206758  84.7617531  85.0619888
  21.2159705  85.4285049  85.6905651  41.7257309  78.2884884  71.7365122
  40.8591366  77.9213190  71.9109726  41.5528488  79.1863108  71.4532185
  27.1363425  71.2020969  67.0932007  26.9279099  70.2678680  67.0952082
  28.0397034  71.2452745  66.7796659  69.1142225  96.9246006  70.2022123
  69.5904636  97.0428753  71.0240650  69.1181183  97.7914429  69.7962475
  76.9048640  49.7856228   2.1034241  77.5741817  49.9335473   2.7715302
  76.0800330  50.0003522   2.5390625  63.1253196  28.1368369  78.7497330
  62.5408841  27.6398772  78.1772804  63.8996578  27.5816840  78.8416100
  41.6695885  66.0595887   1.7716122  41.2684016  66.4120381   2.5660133
  42.0016389  65.2003949   2.0319080   2.0140843  34.2515175  16.6984749
   1.2217192  34.0255349  17.1856308   1.7710023  34.1376870  15.7796764
  70.0944806  89.5701550  19.9846077  70.6198955  89.7675394  19.2092323
  69.1946436  89.5310591  19.6605778  86.5366412   4.7724647  86.4585400
  85.9514619   5.0842399  85.7681847  86.4244891   5.4026145  87.1702766
  91.7389918 103.2047628   2.9870796  92.6127244 103.5570263   3.1565762
  91.2314797 103.4388469   3.7641716  10.4520516  52.1949952  11.7844391
  10.8624653  52.0800488  10.9273624  10.2877669  51.3038342  12.0927715
  22.9066138  22.9796116   8.4100056  22.6429228  23.0208914   9.3292427
  23.6014084  23.6331980   8.3305550   6.7933277  88.0249451   8.4790611
   6.7470364  88.0226706   9.4351387   6.8091778  88.9522527   8.2422447
 110.6230626  49.8381615  81.5135098 110.4072990  50.5227470  80.8802509
 110.1879629  50.1127863  82.3206711  55.7171202  89.3430233  87.5936127
  55.2540588  88.6056232  87.9911709  56.2623453  88.9455128  86.9146824
  51.7660475  78.3719444  73.4720755  51.2272549  78.9793825  72.9651785
  52.1294928  78.9061975  74.1782713  33.5348320  69.5976496  74.7210407
  33.4994817  70.5475569  74.8335552  32.8453231  69.4059324  74.0853882
  16.8306737  37.6109307   8.3284760  16.8809800  38.5668080   8.3313465
  15.8958678  37.4205201   8.2502651  83.2595111 104.4178604  33.9378071
  82.6866914 104.0683673  33.2551956  82.7295304 104.3868183  34.7342968
  15.2071290  68.8599961  38.5112000  15.5419402  68.6264699  39.3769932
  15.9765343  68.8356583  37.9422951  14.0658812  30.3238480   9.3861485
  13.5031037  29.6353619   9.7404099  14.9528794  29.9730961   9.4664192
  19.7470574  25.5587952  11.6794682  19.6585230  25.2347224  12.5757790
  19.2281346  24.9509900  11.1526680  21.4057231  70.2014065  77.4769497
  20.5043459  70.5060005  77.3721886  21.3760424  69.2765951  77.2318554
  50.3595877 101.9738483  77.7335262  51.0719442 102.0950031  77.1057463
  49.9638891 101.1374760  77.4883032  24.5636658  10.7409041   6.1250877
  23.8546805  10.6125348   6.7552376  24.2108969  11.3658707   5.4916763
  12.6920132   7.5672333   7.1478462  12.6909165   8.1455462   7.9105949
  12.5209241   6.6966574   7.5070953  53.3795357  69.5877075  64.5324421
  53.7162256  69.2224884  65.3506613  52.5519133  70.0014925  64.7774982
  37.3184399  39.4862931   2.8180981  36.4371018  39.8206418   2.6517200
  37.8999476  40.1415246   2.4324036 107.2926952  20.1568883  17.4014568
 107.8568388  20.2558129  16.6345215 107.8946544  19.9508803  18.1166077
  73.4603978   6.9956988  73.2304573  73.7230373   6.6537684  74.0850592
  72.8872896   7.7348346  73.4340525   5.0576167  13.5335200  39.6793652
   5.5242734  14.3605797  39.7995090   4.6977524  13.3338301  40.5435658
  22.4087381  55.2347326  81.6676235  22.3201871  55.0262403  80.7376099
  21.5229654  55.4669142  81.9464207  79.1067661  16.3421433  26.2445927
  78.7754868  17.0493357  25.6910992  79.9588378  16.6549533  26.5484905
  70.2950335  84.9326134  68.6606312  71.1191559  85.3668880  68.8807774
  70.1770782  85.1023197  67.7260113  99.1717531  46.8991273  36.5884781
  99.6081878  47.3893445  35.8917427  99.1502310  45.9969704  36.2692833
   1.6779737  13.4813206  26.8625450   2.1249084  13.6834138  26.0405731
   1.2438779  12.6439326  26.6995525   9.5802550  33.2163804  24.4453907
   8.8695864  33.5981934  23.9302158   9.2189459  32.3958676  24.7807121
 108.7608267  77.5034325   0.1106548 108.5037257  76.7701428  -0.4482841
 108.6524321  77.1740430   1.0028267  78.7058354  94.5950578  17.5561237
  79.3348218  95.1064275  17.0471001  77.8629065  94.7649311  17.1356010
  92.5028038  95.7701588  58.0885649  91.9015312  95.1307392  57.7066708
  93.3548164  95.3340530  58.0776072  59.2090511  53.9870214  90.2033424
  59.1564655  54.9346066  90.0786495  58.6670876  53.8163710  90.9736538
  70.8759403  56.6157389  81.7220211  71.4087486  56.8441725  82.4837112
  70.9232759  57.3867130  81.1567020  44.1605854 103.4857750  65.2482557
  44.0056515 102.5461960  65.3452921  43.3781815 103.8129520  64.8043680
 103.8923480  30.9760754  36.8213463 103.5969616  30.8629792  35.9179211
 103.2722475  30.4653542  37.3417950   9.6615510  49.6474927  22.3857594
   8.9242797  49.6373360  21.7753792   9.6431260  50.5244248  22.7690125
  21.5503935  30.9887784   5.1818562  21.6748242  31.0820477   6.1263371
  21.7217593  30.0632470   5.0079346  43.0286932  76.5831327  86.2453651
  43.0430269  77.5227261  86.4275360  42.9971123  76.5247488  85.2904701
  42.0938969  95.6241417  80.9284878  42.6960945  96.3663769  80.8767414
  41.4532709  95.8812618  81.5916061   8.5095410  46.2170880  23.6121655
   8.2033400  45.3126805  23.6793995   9.4620137  46.1533539  23.6826515
 110.9627296   2.2489731  33.1945229 111.0366203   1.2958138  33.1470108
 110.6551649   2.4213021  34.0844250   8.5037856  74.0205662  40.5785084
   8.0034833  74.2399399  41.3645172   9.3520407  74.4446175  40.7084084
   5.8684401  15.3539794   9.4604588   5.4678874  15.0235121  10.2645588
   6.6981845  15.7364695   9.7458649  25.7924461  91.2649345  89.4603920
  25.7155800  92.1852493  89.2086983  26.0181713  91.2889862  90.3902817
  25.3071404  85.3105736  90.6318665  24.9296474  84.7025108  91.2674713
  25.6931424  86.0054302  91.1651707  53.2939148  89.5350552  83.5009766
  53.4750605  90.4737663  83.5481930  52.9266596  89.3185902  84.3580055
  73.9776516  58.3243513  81.4448547  74.2848492  57.4283838  81.3066387
  74.3206358  58.8132286  80.6967926  75.7587051  87.2210884  55.3327274
  76.2735271  86.4647198  55.0514841  76.4084673  87.8490734  55.6484318
 106.7260744  25.8454840   9.1307163 107.4446441  26.4058678   8.8376999
 106.4258720  26.2475484   9.9458599  52.4531221 100.2648067  86.1886215
  52.8743744 101.1224079  86.2461758  52.4486971 100.0624371  85.2530670
  41.6625790  49.8568337  39.4335747  41.0857730  50.4972642  39.8499584
  42.4329333  50.3618806  39.1733360  93.3697082  27.4614899  14.4533062
  94.1127230  27.2707741  13.8807774  93.7534918  27.9259579  15.1970863
   6.1076932   8.2306092  30.5500507   5.2649026   8.6445134  30.3639698
   6.3154225   8.5017007  31.4442444 104.1578675  77.7503251  15.1816654
 104.9820948  77.9986404  14.7630692 103.5048915  77.8206037  14.4853020
 101.4136840  89.5081638  10.9360790 101.4834595  88.6993836  10.4288960
 102.2785569  89.6185254  11.3311005  43.7166357  84.6926498  63.8762188
  43.8923979  84.9836445  62.9814243  43.5982609  83.7457561  63.8012409
  43.6191039   8.3851664   5.4593945  44.1990523   8.0912392   4.7569084
  43.9027171   9.2802613   5.6453896  16.4537005   1.9508593  18.8173389
  16.9296603   1.1333649  18.6710644  17.1385197   2.6120560  18.9176846
  44.5021014  47.2270577   0.2652550  44.6634631  48.1695073   0.2207088
  45.2338175  46.8359559  -0.2120876  74.7804285  87.7396129   5.7550430
  74.0517331  87.4876999   5.1877880  74.8421074  88.6898779   5.6579685
  92.6264824  25.2895920  15.8741951  91.8995132  24.8751156  15.4094791
  92.7716197  26.1122124  15.4067898  74.2780703  12.1524136   4.8809624
  74.3470546  12.0872920   3.9284706  74.4964468  11.2758248   5.1974010
  15.4552560  26.2304251  40.4893398  14.9944787  26.9522278  40.0616550
  14.8956732  25.4680197  40.3415585  90.1012255  31.2505620  17.1353817
  89.8490359  30.5279248  17.7102184  91.0409750  31.3571541  17.2828293
  78.8781977  51.2272978  90.6563759  78.0698776  50.7846689  90.3976631
  78.8815594  52.0372534  90.1462841  41.0106139  45.8806603  41.7684555
  40.3895287  45.1552479  41.7031860  40.8198599  46.4285176  41.0070801
  65.0307798  58.7123203  75.7474422  64.6557617  58.0352592  75.1842499
  65.4381323  59.3302345  75.1404190  67.1497631  89.9248600  88.0169487
  67.3433256  89.6136665  88.9012146  66.4357567  90.5514431  88.1344891
  31.1049847  38.7611096  15.4583263  31.9807200  38.4709256  15.7135105
  31.2562947  39.3783276  14.7425175  31.3662267  33.7116909  79.4412518
  30.6346273  33.1662297  79.7301531  32.1154499  33.1163073  79.4208717
  80.0913525  67.1673632  77.4172211  80.6236076  66.5422344  76.9251299
  79.8168659  67.8129959  76.7660332  98.6298253  30.9252732   1.0073948
  98.1918432  30.5584233   0.2394009  98.1679513  31.7463105   1.1771202
  37.2215366  77.7801371  45.0006962  36.7449045  78.0989361  45.7671261
  38.1151628  77.6420975  45.3147173   9.5857625  34.5392316   9.1841602
   9.1366009  35.3635399   9.3712235   8.8911299  33.8807099   9.1925240
  26.4018016   2.8540032   5.9157658  26.6267924   2.2990697   6.6625309
  25.8121400   2.3164933   5.3869820 100.5324985  27.0538418  16.8470001
 101.0843898  26.2725585  16.8823814 101.1515810  27.7834408  16.8214035
  50.3144979  91.4488411  52.2561502  50.1294565  91.3560772  51.3215971
  49.9081755  92.2806931  52.4993467  85.7404222  30.9148972  17.1724987
  85.7693948  31.1337082  16.2410927  84.8163797  30.9955876  17.4088573
  16.0891299  53.8967316   1.7102718  16.3133673  54.5325558   1.0307980
  16.2338357  54.3642323   2.5329113 106.9599916  40.2518361  21.3469601
 106.8571426  39.6643822  20.5982685 107.2147180  39.6773331  22.0689678
  23.4084325  25.2478688  27.0975018  23.7744240  24.4029563  27.3590374
  22.5320153  25.2586644  27.4822330  13.2316785  56.3998788  25.7169247
  12.4232249  56.3842671  26.2291622  13.4682326  57.3262398  25.6709290
  36.4997864  36.1113310  69.5784569  37.3044753  36.2710047  70.0716257
  36.7587209  35.4998326  68.8890743  39.2168574  10.6486361  30.5036068
  39.2917494   9.7662537  30.1402569  40.1218180  10.9439700  30.6038857
  54.9402857  93.0153084  52.8490829  54.1612530  93.1951332  52.3227644
  54.9360752  92.0653248  52.9663277  27.9954390  46.8770020   7.5427246
  28.3557610  46.4172833   8.3010483  28.4157996  46.4623826   6.7893124
  93.5363818   4.8431987  89.6830368  94.0043164   5.2201385  90.4281425
  94.1477299   4.9233359  88.9508724  62.8725624 102.5765991  74.7484827
  63.4688759 103.2277584  74.3788338  62.8220034 101.8920803  74.0813208
  31.1009383  82.0463943  74.1120291  31.1273885  82.8376198  73.5739803
  31.1993408  81.3282394  73.4868813  18.9283137  13.4704201  10.5829144
  19.0150599  12.6708071  10.0639439  18.0180363  13.4662764  10.8788967
 109.2400790  76.4279317   2.9707146 109.7846556  75.6678341   2.7659702
 109.8527051  77.0736097   3.3228779  57.5247431  63.1638336  90.4465294
  56.9338322  62.5718260  90.9119225  58.3714151  63.0441666  90.8767128
   4.2977194  45.2283948  21.2516499   4.3732218  44.9139302  22.1525669
   3.7417512  46.0050099  21.3148499 110.9719659  60.8391331  18.1385040
 111.6334630  61.2188654  18.7168312 110.8506919  61.4938878  17.4508858
   0.3471212  56.0310738  20.9104824   0.8499055  56.8419354  20.8333302
   0.4710822  55.7579606  21.8194771 103.4723854  60.4769087  84.3019104
 104.2375183  59.9230671  84.1467571 103.5151482  60.6886959  85.2344036
   1.9686083  12.7497141  10.6169033   1.8719940  11.8165057  10.4271317
   1.0925083  13.0328553  10.8786488  54.6204376  73.6674356  77.9807711
  55.3139496  73.7070513  78.6393356  55.0222301  73.2192659  77.2364998
  43.1703472  46.7879057  81.9137192  43.9123011  47.3926735  81.9151115
  43.0474091  46.5575171  82.8346062 109.0758397  50.0466626  20.4637051
 108.5577370  50.4825299  21.1403275 109.0152194  49.1157525  20.6781292
  26.0624790  93.8755608  75.2690220  26.3615465  93.7727261  74.3655729
  25.3288889  94.4876385  75.2102709   9.6069436  29.4746201   0.3432083
  10.0541930  28.9181893   0.9808445   9.9285464  29.1719620  -0.5060291
 109.0066077   9.8479025   1.5267181 109.1951443   9.0582698   1.0196018
 108.2114054   9.6347659   2.0150375   3.3558899  79.7431421  90.1576710
   2.8068581  80.4795361  89.8883820   2.7871162  78.9776611  90.0753975
  95.7962920  25.4073231  29.3103218  95.3461958  25.8975594  28.6223507
  96.7225386  25.6133406  29.1843891   5.0188498  35.1636212  39.6254444
   4.4974808  34.6429722  39.0144348   4.4888072  35.2003472  40.4216480
   2.0998387  34.6060746   4.2391682   2.8954844  34.1658871   3.9401531
   2.3882918  35.1508134   4.9714947  66.4908577  22.6589863   1.0795879
  65.6163801  22.2920888   0.9495544  67.0552690  21.8955128   1.2011719
  67.6846743  92.7925396  84.7937393  68.1432724  92.9785728  85.6130695
  66.7643213  92.9686642  84.9890709   9.8294024  52.2655575  32.3423862
   9.0332751  51.9992821  31.8824863   9.5250086  52.5458329  33.2055378
  73.1155920  53.8717985  80.8208275  72.6346350  54.1558027  81.5981579
  72.6144648  54.2262506  80.0863361  13.8967089   9.9094336  40.7640076
  14.1374116  10.8331149  40.8354950  13.1069951   9.8256724  41.2983894
   0.6426959  53.6027138  19.6266651   0.2392893  54.2655747  20.1871204
   1.0289030  54.1009228  18.9063454   6.8897442  73.8161843   5.1193905
   6.5689330  74.6267693   4.7240925   7.2096066  73.2993310   4.3799400
  71.8081117   8.9339274  73.5588837  71.0135890   8.9775199  74.0909243
  71.5408159   9.2654914  72.7016449  82.2346402  30.7447547  42.4737310
  82.3804904  30.1333255  41.7518473  82.5617600  31.5830440  42.1473885
  47.7762318  85.8257103  59.5824671  47.4923468  86.3311958  58.8208103
  48.6564636  85.5254078  59.3560886  71.1988640  90.5458641  77.6502180
  70.5647039  91.2616730  77.6915264  71.0609007  90.0565529  78.4612465
   4.8927836  38.9364903  13.6438179   4.3015151  38.2199280  13.4132385
   5.4098181  38.5950272  14.3734169  63.6741829  71.9930363  88.8759041
  64.2095184  72.2936201  88.1415367  63.0212021  71.4181137  88.4767628
  27.1535258  85.8038418  23.7057877  27.2891955  85.7340996  22.7608204
  26.7631011  86.6691392  23.8284874   6.0761170  48.7072747  17.0713615
   6.8744235  49.2152016  17.2161007   5.4206614  49.1273968  17.6282406
  64.3431906  51.5961068   9.4152069  64.7773223  52.0131295  10.1594257
  63.5178332  51.2682622   9.7723198  90.5017938  38.0496304  14.0475082
  90.0061859  37.7933495  14.8252773  89.8905052  37.9237836  13.3217525
 110.1198865  41.9537181  88.9348984 110.6704951  41.7007751  89.6758938
 110.7222081  42.3750228  88.3217525   4.1109042  27.6869099   4.8239994
   4.7489743  27.5032895   4.1345215   4.6391158  27.8086083   5.6129265
  63.8611174  85.7990456  88.7461853  63.3381510  85.7277775  89.5447159
  64.4217682  85.0232983  88.7570190  30.5216746  40.3779023   0.2943516
  29.9077515  40.7456677   0.9300232  31.3807540  40.6813614   0.5878162
  66.7450333 103.2965755  86.1880875  66.9108868 103.9951611  85.5550766
  66.2328243 102.6499844  85.7024956  71.0069561 102.4419212  67.9182482
  71.1165047 102.1752930  67.0054865  71.4158106 103.3060932  67.9660606
  12.6119094  29.8639577  29.8618317  13.2117371  29.6494572  29.1473866
  11.7586188  29.9573796  29.4382668  76.6134262  85.1394749  81.9149494
  77.1192217  85.6638718  81.2941360  76.0236931  85.7665825  82.3334885
  82.9278755  99.9790859  77.2717571  83.6122322 100.2774715  76.6727161
  82.1816349 100.5489922  77.0858240  17.7296738  38.4424489  16.7468643
  18.3725075  39.1437810  16.6414070  18.0672841  37.7254002  16.2101269
   0.2502397  17.9397792  76.3677645   0.2574495  18.2149333  75.4509878
   1.1047892  18.2083529  76.7051649  47.3000097  87.2592926  82.4983692
  46.5023851  86.9438553  82.0734787  47.2831440  86.8582535  83.3673382
 101.6942073   0.5770034  88.8799000 100.8274747   0.3494185  88.5434341
 101.9239760  -0.1486855  89.4602489  21.4225344  40.8016770  11.1957359
  22.0418648  41.5230553  11.3064766  21.9584374  40.0712102  10.8867645
  22.7102523  10.4364102   8.1490135  22.3999076   9.5578902   8.3683872
  21.9119458  10.9566395   8.0579376  18.4975199  51.5823929   0.9543037
  17.6616625  51.9250291   1.2707996  18.3198456  51.3119977   0.0534439
  65.2674770  70.9861851  66.5624857  66.0807419  71.4791298  66.6712666
  65.5527210  70.0928211  66.3707256  50.8842945 102.5321674  66.2489700
  49.9675798 102.5912952  65.9799528  51.3787651 102.6081181  65.4329062
  97.2464444  36.7778676  11.1320686  97.3228456  37.2477524  11.9624901
  96.4345814  37.1056550  10.7452011  73.0898857  84.6180058  91.3086414
  73.9353418  84.9805069  91.0439968  73.0289268  83.7856102  90.8400059
  15.1219659  30.1435368  22.9997444  14.6631627  29.5776646  22.3788357
  14.8055510  29.8629944  23.8584614  98.3956434  44.0385525   9.3496799
  98.3544065  43.2071869   8.8770676  98.6186983  44.6843522   8.6792851
  33.3058123  41.1342423   0.4193211  33.5663418  40.6198399  -0.3447056
  32.9474787  41.9426720   0.0529099  98.8683011  17.3828023   8.3770561
  99.5998098  16.7902415   8.5502625  98.1246664  16.8032973   8.2114887
  80.6134129  69.6952248  88.8580227  81.0313892  70.5551195  88.9038849
  81.0188007  69.2719221  88.1012535  81.3907690  46.4910786  11.0885715
  81.1955805  47.2785084  10.5805492  82.2901656  46.6177743  11.3906765
  70.3910637  58.2544422  88.2990742  70.5291033  57.3375416  88.0614376
  69.4727373  58.2971287  88.5656834  95.6845856  37.3483962  57.7183056
  95.6242228  37.4175662  58.6710930  94.9106313  37.8096980  57.3951626
  31.8019871  52.4160283   9.0764141  31.8417554  52.4582284  10.0318527
  32.5947528  52.8655045   8.7836170  10.3185833  85.0596333  66.2160397
  11.0674620  85.6547070  66.2521458  10.4898393  84.4170761  66.9045258
  26.1915736  38.6217969   0.5301762  26.3366990  39.2811196  -0.1484013
  27.0698647  38.3962147   0.8366871 103.0779315  41.8004887  12.0227814
 103.7574460  41.5754788  11.3872814 102.8502013  42.7075665  11.8188572
  97.3179914  52.9901593  14.2766476  97.3320200  53.6812680  14.9387550
  98.0077578  53.2352917  13.6599064  56.9565535  68.4992313  72.7808714
  56.4946318  67.7110147  72.4952555  57.8706264  68.3395529  72.5459146
  99.8147608   3.7222474   3.4952927 100.2520062   4.5133059   3.8103676
  99.7602679   3.8402693   2.5469589  32.1340136  30.7873814  32.9924870
  31.8038945  31.5081017  32.4559975  31.6190581  30.8330720  33.7980652
  13.2810597  42.8947156  20.7365704  13.3036999  42.6731866  19.8056316
  14.0411429  43.4618657  20.8663654  22.1903901  59.1737740  26.5172577
  21.4275365  59.6135895  26.1419678  22.2545294  58.3505719  26.0330582
   2.7699284  37.4639695  37.7747726   2.2791009  36.6901868  37.4980259
   2.1830754  38.1978028  37.5922203   9.1203122  21.9244092   9.0963078
  10.0284772  22.1882861   9.2440987   8.7379508  22.6488631   8.6011314
  22.8173785  18.5166924   6.5019226  23.6216311  18.5334008   7.0207024
  23.0279498  17.9611104   5.7514477  12.3418431  34.6253388  33.6204433
  12.2615962  35.5773823  33.5620785  11.8409066  34.3901818  34.4014645
  24.5390701  74.6356535  81.3435268  24.6871591  74.8351097  82.2679234
  25.1270103  75.2271175  80.8737087   3.8375429  12.6088828  83.7570858
   3.2140974  13.0374354  83.1706715   3.7155441  13.0481357  84.5987511
 104.1283942  70.8808993   6.3357544 103.3271170  71.1682068   6.7735195
 103.9576054  71.0248386   5.4049778  35.0773005  38.2059090  30.1362038
  34.2070775  38.5423558  29.9223232  34.9094252  37.3894684  30.6068230
  65.3447819  82.9940701  77.4848652  65.9937429  82.6013470  78.0686951
  64.7613049  82.2710991  77.2544336   0.5580953   9.2998237  75.7995749
   0.3487781   9.7932357  75.0064993   1.3210253   8.7737388  75.5599880
  17.6764063  45.8195775  19.7549915  18.2509379  45.7735627  20.5192089
  18.2674794  45.9856122  19.0206242  53.4785557  97.4802685  61.2510872
  54.2068291  97.6689148  60.6592607  52.6970673  97.7209759  60.7535315
  41.2670092  21.0007708  40.4815483  42.0963053  20.5246108  40.4395103
  41.0202078  20.9708111  41.4059067 100.3223754  35.8740062  73.9079142
  99.7379399  36.1157340  73.1894207 101.1796761  35.7706660  73.4948874
  31.0725360  54.8704808  23.7324142  31.8257193  54.2800324  23.7503433
  31.3684277  55.6504624  24.2017841 101.3821770  13.2521050   8.2647800
 102.2695424  12.9954760   8.0138779 101.3289644  13.0485003   9.1985607
  53.2427168  80.2350807  77.9297400  53.2794476  81.1175632  78.2986593
  53.0727386  79.6679401  78.6818647  95.2900649  34.9185771  75.8944750
  94.9484397  34.1601295  75.4208946  95.3933860  34.6118373  76.7952919
  90.0149250  74.2020988  84.1849613  89.6283245  74.9944401  83.8121796
  89.9312305  74.3172550  85.1315117  57.0178127  88.0272198  85.4594707
  56.6144276  88.4835911  84.7210789  56.6037273  87.1642208  85.4627800
  32.9071569 100.5646038  86.8213272  32.0993638 101.0050297  86.5572548
  32.6569295 100.0418854  87.5831509  32.1265273  42.0794194   8.3102989
  31.9717936  41.1362546   8.3624744  32.5082116  42.2118752   7.4425411
  88.6035538  48.0511141  64.9969769  88.8831520  48.0050516  65.9112740
  87.7555180  47.6074171  64.9832010   4.5236115  51.5558426  13.8284206
   4.3706946  50.6272404  13.6536217   5.0719218  51.5647500  14.6129704
  39.3017983  85.6230545  66.1709785  39.0421081  85.1548862  65.3774929
  39.2981982  84.9542046  66.8557119  51.9805007  83.5224335  12.0356655
  52.6119570  84.0642350  11.5624332  51.1585669  83.6415761  11.5597916
  18.5950427  16.3930552  48.0265808  19.1429763  17.1596139  48.1950665
  17.6989560  16.7284958  48.0538845 111.2601234  41.3653271  16.8685627
 111.6378714  42.1376221  16.4477348 110.3611042  41.6208260  17.0752430
  75.7617283  63.2705212  78.2782125  76.0042858  63.4541273  79.1857862
  75.5747557  64.1304302  77.9016113  13.3186297  67.9821580   1.4190388
  14.0094523  67.4854367   1.8575192  13.7260537  68.8214867   1.2051010
  28.8538317  38.1867306   0.2449512  28.8738207  38.0002301   1.1835861
  29.4307904  38.9430802   0.1386929   7.7029471  19.2265599  17.0238876
   8.1157164  20.0624220  17.2411060   7.6975064  18.7406533  17.8485680
  73.2746626  23.2302207  73.3736420  73.7699915  23.7494487  74.0071154
  72.7232171  22.6605052  73.9098930  48.2765102  98.9748192  80.2573299
  47.9984903  98.3876610  80.9603119  48.5316372  99.7811604  80.7056046
 105.6170966  31.5541546  24.4954014 106.2308837  30.8718960  24.2233372
 105.1164223  31.1558430  25.2073765  48.4634590  84.0888882  84.9735165
  48.2475185  83.4440041  85.6471062  48.0239582  84.8898411  85.2590847
  59.5569349   8.7228316  77.3648357  59.3685389   8.0266971  76.7354488
  60.4664469   8.5728377  77.6227522  14.0975146  41.0543053  11.9325256
  15.0087552  41.2662881  11.7302132  14.0930562  40.8923237  12.8759098
  -0.0156708  62.7314084  58.2491398  -0.4525848  62.7857487  57.3992062
   0.6675462  63.4006970  58.2104492  17.2172980  40.3417866  27.7451897
  16.9017367  40.5545991  28.6234665  17.0696931  41.1398594  27.2377396
  11.4040332  40.6972497  -0.0480270  11.3641696  40.3676694   0.8497620
  10.4881243  40.7825940  -0.3127289 100.1761199  25.8170216  13.9193630
 100.1042344  25.2129834  13.1803131 101.0519363  25.6603806  14.2724037
  32.8537612  17.9599755   1.5432835  32.9510121  18.0798190   2.4879551
  31.9172482  18.0752652   1.3823795  28.2007241 104.4469738  73.5661507
  28.7887144 104.8660564  74.1945314  27.6367903 103.8886261  74.1013718
  28.8833165  74.5393133  75.5818892  28.4244633  75.2171612  76.0780811
  28.8144207  73.7554741  76.1269474  64.6234417  97.9497814  90.7918072
  63.8873863  97.3400402  90.8434677  64.3238544  98.7273407  91.2628460
  18.5059476 103.7598133  63.3910465  18.0168879 102.9698849  63.1606913
  18.4124565 103.8308907  64.3410158  14.2478327  78.2087796  27.1249485
  14.5232396  77.5082295  27.7162361  14.4848399  77.8931801  26.2529087
   5.8330921   3.8239306  89.5176315   6.6014484   4.1750545  89.0675545
   5.1083616   4.3727225  89.2179108  61.0503101  87.9223728  91.1606121
  61.2063789  88.6029148  90.5058289  61.4638519  88.2564926  91.9565868
  51.4731073  92.8248501  84.2469692  51.3930082  93.7492561  84.4821167
  52.3708725  92.7360153  83.9270401  21.0456419  87.8100967  51.3333988
  20.6944561  88.1975842  50.5316782  21.1532807  86.8823528  51.1238146
  10.1901250  48.6413949   8.4608746  10.5907397  47.7946656   8.6578465
  10.9303717  49.2193596   8.2758904  10.5337290  37.8954117  16.1265469
  11.3478570  38.0552666  15.6491852  10.7654290  38.0267232  17.0459557
  66.9987512  10.5408591  79.4068861  67.6015545  10.4252166  80.1413822
  66.9255472  11.4897174  79.3042183  81.6450930  30.7951850  86.6679573
  81.1373330  30.8337516  85.8574486  82.5347090  30.5856246  86.3835335
  72.3012066 104.5473480  89.8217869  73.0101490 104.0058041  89.4748497
  71.7179489 103.9270020  90.2590656  27.0727114  42.8253453   6.3401127
  26.7856793  42.6386922   5.4462433  27.8575902  43.3625500   6.2323856
   3.2774167  67.8045838   8.3475399   3.2649951  67.2552292   9.1313076
   2.5470357  67.4837201   7.8185654 104.0287711  44.8348420   2.4025249
 104.1699769  45.5930989   2.9693890 104.0207507  44.0871899   3.0001736
  25.6223512  70.7019472  77.6455498  26.4630771  70.4990959  78.0557537
  25.3545904  69.8822355  77.2300863  55.3438906  63.2242386   1.9083691
  56.2427954  63.2554906   1.5809250  54.9847560  64.0879052   1.7050648
  46.2285566  79.6838188  77.3976278  47.0918131  79.9137783  77.7413464
  45.8938789  80.4996777  77.0253420  14.2892265  83.8155270  89.2778492
  13.9415610  83.8464355  90.1691341  15.1239097  83.3546352  89.3621826
 101.7654778  50.5536740   4.1383266 102.4490501  49.8856633   4.1905212
 100.9995033  50.1445096   4.5409393   2.8157811  56.3689129  15.0219345
   3.1987862  57.1392148  15.4416847   3.1246380  56.4108842  14.1169071
  27.4456505  68.2076352  26.8072891  27.7519278  67.4448006  27.2977161
  27.7301983  68.9579194  27.3291588 100.9825660   0.6539649  78.7942171
 101.0720111   1.0126227  77.9112673 101.8339110   0.2573508  78.9790058
  10.3798918  43.6316006  22.8954411   9.4437127  43.6521905  23.0938530
  10.4412751  43.9537995  21.9961834  71.3017988  88.4412575  83.2544136
  70.7896709  89.2293262  83.4358215  72.2127581  88.7310505  83.3034325
   5.0819735  46.9953339  15.2226257   5.2884106  47.6022904  15.9334183
   5.2015690  46.1268704  15.6069469   4.1668229  84.4844906  20.1452923
   4.8473887  85.1185315  19.9193573   3.3638816  84.8537533  19.7776508
  48.7819624  95.1739693  83.7014198  49.6758175  95.0327110  84.0133476
  48.8473415  95.1071262  82.7488041  30.8962159  44.1169541  38.0485344
  31.0645489  45.0314705  37.8214550  30.2022652  44.1573994  38.7065792
  97.9520394  11.6199916   2.3387241  97.6974131  12.2901051   2.9730225
  97.9083468  12.0632498   1.4914608   2.9902081  41.6876881   4.3482494
   2.6394467  42.3813431   3.7896538   3.3710150  41.0573285   3.7368011
  64.9464703  99.6559715  65.7808590  64.4532967  98.8364315  65.7438660
  64.9591017  99.8861790  66.7098761  43.5167885  95.7608509  83.9155960
  44.3566895  96.1441803  83.6628914  43.6773825  95.3800678  84.7789860
 107.8109837  74.4964933  73.2063675 108.6771870  74.7068644  72.8575611
 107.6016903  73.6422253  72.8286695  24.6284509  70.0771141  90.0070477
  25.0071740  69.6071815  90.7499886  24.6015358  70.9910536  90.2902794
 104.6231605  25.9534543  29.7588158 105.4830910  25.6965439  29.4260216
 104.7761871  26.7907088  30.1967812  27.9225926  49.8034947  20.8821201
  28.3201794  49.0160458  20.5105209  28.5330205  50.5069916  20.6614304
  15.4442267  47.8673260  33.6554623  14.5083384  47.8904240  33.8550091
  15.6756310  48.7805741  33.4861660 101.0838032  94.2619038  68.4950876
 101.7804813  94.5880508  67.9254389 101.5027905  94.1556454  69.3491316
   3.8536172  17.1257727   9.4299793   4.5519499  16.4950316   9.6052933
   3.7905888  17.6426928  10.2331352  65.9431982  73.9710855  71.9183207
  65.8447218  73.4633160  71.1128998  66.4982271  74.7100830  71.6692114
  10.3251509  48.8974755   2.0110035  10.0641970  49.7584717   2.3378468
  10.9181170  49.0869515   1.2838745  31.7488675  15.9591382  21.0487175
  31.3091330  15.6317084  21.8333530  31.1743598  15.7024138  20.3274250
  79.8241330  12.9005927  74.3150711  79.6549512  13.0297107  75.2483130
  80.4341889  12.1637267  74.2819500 109.3786313  35.5112260   2.1871090
 109.0869619  36.1820405   1.5697193 109.0297390  35.7953351   3.0319691
  22.0792632  73.3011239  23.9897728  22.5979666  72.8319829  23.3362579
  22.5565104  74.1184800  24.1326237  93.1972064   0.8811228  23.8918686
  93.1413795   1.7654746  24.2538548  93.7697817   0.9698956  23.1299591
  80.9875488  61.9884539  87.2147751  80.4250717  61.2141371  87.2318363
  80.6399441  62.5522566  87.9058170  30.6036377  47.4565744  89.0222549
  30.7300019  48.3936310  89.1712189  30.6790566  47.3525238  88.0737209
   0.1302557  18.1627743  27.5440216   0.6213050  17.5097602  28.0426979
   0.1708655  17.8533642  26.6391182  24.7751336  48.6299794   1.5986252
  24.5105796  48.5278027   0.6843948  24.2047314  49.3200200   1.9373322
 102.7662374  38.4445565  12.6837730 103.6180474  38.8328068  12.8835583
 102.8465606  38.1435673  11.7786884 100.0911808  60.0893974  88.7776661
  99.8599339  60.7889843  89.3886757 100.2517033  59.3279505  89.3350315
  96.5402318  24.1487426  74.9803591  96.3211489  24.4412345  75.8650494
  97.3457814  24.6189040  74.7652578  97.8237201  51.4488213  11.0280991
  98.3091952  51.7502015  10.2601719  98.4975697  51.1230939  11.6248131
  72.7947855  92.6184750  83.1337738  72.4372339  93.4281349  83.4982395
  72.0760727  91.9894409  83.1970596 105.4477550  24.8968785  21.6790676
 106.1278702  25.3223174  22.2012520 104.6867181  25.4713099  21.7632294
   5.2051549   1.5431540  28.1608582   6.1520056   1.6458171  28.2566261
   4.9919133   2.0232003  27.3606682 109.8974658  23.0373973  61.2019157
 110.0948191  22.1164149  61.3724327 109.1520262  23.0154914  60.6018591
  37.8850198 101.9550991  89.0832615  38.7005115 101.5719128  88.7602043
  38.1571865 102.7581406  89.5274258  35.8358292  52.1796124  21.1131573
  35.5238919  52.9933541  20.7172394  36.6785960  52.0151322  20.6901741
  51.2347174  96.4328098  40.9179401  52.1156073  96.6832447  40.6394672
  50.7206440  97.2362423  40.8376169  68.2412910  70.6164742  59.0369177
  68.6832094  71.1865520  58.4076738  68.5191202  69.7327900  58.7957811
  48.1895976  64.4557946  11.5802383  47.5981288  64.7945016  10.9081650
  49.0128855  64.9207776  11.4311504 109.2216851  25.0713437  13.6554146
 108.7876083  25.8107512  14.0809536 109.2666747  24.3973725  14.3336201
  27.0753741  94.3047333  83.5598373  27.0386720  95.2262688  83.8160515
  26.4630008  93.8671398  84.1512299  47.7008152  84.5200062  90.0708866
  47.7167702  83.9007854  90.8006382  47.4750900  83.9864540  89.3089199
  31.9966797  48.3290856  10.5489540  32.6086096  47.6258271  10.7661915
  32.1987776  48.5501092   9.6398163  56.7150263  31.1477368   6.0949993
  56.9467692  31.3266270   7.0063305  56.0587458  30.4528611   6.1467266
 109.0982462  28.7188428  11.0341263 109.1220213  29.4344037  11.6694641
 109.6398093  28.0332558  11.4251709  59.6523762  92.9662991  84.9923325
  59.5817327  93.7847519  84.5010281  60.4566717  92.5610161  84.6681595
  14.5554213  39.9825947  34.3637753  13.6697011  40.0609391  34.0093803
  14.6508364  40.7410329  34.9398804  56.0933304  67.9721880  58.5482454
  55.8830023  67.0488071  58.6873913  55.2765369  68.3589983  58.2328796
   4.1958956  58.4685032  16.8357944   5.0829272  58.2124131  16.5831661
   4.1201119  59.3799203  16.5533066  28.7719016  35.5982583  29.5174694
  29.6830229  35.8915513  29.5092297  28.4855704  35.7314580  30.4210758
  63.8754129  89.1307735  80.3478527  62.9305363  88.9902782  80.2870274
  64.1397810  88.6460876  81.1297798  90.6556702  97.6251148  32.6095963
  90.4449416  97.9923271  31.7511272  91.4155198  97.0651315  32.4505997
  92.0264339  65.6558084  90.5031967  91.2346840  66.0477972  90.1348209
  91.7252922  65.2029467  91.2908936  12.1666340  51.4888470   9.6349716
  11.8110947  51.2371438   8.7826443  12.5595288  52.3488991   9.4860744
  60.1130581 103.5549259  75.9061193  59.5124865 102.8363037  75.7082891
  60.8007288 103.4814262  75.2443504  86.6514660  33.9499562  10.4119682
  86.3555933  33.9951699  11.3211632  86.3459231  33.0971425  10.1027870
  94.0438463  51.7343896  24.8015594  94.9408986  51.9275468  24.5291233
  93.5129036  52.4031251  24.3689728  61.4726734  60.1184225  90.1841354
  60.5588484  59.9713659  90.4281235  61.9719315  59.5534897  90.7739067
  85.6754971  77.0502090  79.1726875  85.1533031  77.3279619  79.9252748
  85.2890778  77.5129080  78.4291649  78.9211273  74.8680305  83.3876419
  79.0774393  74.5511770  82.4980354  79.3934155  74.2520237  83.9477444
  94.6247102  63.2378762  13.2211304  93.8626374  62.7952855  13.5947418
  94.2546739  63.9038651  12.6416683   6.1015419   2.8098697  86.0451126
   6.5518097   3.6523742  85.9844398   6.2664513   2.3888606  85.2014446
  25.2704100  51.8223279   4.5207405  25.2853636  51.7805283   5.4769039
  24.5201115  52.3807328   4.3171120  32.5406651  58.1684868   4.3627167
  32.7402978  59.0153401   4.7617340  32.4780230  58.3540146   3.4257603
  33.9931302   5.5099337   3.4983826  33.0821709   5.2390473   3.6123943
  33.9425044   6.4468901   3.3092117 109.1320706   9.3512839  88.3686447
 108.7519456   9.3323821  89.2469311 110.0505591   9.5806426  88.5100746
 110.7214118  31.4964383   6.4668655 111.3881065  31.8504708   5.8782959
 111.1703087  31.3998025   7.3067379  32.4121857  98.5041428  69.5432377
  31.7406106  97.8321075  69.4266844  32.7738762  98.3330345  70.4127979
  46.2505913  90.9541321  78.1382751  46.5003824  90.9830856  79.0618515
  45.5026197  91.5479374  78.0737257  57.0508862 101.6941452  71.9337702
  56.3228083 101.5046787  71.3419628  57.8217268 101.3489723  71.4833355
  52.9736984  17.9611320  72.2808790  52.6184417  17.4931163  73.0365133
  52.3521674  17.7831286  71.5750122  81.4889909  44.8808688  82.6842880
  80.5447579  44.8075408  82.5454521  81.6106463  45.7594604  83.0441666
  29.9710087  14.4593184   8.0051613  29.5400290  14.9282401   8.7197304
  30.8747344  14.7742837   8.0227089  21.9620995  28.7200348   3.6666298
  22.1978907  29.0444558   2.7975082  22.4120001  27.8781884   3.7382317
   2.8007655  33.4186356  29.3525887   1.9194679  33.7763875  29.2450809
   3.0873208  33.7405388  30.2072811  91.1082936  29.8103827  71.9326878
  90.2451039  30.0284404  71.5811396  90.9272338  29.2155761  72.6604605
  38.8703513  84.8450565  60.3580093  38.8220215  83.8891602  60.3455257
  38.5400915  85.1127911  59.5004082  64.5882679  13.8585681  90.7393742
  64.4844342  13.1048125  91.3201523  65.4120637  13.6953467  90.2800751
  30.8730225 103.9507763  14.3508434  30.7198672 104.0651982  13.4129334
  30.2608876 103.2625096  14.6112728   9.0665059  71.9085877  36.5446091
   8.7301402  71.6444771  37.4009609   9.5754342  71.1554806  36.2445259
   5.5576233  34.9240607  64.2022943   5.8251003  35.2792472  63.3546305
   5.1091246  35.6502837  64.6355247  22.7160363  26.0509389   3.9323711
  22.5189118  25.4639666   3.2024193  23.6692528  26.1372273   3.9196396
  46.7546992  65.9066479   9.5930481  46.2253050  66.3291638  10.2694035
  46.1740069  65.8513157   8.8341236  91.3178254  47.0208758  80.3334904
  90.7557297  47.7947253  80.2954865  92.1290589  47.3335380  80.7339668
  21.5122747  95.9867191  76.2018061  21.0819054  95.6046867  75.4369068
  20.8827424  96.6252041  76.5368462  14.2438941  72.1618359  21.5298557
  14.0461974  72.1261399  22.4657345  14.9840836  71.5652173  21.4184856
 104.6917392   8.5400218  71.9569445 105.2119447   8.8835830  72.6832962
 105.1922990   7.7890414  71.6380215  19.4862752  66.0780709   5.6865215
  20.2546315  65.5612080   5.4442310  19.1042189  65.6066601   6.4268112
 103.0390216  63.1716530  44.7171974 102.5879933  62.4133961  44.3459034
 102.9301240  63.8600533  44.0610981  18.6904864  67.2030442   1.0528183
  18.2592015  68.0196374   0.8010292  19.5430617  67.2388642   0.6191540
   8.0016379  16.3873475  10.9407520   8.0538468  15.9619753  11.7966557
   8.8033538  16.9070189  10.8822536   4.1709809  51.3804619   1.1492634
   4.0432171  52.3100751   1.3382816   5.1101689  51.2387936   1.2679768
  38.5394768  47.3991482  16.8426323  38.5561280  46.4798253  16.5765476
  38.2591872  47.3786252  17.7576447  47.6644282  64.2527669   4.3339825
  48.1410460  63.4984868   4.6805668  47.7484278  64.9219124   5.0132656
  94.3085099  16.8978328  43.9465714  94.3971444  16.8727416  42.9938126
  95.1613856  17.2003097  44.2585802  25.6125975  87.1020031  81.0844040
  26.2027144  87.7963829  80.7914448  24.7843051  87.5491238  81.2583065
 108.1579352  10.1571292  80.1593685 108.9615155  10.5805129  80.4614258
 107.5342370  10.2901572  80.8731842  21.7569165  58.8700478  10.0057983
  22.6856045  58.6386769   9.9902916  21.6310410  59.2989724  10.8522034
  60.7282114  99.9974537  66.7246532  61.4831591 100.2495861  66.1929464
  60.8687210  99.0700722  66.9155788 109.7809411   3.8559646  66.7676401
 110.1064397   4.7227115  66.5246773 110.2822066   3.2501906  66.2217426
  82.8953327  83.9829915  11.8809986  82.5618477  83.1610196  12.2407055
  83.5768916  83.7155526  11.2644005  16.2564234  61.6650384  10.1063919
  15.3317313  61.4675992  10.2553558  16.7157273  60.8630269  10.3554535
  97.5260020  20.4085559  43.8136101  98.4239531  20.6767291  44.0085268
  97.0523358  20.5430717  44.6344519  13.9866833  68.8940613  31.4184570
  13.2879357  68.7663357  32.0600796  14.7361331  69.1886132  31.9359493
  42.3985676  55.9763711  27.3456860  42.2478919  55.1232045  26.9386959
  42.5649027  55.7762902  28.2668400  32.2614479 100.8529377  89.6007347
  32.5027370 101.0414314  90.5076408  32.4943948 101.6476822  89.1207790
 104.1820194  49.4178002   9.2824173 104.0460803  49.4488042   8.3354187
 103.4446312  48.9051335   9.6135712  38.2405333  43.6401837  12.0172977
  38.3733563  43.3339970  11.1201668  38.0128722  42.8508275  12.5085449
  44.1588263  84.6646493  13.8556767  44.2883925  83.7242596  13.9786148
  44.6585898  84.8741524  13.0666351  53.5054541  91.6323853  90.5991745
  52.8349257  92.3114014  90.6737518  53.0408335  90.8750629  90.2430534
   6.8113426  97.1056675   8.1742382   5.8615116  96.9881939   8.1901264
   6.9363502  98.0533098   8.2249928  69.2165137  12.1312922  76.4903164
  69.9977065  12.5861758  76.8050385  69.2469216  11.2770385  76.9210815
  36.0262684  54.8498814  13.8481045  36.5695052  54.2791646  14.3916225
  36.0508542  54.4479745  12.9797077 110.6324531  76.1470025  15.8330154
 109.9375369  75.4932492  15.9100437 111.2070824  75.8061020  15.1475716
  40.1870494  72.9554360  16.9001961  40.4537444  72.2797387  17.5235367
  39.3669371  73.2984631  17.2551250  12.9083447  27.5210087  10.6773663
  12.0317225  27.1800273  10.4998970  13.4351163  27.2256224   9.9347401
  32.7629471  73.6366749  71.9619894  32.9613137  72.7873945  71.5675211
  32.4571013  74.1744423  71.2315798   0.3963379  38.5994739  74.8348475
   1.1155037  38.5121745  74.2092180   0.6385235  39.3519038  75.3746891
  25.8148341  77.4069302  35.7020283  24.9272065  77.5640290  36.0240078
  25.8018260  76.4998047  35.3967571  60.9000353  96.5235131  13.3700943
  61.2128882  96.4089959  14.2674446  61.5501456  96.0735505  12.8305340
  29.1598706  89.8709481  15.3688908  29.5650868  89.6480935  16.2069607
  29.8960833  90.0891392  14.7973824  33.4218645 104.5078468  70.5265093
  33.7214088 104.4687843  69.6182251  34.1474414 104.1440296  71.0338593
  87.2099686   0.9257430  91.0972404  86.5127850   0.9123439  91.7529774
  86.7537118   0.8350867  90.2606678  85.4960252  21.6586417  89.2304230
  84.8047257  22.1933097  89.6208858  86.3000298  21.9608802  89.6528625
  97.6400710  19.9336356  76.9695187  96.9547749  19.5939273  76.3940191
  98.3351994  20.2144355  76.3743925  94.5462990  97.8641796  67.7262259
  94.1526604  98.5733795  67.2179747  95.3583336  97.6594067  67.2626591
  34.9234347  14.3209307  21.7067814  34.0817504  14.5926993  21.3407993
  35.5134301  15.0507252  21.5182781  81.9252682  90.0682259  88.7611485
  82.2943974  89.7728729  87.9288387  82.4499512  90.8330059  88.9978981
  29.9454646  36.2888997  54.4861889  30.0778870  36.1591523  53.5471153
  29.8955731  37.2389214  54.5920277  98.6359812  46.0381978   7.1574211
  97.7128459  45.8719628   7.3482609  98.6230303  46.5980523   6.3811302
  63.2992510  72.9966347   1.9761944  63.5079150  73.8674348   1.6379547
  63.0359034  73.1489747   2.8837585  12.2609714   0.6754607  75.6707573
  11.3161186   0.5222529  75.6734991  12.5444130   0.4081935  74.7964191
  96.4790774  13.1687182  89.4266605  96.7706395  13.2359427  88.5174274
  95.9601546  12.3648185  89.4529724  64.1764025  58.9686864  34.0807533
  64.9628977  58.4667866  33.8668442  64.2605071  59.7745030  33.5710239
  24.5745425  58.9875310   7.9097652  24.7803073  58.4116356   8.6461353
  24.5183234  58.4009831   7.1554184  46.1325984  67.5524228  19.5737457
  45.9419875  66.9023125  18.8975430  47.0874743  67.5557511  19.6404171
  12.6783550  96.7927837  58.0849600  12.7176464  97.5484085  58.6712313
  12.2532511  97.1249485  57.2942734  41.7785840  27.3687260  11.4613342
  41.3658576  28.2084077  11.6633701  42.5833945  27.3665993  11.9795036
  48.1373835  80.6790161  74.1216755  48.2097960  81.6202164  73.9631844
  48.8846731  80.4724693  74.6830463  22.9528336  44.1156476  22.0814610
  22.8620248  43.4659188  22.7784824  23.2411770  44.9101632  22.5307179
  16.4237630  49.1325378  62.4850893  16.0842240  48.3482313  62.9161453
  16.9923306  48.7976170  61.7916965  16.4994991   2.6692751  83.1768322
  17.2336149   2.3329091  82.6628590  16.1016059   3.3366570  82.6177979
   9.6739978  30.9678960  74.0753937   8.7609053  30.8348393  73.8208532
   9.7525084  30.5304074  74.9231386  72.8586222 103.6598013  83.9546871
  72.1304803 103.0387887  83.9350700  72.6668092 104.2303692  84.6989250
  95.8080539  54.0106201  88.1248951  96.0307083  53.0802536  88.0922222
  96.5712413  54.4255686  88.5268784  17.4171542 104.0221797  72.9481173
  16.6793584 104.5062837  72.5772619  17.5034332 104.3623204  73.8386774
   1.7821756  27.1636438  87.4954224   0.9991108  26.6411304  87.3221588
   1.8242851  27.2228098  88.4498596  48.9157105  46.1999129   0.1964855
  49.7026218  46.4443211  -0.2906132  48.5045207  47.0344614   0.4216194
  70.8516622  34.0031897   4.5990562  70.1711703  34.0416084   5.2711296
  71.6683007  34.1496585   5.0764275  20.1528168  18.8048637  80.7891178
  21.1083841  18.8588500  80.8035660  19.9661136  17.8661263  80.7770634
  89.4063159  87.2504443  70.2913284  89.7292396  86.3643533  70.1276350
  90.0748321  87.8224534  69.9143362  52.0666850  65.6062697  17.3838711
  52.5201607  64.7921311  17.6024342  52.7472723  66.2780725  17.4252796
  25.4861069  18.8379180  54.6827698  24.7572660  18.7703025  54.0659618
  25.7688785  17.9337108  54.8194456  61.8470176  96.3687688  78.5511541
  62.2307726  97.0717627  79.0753365  60.9303983  96.3386386  78.8252592
  12.9290248  74.9169992  -0.0554466  12.5262738  74.5983266   0.7523155
  13.6919142  74.3527769  -0.1814842  93.9127526  31.5811753  89.7416210
  93.5988232  32.1307588  89.0235424  93.3695433  31.8305779  90.4892540
  60.9360417  63.2326489  41.1600447  60.7253715  64.1463023  41.3526154
  61.8658157  63.1513291  41.3725042  60.1931859  59.4008963  14.2136288
  59.8549557  60.2781592  14.3931866  60.5214930  59.4499056  13.3158302
   4.7221708  87.7620631  65.6174850   3.9084148  87.2794205  65.7627058
   4.9141549  88.1677621  66.4629316   7.6481342  24.1986680  78.2622576
   7.1009439  24.9814463  78.1984377   7.9806828  24.2114258  79.1597462
 107.8522726  74.1443759  78.8201475 108.7554999  73.9595347  78.5627699
 107.4675580  74.5709401  78.0544662  54.9935886  90.1867252  66.8695402
  54.6792348  91.0704297  67.0605421  55.9336182  90.2234918  67.0462465
   2.2317599  26.1310530  47.0680857   1.9505702  26.0655284  47.9807043
   1.4888093  25.7989812  46.5641165  38.0393982  29.8770905  53.7565899
  37.3745346  29.2466354  54.0335655  38.6036301  29.3840337  53.1609631
  41.1632558  83.4383517  63.3232832  41.5233656  84.0278369  62.6606655
  40.2305432  83.6515456  63.3520412 102.4713156  33.5333943  75.0429773
 102.1583775  33.3496976  74.1572237 102.2468343  32.7491426  75.5437660
  81.3825843  16.9330645  89.3474197  80.8573863  17.6539552  89.6948624
  81.1012432  16.1681426  89.8493862  94.0827140  14.4186938  54.4981194
  93.9292344  15.3512812  54.6496344  93.8465068  14.2830741  53.5804892
   0.1010507  36.5009785  85.6006527   0.7794663  36.1691570  86.1887741
   0.1874409  35.9678483  84.8103809  70.4791713  74.5702814   1.4609146
  70.1083565  74.3695377   2.3202324  70.3598119  73.7665986   0.9548759
  16.3049889  84.0380787  19.9129295  15.8208299  83.4274648  20.4687786
  16.2443639  84.8772024  20.3694630  40.2464504  72.5261723   3.3169174
  40.1061127  72.0711826   4.1472912  41.1937509  72.6559328   3.2720280
  30.4360318  30.5489016  69.1567183  29.7715354  29.9433732  69.4853687
  29.9761558  31.3836122  69.0672398  50.4363347  92.0133375  14.9123859
  50.4984391  92.6757120  14.2241764  49.7407234  91.4257668  14.6172333
   1.1219290  13.4854281  64.0822363   1.7363173  13.3523536  63.3603954
   1.6780144  13.6705792  64.8390198  47.6378930  76.4097785  12.0976543
  47.0585937  75.6879257  12.3417282  48.1650031  76.5690969  12.8806019
  10.6725144   4.1789585  81.0591984  10.6156838   3.2666957  80.7749844
  10.9622800   4.1284308  81.9700813  79.6530398 104.7046255  77.7460814
  79.0893044 105.3866497  77.3810101  79.0469237 104.0236076  78.0377483
 110.2730256  26.7050529  90.9331512 111.0475719  26.1436796  90.9673882
 109.5595330  26.1479950  91.2443542 103.3107563 104.2944624  72.3776865
 103.2668038 105.2113111  72.1062326 104.2221328 104.1659312  72.6405668
 103.2335624  41.4639473  78.2357264 102.6097623  41.2363863  77.5462914
 103.1361839  40.7683039  78.8859797  25.6525636   2.7112493  38.3901668
  26.3482046   3.0580455  38.9487791  25.5128312   3.3915296  37.7314377
 107.0314378  17.0941508  75.1545715 107.7490318  16.5237319  74.8790455
 107.0331985  17.0367682  76.1100483  99.8400602  11.6009665  86.9665241
  99.7292849  12.3713851  87.5236702  99.6880576  11.9238472  86.0783386
  84.5989796  97.4538588  37.3783803  85.1111480  98.2525819  37.5047016
  84.0701004  97.3803180  38.1728053  44.3699308  88.5093146  79.8493052
  43.6220475  89.0458148  80.1121235  44.0069529  87.8825766  79.2234659
  21.9427586   3.9100340  38.0250573  22.5439477   4.5098299  38.4667039
  22.4919844   3.1720322  37.7605987  26.0619736   2.8852710  43.4908485
  26.9892883   2.7332091  43.6730480  25.8249664   2.1995258  42.8664970
  10.6762838   6.0599834  77.2312641  11.2337196   5.8264971  77.9735470
  10.4101849   6.9626617  77.4061775   6.3151306  23.8286948  81.0485935
   5.9771615  23.0676317  81.5206051   5.6731230  23.9856005  80.3561783
  36.7271805  37.2131610  84.1718102  37.6797032  37.1438956  84.1074944
  36.5605497  37.3683143  85.1015377  36.4860320   3.9344668  58.1245422
  36.0437322   4.7822303  58.1681252  36.0647368   3.4818003  57.3939037
  16.0496951  77.8782462   5.6207466  16.6195870  77.3515605   5.0603390
  15.6421448  77.2444581   6.2110424  59.6533013  81.7090009  27.4795818
  60.5148125  81.8186186  27.0770645  59.6558619  80.8106326  27.8099728
  20.0042272  56.1111190   2.5244904  20.8288360  56.3614239   2.1078396
  19.8890365  55.1894827   2.2930813  17.0158124  54.7948265  65.2153778
  16.2056899  54.4674921  65.6062555  16.8834960  54.6967220  64.2724562
  15.7407403   2.7128571  59.8924828  15.2648926   3.3269274  59.3332720
  16.4414799   3.2364485  60.2811337  57.6846075  22.8093576  75.2263737
  57.0782518  22.1042037  75.4529285  57.1414709  23.5974431  75.2137089
  21.0607100  45.9987307  84.6977901  20.1965499  45.8306408  85.0735664
  21.6499901  46.0188246  85.4518318  13.2270384   6.5017247  56.6809893
  13.2256770   6.1262679  55.8004999  13.2912886   7.4460882  56.5385771
  49.8116804  94.1784166  31.3129425  50.5412472  94.6542095  31.7099190
  49.9757863  94.2305397  30.3713608 108.3708629  11.2225008  83.2883644
 108.8903829  10.4347301  83.1279087 108.3655256  11.3159668  84.2409801
  73.6196519  93.6799120   7.8518677  73.6165190  94.0050529   6.9515800
  73.7453032  94.4623922   8.3886814  27.0426631  16.3724732  90.3796387
  27.2134423  16.7745388  91.2313461  27.4174714  16.9845915  89.7463512
  96.3352153  22.0151734  73.4400320  97.2424874  21.7103624  73.4266376
  96.3469669  22.7768159  74.0196800  16.1875665  31.7362666  87.7807236
  15.8869910  32.6425219  87.8484344  15.6766427  31.3676763  87.0600796
  23.5595584  22.5804329  46.0342121  22.6046705  22.5339961  46.0818052
  23.7746334  22.2152448  45.1759529  84.2534400  76.2624739  22.8940773
  85.0346900  76.7348121  22.6063538  84.5643950  75.3767298  23.0811405
 103.0011114  20.0678968  88.8024426 103.7009230  20.2127647  88.1656456
 102.3197171  19.6106637  88.3096123  54.0346070 100.1222062  68.1034899
  54.3463775  99.8704660  67.2342062  53.1289240  99.8137074  68.1317425
  67.9032803  78.0320524  13.4359455  68.1386710  78.8950871  13.7765217
  68.7387872  77.6366399  13.1873322  34.3683932 102.4016355  12.7772999
  34.0373016 101.9549965  13.5564804  35.0082657 101.7938779  12.4065876
  54.4854498  27.1520185  68.3835983  54.3844080  26.9830966  67.4468565
  55.4311514  27.2225595  68.5136127  60.8820296  89.0718125  12.2062683
  60.2721906  89.2547105  12.9210281  61.7035509  89.4780563  12.4825001
  82.1574546  59.3106215   8.6758327  82.9997159  58.9205562   8.9096546
  81.8089724  58.7368648   7.9934883  22.3661757  39.2268229  84.0495872
  23.2603359  39.5648193  83.9998722  22.2480488  38.7409878  83.2333469
  28.8254596  78.2405423   4.3899536  27.8789503  78.3743738   4.3405437
  28.9632756  77.3669647   4.0237522  70.6234122 101.1198114  19.7925949
  70.4447795 101.8017458  19.1450691  69.9096442 101.1977075  20.4256058
  61.3624240  75.7208918   5.6013489  60.5421663  75.4937934   5.1633549
  61.6794611  76.4920496   5.1312065  82.3785306  71.1192022   8.8101482
  82.4615813  71.7177509   9.5524883  81.4679194  71.2104403   8.5296249
  53.6494684  28.0731177  63.3660603  53.8632441  28.6809134  64.0739536
  53.9116859  28.5327125  62.5684071  42.2207308  56.3309002  70.9134531
  41.9900799  55.4087067  70.8012486  41.4360332  56.8085003  70.6444168
  60.3349210  64.8588239   5.3053665  60.3567887  64.7605394   6.2572575
  61.1897541  65.2276467   5.0829601  61.3281751  63.7554740  13.5940933
  60.7349754  63.0945419  13.9511776  60.8693219  64.5851813  13.7255096
  57.3403764  60.3453468   0.6628895  56.4070810  60.3548263   0.8752632
  57.4337817  60.9936653  -0.0351048   0.8826055  43.6942816  41.6622543
   0.0149593  44.0039873  41.9220638   0.8104531  43.5424042  40.7199383
  62.9842158  95.5797535  53.6337948  62.5376102  96.1697739  53.0266285
  63.7245496  95.2366274  53.1333923  36.8036795  56.9299173  75.3312492
  37.5949073  56.4368629  75.1142550  36.2546062  56.3052368  75.8050871
  96.4366623  99.0773231  88.7801361  96.7620274  99.3239361  87.9143715
  97.1169635  99.3733692  89.3849373  60.5288216  33.1785893  72.2761822
  60.7693812  32.2526479  72.2446012  60.0264546  33.3230186  71.4743137
  34.8580044  47.4277644  17.8833580  33.9323062  47.5857131  18.0687428
  35.3159697  47.7483292  18.6603642  86.7590571  74.7824095  10.5730248
  87.0107651  74.8736547   9.6540260  86.6729642  75.6821083  10.8882427
  28.6999106   8.4331912  28.4985971  28.7923646   8.8117546  29.3728828
  28.2351160   7.6088715  28.6424494  12.0470595  36.5628958  68.3331013
  12.3042417  37.3268986  68.8492298  11.1164820  36.6972876  68.1536722
  86.6518399  57.2402573  56.5992785  86.4650509  56.3026381  56.6463089
  86.6324541  57.5343132  57.5099850  49.2689479  78.3102940  19.4661236
  48.8265491  77.6286911  19.9720287  48.8225592  79.1200613  19.7136021
  90.0324365   0.7613431  75.5909300  90.7136676   0.1008413  75.4648542
  89.6495315   0.8794470  74.7216368  66.4873815 103.8930772   8.4319019
  67.4365736 103.9060329   8.3090210  66.3094593 104.6410345   9.0021038
  22.0097065  18.2382727  55.6581640  22.5610662  18.9086246  55.2546024
  22.4837732  17.9827499  56.4494944  61.4778614  28.9922357  80.7465458
  60.9722757  28.2284379  81.0244370  61.8874598  28.7222266  79.9246168
  87.3591825  37.1020389  69.2732000  87.6108143  37.6899767  68.5609865
  86.5340254  36.7134500  68.9827776  18.5237288   1.1183986  39.6571279
  18.2877421   1.0524836  38.7318182  18.6061728   2.0585629  39.8168945
 102.0708087  11.9094443  58.8431358 102.3250380  12.8320205  58.8218355
 101.5408120  11.8252897  59.6357584  36.3876128  30.3757763  74.4352627
  36.2258840  29.7417331  73.7366486  36.8982625  31.0686183  74.0164089
   6.4464664  26.6982698  78.1394386   6.3235039  26.9124627  79.0642262
   7.3596364  26.9229460  77.9609108  41.2975502  35.2695894  76.5058661
  41.8232250  34.5756340  76.9037628  40.5184746  34.8211884  76.1769104
   9.7769026   1.6767495  15.8939075   8.9824776   1.6702168  16.4278412
  10.4552798   1.3236516  16.4695454  20.6418538  18.4314215  69.4540787
  20.6337070  19.0544724  68.7274599  20.9265089  17.6070726  69.0595531
  53.4028244   6.7586219  63.8760471  52.6835728   6.8929505  63.2589054
  53.2483482   7.4021095  64.5676374 105.7131549 100.2719569  76.9691372
 106.0982534 101.0924017  76.6612387 104.7690459 100.4023170  76.8802786
  10.1753771  34.9370265  85.2594757  10.9162104  34.6430111  85.7895279
   9.4743747  34.3179321  85.4633141  35.3301048   6.3407797  83.0865669
  35.1346135   7.1035522  83.6308098  34.5445800   5.7969689  83.1453323
   7.4161237  44.0622950  53.1757069   7.7275151  44.0066099  54.0791273
   6.6484827  44.6322489  53.2216597  22.8080368  25.7786322  39.0127468
  22.3002195  25.3307438  39.6893191  22.1883678  25.9086895  38.2948828
  37.3599787  55.3473874   9.7814369  36.5749407  54.7997144   9.7826004
  37.6634403  55.3329329  10.6891441  35.7724333  14.9095333  86.3802528
  35.0328374  15.2825856  85.9006119  36.2702394  15.6694984  86.6817093
  17.0454478  46.4833021  76.0634565  16.4764094  47.1824980  76.3852549
  16.6796684  45.6836653  76.4416313  33.6139512  36.4056468  70.2147341
  34.4542885  35.9473276  70.2179337  33.7373424  37.1278048  69.5987034
  11.8779743  45.8064556  81.6960335  11.6144323  44.8946667  81.5718460
  11.4702511  46.0630894  82.5231552  15.9059525  45.9962177  89.1999531
  16.7117739  45.6323528  88.8332272  15.6864810  46.7251205  88.6196327
  18.5525274  10.6434429  83.6914253  18.5108101  11.4646375  83.2013988
  17.9277897  10.0686491  83.2492256  27.6098800   3.1425285  81.7478085
  27.6873422   2.8464377  82.6547623  27.0244098   3.8985160  81.7918301
  94.3050262   3.5962650  67.5979424  93.8349208   3.3196783  68.3845377
  95.2296337   3.5385734  67.8387880  11.9966602  20.3000569  65.4583645
  11.3750005  19.6287143  65.7395601  12.7959180  19.8152316  65.2525377
  33.7715364   2.2158112  61.8847847  34.0530705   2.7614486  62.6191235
  33.6251926   1.3520674  62.2704792  28.7713289  25.6749582  88.0353451
  28.4726596  24.8311830  87.6961231  28.7109375  26.2688589  87.2871017
  50.6666613  38.9810658  70.2668524  50.0909948  39.6519446  70.6339502
  50.2541876  38.1522679  70.5101442  36.3120058  90.1546334   0.8300209
  36.0090020  90.8387755   1.4269829  36.1088876  90.4911350  -0.0427628
  67.2773338  95.0484680   2.9384899  66.9425727  94.7267269   2.1014404
  66.9983817  94.3916057   3.5764217   4.7797202 100.2118206  80.8129501
   4.6605491  99.2922044  81.0503006   4.4368362 100.6989363  81.5622044
  40.9722996  16.4100921  86.2391186  41.0736942  15.6825042  86.8527699
  40.7738972  17.1649253  86.7932796   9.8915768  51.2270998   3.0532837
  10.4471112  51.8402880   2.5720215  10.0861049  51.3999494   3.9744377
  46.9972658  37.5971270  80.3802586  47.4399281  38.4434342  80.3166485
  46.4386988  37.5600290  79.6038198  73.6555506  64.4820331  28.1919098
  73.8808299  65.4048823  28.3095074  72.7081013  64.4822560  28.0556297
  72.4328566  77.8374051  12.4227524  72.2807194  77.8784965  11.4786148
  73.2762337  77.3932479  12.5103474  21.6027356  77.6538252  14.7998142
  22.1815217  77.3690508  15.5070210  20.8587862  77.0530413  14.8425770
  69.5797206  83.7081264   4.2894745  70.0911809  83.2635163   3.6134815
  68.9002276  83.0779313   4.5289993  39.2508247  91.1877607  21.2265873
  39.1675032  91.0080742  22.1630764  38.8043887  92.0253752  21.1027813
  70.3874589  53.9535435  28.3549595  70.2759934  54.3043168  29.2385769
  70.6551505  54.7077614  27.8298664 102.7639589  38.5686946  34.4384789
 103.5631874  38.0441236  34.4863701 103.0734202  39.4658136  34.3134236
   0.7393944  25.3942919  90.7378674   1.6792455  25.4130292  90.5574226
   0.6701811  24.9989128  91.6068459  34.5579068  78.2371710   2.1727085
  33.9108575  77.5842594   1.9057560  35.3982880  77.7844308   2.1018887
   3.5919809  34.0501451  82.6829052   3.6248082  33.1269884  82.4320316
   3.8643944  34.0588260  83.6004829  36.6125464  53.2198572  44.7399187
  36.3073230  53.8221645  45.4183722  37.5667524  53.2409239  44.8125792
  39.5474105  67.9430936  20.4942322  38.9907756  67.5599657  19.8162937
  40.4396317  67.8156792  20.1718330  30.2596688  27.9171062  80.9062767
  30.7930994  28.3955860  81.5408993  29.3868065  28.3011270  80.9891701
  48.3100891  29.1050315  59.6480942  47.4249172  29.1772103  60.0051546
  48.4036016  29.8718190  59.0828323  59.3469906  17.8986597  59.9074078
  60.1315880  18.2636654  59.4982529  58.6545992  18.5261250  59.6997643
  97.9846665  54.6460247  89.7838783  97.7869245  54.1024828  90.5465603
  98.0080470  55.5396223  90.1261806  82.1097346  11.7546361   4.8707581
  82.0321830  11.8718379   3.9239311  81.7000349  10.9065573   5.0414658
  26.0060299  72.5321256   5.0699520  26.3838530  71.8578576   5.6346130
  26.5816689  72.5545179   4.3055058   0.8400058  96.2254768  83.9415169
   1.5964698  96.8108386  83.9047909   0.9103226  95.6932330  83.1490421
  27.2138429  58.8924408  90.6646919  27.7138472  58.5289431  89.9338722
  26.5629530  58.2204866  90.8673000  98.8495132  55.7244712  42.9825830
  98.0750033  56.0502749  43.4410763  99.2548128  55.1155025  43.5999346
  27.0265865  59.5312977  53.6844110  27.2761345  58.8555288  54.3147230
  27.8546739  59.9372196  53.4280300   7.3676801  78.6070942  25.6446552
   6.8974519  77.8038286  25.4213142   7.8942157  78.7999629  24.8688984
  26.2620711   9.4553709  46.3601208  26.3554454  10.3903627  46.1776304
  25.4691291   9.1975969  45.8899879  43.2862377   2.0478393  80.1801395
  42.5644875   1.6989036  80.7031631  43.6192989   1.2916608  79.6969271
  38.4642887  36.2421227  79.9776173  38.4097815  35.9907866  79.0556097
  39.1543221  35.6847739  80.3374100  16.6311669   0.7823654  49.1622305
  15.6978524   0.9837504  49.0944052  16.6606188  -0.1549577  49.3540382
  45.0939798  22.9750752  44.7515106  44.3320513  23.2667542  45.2521324
  44.8131704  23.0239058  43.8377285 106.2189242  41.6329145  86.9571495
 107.0437354  41.1495209  87.0045567 105.6126747  41.0304737  86.5261459
  67.3442388  93.4104227  25.4368019  68.2345033  93.0929540  25.2855492
  67.4605466  94.2286609  25.9196949  91.6557344  94.6075302  78.1789494
  92.3495921  94.7598678  78.8205004  92.0680543  94.7849613  77.3335218
   1.5397614  29.1279364  79.1664648   0.5848841  29.1298604  79.0998507
   1.7941456  28.2344532  78.9357948  57.6934648  78.7565826  10.7471371
  57.5913835  77.8071068  10.8127403  58.5872889  78.8798665  10.4275894
  22.5760722  62.2952700  75.9415388  22.0917416  61.7557335  76.5664864
  23.3906031  62.5135851  76.3944292   0.6008983  49.4365956   2.2544003
   0.0487901  48.8583739   1.7280293   1.4871312  49.0949325   2.1357059
  81.8575955  74.4631075  16.4872837  81.1561442  74.5173119  15.8382320
  82.2027016  73.5752367  16.3933849  16.6675246  41.4965200  90.0119591
  16.8726742  40.9378576  90.7616520  16.2681055  40.9046984  89.3744278
  84.0547133  51.2251663  26.6697979  83.4536267  51.3720496  25.9394932
  83.9652873  52.0071090  27.2145939  50.9198309  89.5535945   2.8027725
  50.7070173  90.4813455   2.7016830  51.0635079  89.4418381   3.7425137
  85.1206078   9.7220414   3.9276218  84.6823861   9.5677273   3.0907345
  84.4654377   9.4931119   4.5868492  17.5649738  24.5382619  83.5900307
  17.3779953  25.0311732  82.7910900  17.7930343  25.2067566  84.2360497
   3.6336878  35.4729128  68.5905313   4.3425635  34.9469471  68.2202816
   3.4522101  35.0673747  69.4383764  27.2480083  24.3033814  60.2580929
  27.3350835  24.4886279  59.3230343  26.7110157  23.5119295  60.2964735
  38.0966616  78.4516573  42.1386194  37.6651573  78.3804178  42.9900646
  38.9500976  78.0377293  42.2672367  74.7600699  67.6706444  23.2987309
  73.9104796  68.1080924  23.2433319  74.5513845  66.7370592  23.2655525
 106.8229625  19.1274500  69.2187309 107.2702587  18.9434767  70.0447559
 106.7046657  18.2681942  68.8138676 107.1063235  17.1845615  88.1808376
 107.2966716  17.0513308  89.1094112 107.8343937  17.7174282  87.8611469
  64.9099667   0.7651084  19.7589397  64.0580906   0.3724330  19.5683002
  64.7670688   1.2704222  20.5592346  38.2722497  33.0175614  78.7282801
  37.6251507  32.6992822  79.3577147  39.0508723  33.1970906  79.2552996
  22.6271677  50.5536604  48.5612774  22.6080084  49.6496630  48.2471943
  23.3729243  50.5832291  49.1606188  46.7925943  33.9275669  21.8397331
  46.2914146  33.1224667  21.7098713  47.6102985  33.7799476  21.3645554
  22.7217627  20.1810789  74.6196890  22.2409725  19.3564534  74.6908808
  23.1940985  20.1120758  73.7900114  65.0642253  71.5165733  34.7989941
  64.4529248  72.1489345  34.4212914  65.9189225  71.7736696  34.4531250
   3.7734085  24.3781185  61.7420006   3.3306056  25.1932001  61.9782114
   3.8204074  24.3993735  60.7861900  97.1780393  28.9373755  78.2202530
  97.6936755  29.6721959  78.5525036  97.8091189  28.3979750  77.7437878
  38.3211708  26.0059953  51.8230152  37.4774241  26.3458514  51.5249920
  38.7103367  26.7289996  52.3149967  10.4212880  43.3660126  89.7286701
  10.6208825  44.1024399  90.3066540   9.4801831  43.2268000  89.8343754
  36.5530872  31.9025135  57.8907681  37.2294950  32.0595384  58.5495901
  36.6388869  32.6346731  57.2801828  26.7730331  19.2958248  84.8259068
  27.3909163  18.6769438  84.4367599  26.0051799  19.2582393  84.2556286
 109.8681305  45.8117914  75.6265306 109.8837930  46.7613983  75.5072165
 109.7025539  45.6905699  76.5614748  68.9056946 102.6513647   8.5250568
  68.6721230 101.8618702   8.0368137  68.3680726 102.6116632   9.3160152
  52.5196981  32.7085781  70.7867098  52.0709515  31.9076872  70.5157185
  52.9473734  33.0245185  69.9907827  53.6638451  12.3339164  87.8157043
  54.1534042  12.6551998  87.0585155  54.2988205  11.8140590  88.3084393
   4.8657402  60.4170656  88.5581017   5.3201729  61.1051416  88.0720329
   5.2393186  60.4590082  89.4384003  50.8462715   1.3767192  86.8521786
  50.2230167   2.0709199  86.6380024  51.3057709   1.2053925  86.0301399
 104.2283687   6.3196522  61.8177414 103.4664932   5.8490431  61.4796495
 104.8671201   6.2842500  61.1057186  59.4249630  31.8653846  79.8408318
  60.0277424  32.5198650  79.4879198  59.0239668  31.4676809  79.0680027
 101.7429902   4.4260209  55.2237606 101.0759379   4.1053336  55.8307457
 101.9785620   5.2901309  55.5614758  36.7537713  45.7093430  63.5426998
  35.9872842  46.0754728  63.9839268  37.4647403  46.3133669  63.7569618
  94.3777760 102.0891028  74.6520710  93.7893816 102.0324355  75.4049397
  94.4856318 103.0283797  74.5025444  12.2567070  16.9281995  89.5075893
  12.7477670  16.1073256  89.5430660  12.7474332  17.5254428  90.0721455
  25.1781416  40.8868790  54.0921402  25.2941585  41.8216038  54.2626047
  25.3248334  40.4686737  54.9405575  86.1107291   1.8796675   1.2248325
  85.6997062   1.7730277   2.0826912  85.4074217   2.2008555   0.6605339
  31.6968870  43.2240677  66.4600134  31.4175868  44.1371059  66.5277290
  30.9160733  42.7175331  66.6835880  47.8829337  81.3637398  29.3571377
  47.2471882  80.6485795  29.3325806  47.5859476  81.9236849  30.0744247
  20.1068163  25.8353472  57.4752474  21.0396409  25.7359004  57.6654673
  20.0177431  25.5599809  56.5628529  11.1242998  22.3028898  81.8619442
  11.7401206  21.6972494  81.4493942  11.1544704  23.0862451  81.3126945
  73.8948581  18.9213555  22.2466946  73.3039843  19.6508830  22.0599079
  73.7309749  18.2940667  21.5425015  44.0833891  65.0572322  17.5857544
  43.5301364  64.5845984  16.9638538  43.6113477  65.0016080  18.4166145
  12.8418446  64.8452377  65.1638412  13.7540472  65.0050068  65.4058981
  12.4528074  65.7179499  65.1067877  40.2654409  23.9911914  47.3368454
  39.9476957  23.9889216  48.2397699  41.1979103  24.1940308  47.4115896
   7.1420097  88.7420100  72.9382801   7.6043081  89.4497686  73.3872700
   7.8308009  88.2554537  72.4854374  15.9261155  37.2824883  49.4477749
  15.5036998  37.9563332  48.9151096  16.6588140  36.9782281  48.9122248
  82.5765897  78.3144187   1.9359875  82.9984713  77.4939870   1.6807652
  82.4455405  78.7829159   1.1116314  14.2283154   2.8065580  76.4174843
  13.9638460   3.7020540  76.2068319  13.4680021   2.2720951  76.1883450
   1.8871912  27.8954911  90.1737785   1.1239123  27.4040914  90.4773617
   2.4074011  28.0420732  90.9637928  87.0974971  55.5914144   7.7166462
  86.5276147  56.2920059   7.3994064  87.2373153  55.7965110   8.6410999
  13.8454747  15.4955876  75.2995586  13.0310965  15.0438476  75.0783110
  14.1607916  15.0496459  76.0856533  11.4871788  32.5404263  78.3229589
  10.8831835  31.9740391  77.8427219  12.3524523  32.1698618  78.1491327
   1.3799465   2.5019136  63.1592655   2.2994626   2.7399367  63.0406618
   1.3761035   1.5448803  63.1418228  48.7752736  64.5557974   1.4908981
  48.5894681  64.6653699   2.4234772  48.1444455  63.8987886   1.1965752
  57.7859831  22.9281735  59.0935946  58.1249714  23.7972140  59.3082762
  58.4260416  22.5660586  58.4808683  29.3694258  29.4428635  88.7972546
  28.6641812  28.9619064  89.2303181  29.5809889  30.1539373  89.4021034
   9.9430597  20.6419301  59.5657063   9.0889245  20.2596521  59.7670746
  10.4657054  19.9060369  59.2470646 106.0441288  20.9362292  89.3606472
 105.8922514  20.4619741  88.5431767 106.9785395  20.8217907  89.5338821
 109.8899472   2.8229207  62.4865866 109.0045837   3.1758064  62.3980761
 110.4171425   3.5681629  62.7745295 110.4887809  18.6480284  84.7294521
 109.8417975  18.5049331  84.0386772 110.8207161  19.5311069  84.5675182
   1.6141819  99.6962917  73.3545446   1.6955256  98.7469500  73.2630873
   0.7194494  99.8310339  73.6668444  56.4789773  81.8116735  10.9291458
  55.5536295  81.7377375  10.6957054  56.7612148  80.9092711  11.0782814
  76.4766982   1.4494317  11.3250160  76.2134692   1.3691466  12.2418022
  75.6785174   1.2656443  10.8296776  22.9219961   0.8560159  55.3282166
  23.6157370   0.7328460  55.9761238  23.3241868   0.6063477  54.4962645
 111.5890928  98.4879577  70.7585669 111.8399831  98.1293481  71.6098499
 111.9187757  97.8516322  70.1240349   5.7127333  28.8657928  86.4837646
   5.6392145  29.7823119  86.2176514   6.5641844  28.5862851  86.1474037
  30.4060888  22.9276204  61.7290163  30.9850860  23.6225414  62.0421934
  30.5249476  22.9267192  60.7792282  93.4755728  54.5466137  60.8910465
  92.7786359  53.9145851  60.7148314  93.5538670  55.0491095  60.0801182
  29.4244123  30.5095482  65.1000309  29.9509764  31.2568736  65.3836918
  29.9918437  29.7509480  65.2370596  48.0218268  59.3677126  13.0973053
  48.3230544  60.0364225  13.7123775  48.7735248  58.7848877  12.9900742
  85.7940747  12.7061885   3.3678246  86.5982188  13.0193274   3.7819862
  85.4447235  12.0597975   3.9813137  61.0186196  71.5004848  11.9160652
  61.3081218  71.1617516  12.7632236  60.1435114  71.1313997  11.7969227
  94.6198615  16.8252790  41.2176847  95.3673038  17.4232423  41.2165260
  93.9211747  17.3143768  40.7831144  29.1806936  27.0579052  75.1261854
  28.3031988  27.1446466  74.7537470  29.0431547  27.0885849  76.0729551
  25.5795717  43.7039185  36.1604214  25.5843806  43.2854843  35.2995372
  25.3733635  44.6210289  35.9798145  49.5106983  18.8170075  76.4010668
  49.9122715  19.5947433  76.0136414  49.4331408  18.1998491  75.6735134
  34.0953374  51.9655752  90.9444809  34.3238807  51.4880562  90.1470089
  33.4438968  52.6071119  90.6611252   6.2931049  58.6601543  38.7216187
   6.2383318  58.7562227  37.7708268   5.8037263  59.4070578  39.0664029
   3.8188779  26.9376683  54.0852928   3.3384770  27.2752810  54.8412418
   3.2913968  26.2013888  53.7756348  38.3362746  21.2049580  89.1570473
  38.1311989  21.7506433  89.9162579  37.6309061  21.3846016  88.5354233
 100.0010634  83.0136798  10.7510567  99.7458840  83.8948988  10.4779911
  99.4734479  82.4313568  10.2044773 104.6115256 102.5729917  11.2618446
 105.2999068 102.9302810  10.7008457 104.4990826 101.6720413  10.9587288
  65.9327508  85.9782837   3.3121490  65.4106260  85.1782654   3.2522488
  66.6367222  85.8530639   2.6757717  32.0353293  25.9436703  59.8803949
  32.5591135  26.5621758  60.3896427  32.6174045  25.6607270  59.1751528
  26.4103974  86.1607264  30.9918594  27.0984972  85.5026673  30.8933353
  26.7649961  86.9431351  30.5695724  10.5892920  14.8218620  48.2153702
  10.0664854  15.5877709  47.9781151  11.0896397  15.1015341  48.9819670
  36.5980721  18.8423657  74.9656248  35.7126808  19.0044153  74.6399593
  36.4678907  18.4627771  75.8346462  86.8419123  72.2606383  47.3481369
  87.2406388  72.8811596  47.9582214  86.4300633  71.6038226  47.9095650
  28.2011414  16.7159760  36.8705297  27.5403762  16.8227804  36.1862683
  27.8172708  16.0831487  37.4774933  47.3274422  13.1772959  73.6608028
  46.5422392  13.7247348  73.6608839  47.3192644  12.7466547  74.5156193
   9.3290263  33.2480192  63.5845804   9.3231750  33.2621622  62.6275015
  10.2481222  33.1150174  63.8165379  51.4812517   7.4764687  70.2250624
  51.9614458   6.6525471  70.1426029  51.9538546   7.9625297  70.9008026
  12.7742970  38.4798336  60.5793333  12.0537019  38.9863443  60.2046013
  12.8891432  37.7449036  59.9769020  23.1787610  41.6371155  62.8558302
  22.8627896  41.6621351  63.7590265  22.3832107  41.6416216  62.3235607
  23.7951207  30.2435279  73.4091520  23.7677836  29.5596814  72.7399445
  23.7182403  29.7708178  74.2379284  86.5926982  97.4327444   5.0381947
  86.3754512  98.3617042   5.1160812  85.8527137  97.0525955   4.5647526
  94.0744147  49.5791245  82.2729015  94.8462114  49.0227652  82.3779106
  93.9164957  49.5939732  81.3289356  90.7729960  98.2227396   7.9291058
  91.5069628  97.6534294   8.1602097  90.2679301  97.7161335   7.2931099
  43.1057167  10.7109523  78.1996727  43.4779692  11.3136637  78.8434076
  42.5351810  11.2587512  77.6605654  27.0082140  51.0506821  83.5538387
  26.3635731  51.3507891  82.9130459  27.4440980  50.3127861  83.1275272
  44.2326164  37.5044298  65.1266432  44.0997028  36.5808225  65.3399897
  44.2284489  37.9490519  65.9743023  23.7192035  32.2728300  42.8409719
  24.0235567  31.9428182  41.9955778  23.4593606  33.1772327  42.6655674
  26.7060089  40.2054071  56.3828564  26.6244245  41.1583328  56.3440180
  27.2638226  40.0435877  57.1437025  39.2564011  16.9414628  84.0053177
  38.4998798  17.4452090  84.3055725  39.6820045  16.6458344  84.8101139
  82.6978064  85.9136890  17.4639511  81.8205834  86.0897039  17.1237659
  83.2862378  86.3413833  16.8418121  35.1409459  51.3032389  73.4145737
  34.5033956  51.7188883  73.9950848  35.9394860  51.2440395  73.9390326
  57.3122669  90.7490586   9.0823460  57.9353572  90.0794099   9.3644142
  56.4530445  90.3694604   9.2663860  40.3401092  99.4101547  12.7165318
  39.7395565 100.0483106  12.3313999  40.8020503  99.8973631  13.3987808
  47.2271824  39.2885160  71.2620401  47.1182203  39.0318751  72.1777344
  47.8728342  39.9947524  71.2864399  44.8325348  36.4572430  78.6498928
  44.8317480  35.8420897  77.9165316  44.2989588  37.1918821  78.3468580
  75.9458805  70.3356777  25.1944447  75.2429701  69.8842095  24.7271919
  76.5807820  69.6478664  25.3945637 108.1290135  61.4328051  60.9677696
 107.7266091  61.5185261  60.1035070 108.0796036  62.3119068  61.3432360
  78.4166623  74.7719096  17.0385838  78.8303281  73.9342068  17.2468376
  77.7926017  74.9143456  17.7502632  28.0411792  69.1619730  56.1199713
  27.5316191  69.6791458  55.4961872  27.4726129  68.4240866  56.3401794
  25.5771780  37.1084499  75.2988529  25.8109593  36.2352991  74.9839163
  25.0746822  37.4951243  74.5817661  25.6972218  64.6164083  81.9086361
  25.7377529  64.0277004  82.6622963  26.0535717  64.1025782  81.1839104
  89.6377564  74.4812440   9.2294025  90.4237414  74.5158313   8.6841869
  89.7383214  73.6804770   9.7440720  40.9430122  44.7977448  90.7652855
  40.7469654  43.8690329  90.6416321  41.6791201  44.9674845  90.1774311
  43.5752201  48.1625557  73.4973812  43.0843735  48.1510162  72.6756907
  42.9288626  48.4088182  74.1590452  29.8910594  98.7531090  89.0824509
  30.1505351  99.6434307  88.8453007  29.1484690  98.5596275  88.5103035
 109.1592041   0.8348584  55.4276848 109.2861986   0.7551113  56.3730621
 108.6331844   0.0708552  55.1913881  13.3186841  41.5301371  75.7187033
  13.2116914  42.1472836  74.9948835  13.9497852  40.8876753  75.3943777
  13.8924407  97.5463778  64.7879934  13.0540418  98.0063033  64.7458076
  13.8073920  96.8346685  64.1535902  31.6179442  46.7132950  37.6120567
  32.0895600  47.2894812  38.2135725  32.0195556  46.8774223  36.7588258
  90.9480430  12.3716633  25.5024052  91.0721983  12.0415967  26.3922787
  91.0626329  13.3188002  25.5800819  29.8663163  27.2813153  41.2138844
  30.1068187  27.9841995  40.6102800  28.9444900  27.4430084  41.4146948
  21.0350776  66.4319611  79.8182678  21.6446519  65.7591867  80.1216221
  20.2851343  66.3594484  80.4086590  21.9692945   0.8469211  72.0626259
  22.3849654   1.6947167  71.9054890  22.6999974   0.2366129  72.1617556
  34.1318178  48.3107185  88.5584164  33.4571981  48.9897728  88.5588455
  33.6788464  47.5228977  88.8590527  22.7739239  45.0233412  82.6999283
  23.2206345  45.8668995  82.6286125  22.0446873  45.1882648  83.2976341
   4.6028048  34.6066380  90.9368706   4.7254729  35.5222607  90.6862259
   4.4217828  34.1548729  90.1126289  71.2300277  96.5561317   3.7962818
  70.4718304  97.0429824   4.1193104  71.8281604  97.2304605   3.4741688
  86.8170108  17.0652192  18.3883762  85.9360303  16.6909163  18.3893108
  87.2411777  16.6774600  17.6228905  26.2409949   3.1070024  62.3270798
  26.3688779   3.2141376  61.3845301  26.2975121   2.1623129  62.4706078
  69.6210380   1.4031212  23.7054443  69.9648194   1.8092005  22.9097366
  69.7659130   2.0566266  24.3896770  65.0752235  88.4749673  14.2123413
  64.2850543  88.1926344  14.6729374  65.3506900  87.7048372  13.7150955
  43.4310484  25.5264330  80.5921459  44.3294048  25.7583213  80.3567505
  43.1932211  26.1529541  81.2756252 100.3794600  24.1712897  38.7936783
  99.4593002  24.4243710  38.7196064 100.5044319  23.5182517  38.1050873
  42.6639223   8.2371873  79.3244648  41.9149494   8.5060960  79.8564005
  42.9560614   9.0426129  78.8976431  35.4258490  62.6785374  66.2963820
  35.8621073  62.5712824  67.1416092  34.9656200  63.5147095  66.3687944
  59.9601174  93.9397453   2.5501347  60.3551651  94.1967844   1.7170143
  60.6795216  93.5484956   3.0457306  26.8174171  79.6228027  59.7887468
  27.2021604  80.4776573  59.9822283  26.0347962  79.8230648  59.2752934
  20.6299734  65.9503794  50.6378603  20.3671718  66.7656040  50.2105761
  19.8399889  65.4099321  50.6291676  86.1330176  86.7895387   0.8334732
  86.9301320  87.2754716   0.6220341  85.6185580  87.3942898   1.3681126
  67.0442057  13.0179286  53.5979652  66.2524748  13.3175492  54.0447569
  66.8769884  12.0948899  53.4075165  24.1004205  45.4214811  42.7946091
  23.8350534  44.6529675  43.2997799  24.1322660  45.1134443  41.8888903
 111.4168292  20.4659367  65.8757925 111.7133352  20.8868861  66.6827106
 110.5827547  20.0591016  66.1103964  21.3240385  34.6477199  58.9293671
  21.5762401  34.1638184  59.7157955  22.1127820  35.1302481  58.6818123
  96.5921447  38.0243611  55.1637411  96.2609860  37.2320318  54.7409153
  96.4765665  37.8623700  56.1000299  49.8068333   1.9781370  77.7274847
  49.4844818   1.3430721  77.0879412  49.6410799   2.8299880  77.3236179
  43.6591227 102.4809764  19.5800400  42.7508057 102.5765918  19.8664856
  43.8881738 103.3377861  19.2199802  51.3638735  37.2147059  82.7687740
  51.6055012  38.0767250  82.4300003  50.4734278  37.0722008  82.4477959
  77.3179913  41.2889481  83.3617401  76.6652822  40.5888844  83.3724880
  77.0963001  41.8347168  84.1162109  83.9371607  11.0340846  79.7037029
  84.0616056  11.9119561  80.0643826  84.2571089  11.0973155  78.8037777
  50.7593835  93.4052347   7.1799469  51.1738551  94.2299102   6.9262600
  49.8391879  93.6313699   7.3153591  34.0057746  74.2116736  18.4733677
  34.7084997  74.4902466  17.8861618  34.2460201  74.5772718  19.3247509
  46.1556364  98.2806610  29.6550751  46.5261180  99.0026973  30.1626492
  46.1649013  98.5941433  28.7507057  36.9982290  41.8975496  72.3583746
  37.5447083  42.4720860  71.8221855  37.5331521  41.7094088  73.1295395
  46.5106106  47.1049166  77.5680637  46.9373989  46.3038063  77.8718710
  47.1956730  47.5762749  77.0939875   3.0366039  90.5130881  67.0467615
   3.0581092  91.4211589  67.3487139   3.5641622  90.0353020  67.6867914
  28.4698105  28.6143780  57.4391603  27.5232482  28.5139465  57.3383427
  28.6937308  28.0465221  58.1764746  25.0544310  46.9947386  87.6431179
  25.0091362  47.0069790  88.5991669  24.8377895  47.8896713  87.3816013
  22.2121143  38.2830811  89.6444988  22.7094555  37.5160384  89.9282742
  21.9251966  38.0676246  88.7570858  25.7558799  42.3128605  44.9829721
  25.6413150  41.4092016  44.6888494  26.5599084  42.2956657  45.5020857
  71.9914461  90.3464054   1.2064266  71.3970876  91.0518049   0.9507275
  72.0079518  89.7608851   0.4493713  62.7270652  88.0011605  22.8771877
  63.5079814  88.5457610  22.9762459  62.8723551  87.2639869  23.4702301
  26.9237590  11.9412208  81.4497185  26.0793185  11.4915705  81.4808273
  27.0949388  12.1924007  82.3573780  63.3965350  95.5401062   1.7641830
  63.6163855  96.3414978   1.2891388  63.7528444  95.6766485   2.6420403
  30.1276946  30.5270648  56.9737720  30.8752322  30.2488089  57.5029135
  29.5340991  29.7762203  56.9842577  69.5277453  92.5711368   3.9007092
  69.8327614  92.4131154   3.0072689  70.3160477  92.8225063   4.3819809
  40.1251411  59.4968271  87.8789425  40.2858257  58.9442730  88.6438656
  40.9535551  59.4888926  87.3994637  95.2972223   5.5228894   6.4934349
  95.7937314   6.2475102   6.1131191  95.2377535   4.8775380   5.7890129
  15.1262355   6.9229966  48.8654900  15.2722132   7.7031094  49.4006062
  14.7029853   6.3018042  49.4581223  30.9579253  39.0739107  69.9030066
  30.0890899  39.4691539  69.9747038  31.2968802  39.3908310  69.0658045
  64.9166775  18.5307872  60.6885624  64.8099804  19.0373445  61.4937019
  65.2372456  17.6781797  60.9827232  45.9413147  52.9912519  28.3902454
  45.5412722  52.1443081  28.5874438  46.2221813  52.9169226  27.4782038
  50.1130772  29.1144562  81.9974232  50.6702614  29.7572684  81.5585995
  50.4966116  28.2682061  81.7672157  32.2804666  24.9620128  82.0188141
  32.9859805  24.7349143  81.4130878  31.5300393  24.4515586  81.7146301
  58.2698942  66.3511704   8.5828495  57.3899127  66.0029780   8.7264729
  58.1288076  67.2666596   8.3415985  27.0299816  53.4275675  56.1580706
  26.2174201  53.5206413  56.6553736  26.8443894  52.7355385  55.5233383
  45.3462410  27.4724102  90.8449364  45.3578949  27.0524883  89.9848461
  46.2368011  27.8032064  90.9620476  26.4822459  32.4790025  43.1825733
  25.8709359  32.7873492  42.5136518  25.9266424  32.0605516  43.8401699
   9.3390077  48.7317181  87.1673775   9.2434072  48.2755947  88.0034733
  10.1685047  49.2030144  87.2451305  47.1704149  24.0818739  75.8854723
  46.2415457  24.1486001  75.6641579  47.5969362  23.8485742  75.0609207
  42.2646809   6.6599411  57.5410700  41.6520357   5.9716010  57.2820568
  42.8525019   6.2348384  58.1655598  33.2850528  40.0124264  76.8940783
  33.0941439  40.7427454  76.3055086  32.5588274  40.0112009  77.5176382
  24.8257589  85.5284214  77.2658253  25.7070303  85.9005070  77.2996569
  24.7970390  84.9136353  77.9989338  88.7900401  96.4808773  34.0997219
  89.4170333  97.0355915  33.6355972  89.3330813  95.8584331  34.5833588
 105.1335862  54.5658970  83.2520962 105.7392189  55.0526142  83.8111496
 104.9816760  55.1432800  82.5039101  62.6540876  79.2213582  21.4445305
  61.8397403  78.7295054  21.5501499  63.3206344  78.5513233  21.2928677
  33.3603382  30.0492430  49.0894508  33.1208587  30.0394154  48.1627464
  33.1476784  29.1695476  49.4011307  97.1872856   3.6889117  36.6676903
  96.3913299   3.2673686  36.9917011  97.6288463   4.0049212  37.4559784
  29.6057558  54.9942827  88.9323997  29.0371466  55.0824213  89.6973515
  29.2215395  54.2759085  88.4298611  34.9794579  44.1637850  72.6903296
  34.8210526  43.9540386  73.6107349  35.5392957  43.4539223  72.3758268
  54.1011620  43.2503939  83.4280205  53.9074183  42.3918581  83.8043308
  55.0487566  43.3456755  83.5240269  35.1796222  28.6668944  78.8689613
  34.5526505  29.1677260  79.3907928  35.8805704  28.4471893  79.4826651
  68.4932899  22.5383925  89.1231728  68.6446285  23.3938551  88.7212849
  67.5886536  22.3235893  88.8957405  41.6171694  42.3711920  82.1160316
  41.7518187  41.5028477  81.7364597  42.4881792  42.6443911  82.4040127
  57.4776363  30.0960183  73.1828547  57.4059343  30.4861045  74.0540171
  58.2416248  29.5221424  73.2395363  17.4860692  92.4233055  83.0849075
  16.5997553  92.2561073  83.4054184  17.9461801  92.7965927  83.8366985
  54.2859077  17.4113214  57.2731781  53.7469053  17.6630008  56.5232706
  53.7425709  17.6094329  58.0359173  27.6670508  27.4231045  10.5058193
  27.6619057  28.2449525  10.9965134  28.4460883  27.4793904   9.9524975
 108.3503813  66.9242573  76.0834217 107.6885384  67.3029804  76.6620111
 109.1220406  66.8176365  76.6396666 104.4073108  25.5188823  46.0685635
 104.1448137  26.3149500  45.6063938 104.4780502  25.7862353  46.9849443
  88.5586669  27.6765339  40.7617188  88.7054099  27.4045651  41.6676617
  88.6238839  28.6312287  40.7846928  68.2185078  52.9372311  89.3085098
  69.1137362  53.1571341  89.0507603  67.6794434  53.6188459  88.9072037
  29.5318890  40.5054474  73.2626343  30.1020575  39.9593139  73.8038158
  29.7955465  40.3095627  72.3635530  35.6771493  38.7811160  82.4298096
  35.9835505  38.2942772  83.1948853  34.8543501  38.3554864  82.1888351
  14.6491849  38.0437779  67.5918627  15.5729759  37.8225827  67.4739027
  14.1769767  37.3661113  67.1081066  22.0974040  74.7763968  80.3736877
  21.8598461  73.9800644  79.8986578  23.0414939  74.7001791  80.5119419
  19.6787941  53.4068394  68.5689211  18.7650251  53.2133341  68.7782431
  19.6517062  54.2676544  68.1511927  29.9242926  56.1864996  65.6020784
  29.7633314  56.0735893  66.5388680  30.8552432  55.9919453  65.4938555
  12.2075868  46.9089746  52.0511866  12.0470893  47.8386927  52.2127390
  12.6840281  46.8888521  51.2212276  48.0567884  40.4253435  84.6925068
  48.8112545  40.9927320  84.5341206  47.3619604  41.0225582  84.9695969
  27.9746413  31.6714430  58.3142471  28.8177609  31.6167331  57.8643703
  27.5588727  30.8255291  58.1475258  51.8800020  26.4664578  68.9646435
  52.8370237  26.4814210  68.9537477  51.6229963  27.0840669  68.2799959
  53.1950426  34.0032887  48.7377691  52.9275942  34.9150681  48.8533640
  53.0416203  33.5985994  49.5915365  61.7069984  82.2984885   0.0371838
  61.0736585  82.2038840   0.7486343  61.2442590  81.9827651  -0.7389736
   0.1125526  90.4864114  72.1302128   0.6320023  90.1117605  71.4188480
   0.2283358  89.8761075  72.8584671 103.6306837  72.7213049  51.7469788
 103.5634395  71.9720173  52.3388195 104.0137586  73.4159851  52.2826195
  13.8256943   6.4605355  61.4488792  13.2282341   6.4172447  60.7022858
  14.6523178   6.7677194  61.0766363  57.4280644 100.1553367   8.3055496
  57.8356481 101.0043882   8.4764671  57.3067404  99.7689603   9.1728592
  46.9322557  85.7866548   5.4599285  47.1341092  85.9505938   6.3811302
  47.7581335  85.4814719   5.0844002  74.2933560  90.2230309   4.7768307
  74.3966223  90.2964519   3.8280582  73.3856583  89.9444507   4.8981190
  24.5102859  49.8179913  87.3071671  25.2231336  50.2208853  86.8114281
  23.9536405  50.5523968  87.5660610  27.4507332  10.2046299  56.7392349
  27.0056081   9.4863755  56.2895632  26.7427373  10.7240200  57.1202993
 111.3950366  29.2917705  55.4228497 110.6902306  28.7570047  55.7882309
 110.9555981  30.0775719  55.0978184 108.7029555   3.9799547  82.0898342
 108.0450931   4.5976076  82.4091339 108.9208522   3.4459376  82.8537560
 107.4192834  27.1502972  62.1037817 107.5064525  27.9447460  61.5770149
 106.9524696  27.4340963  62.8897715  76.1714649  22.1562815  66.5273142
  75.6217670  22.5740075  67.1903133  76.5346146  22.8847480  66.0236406
  32.2163200   8.5730940  77.4297523  32.6918912   8.5119152  78.2581949
  31.3961315   9.0115380  77.6562262   9.0562183  27.3754120  77.5129795
   9.3470162  27.4124932  76.6017723   9.8083067  27.0251012  77.9903412
  11.7447746  54.0754843  80.2790356  11.4696932  54.6937323  80.9560394
  11.9039607  53.2582903  80.7513523  62.1152974  63.4564124  36.2304115
  62.1536256  64.4018994  36.3747025  62.7507354  63.2945894  35.5330849
  61.1636877  26.5963197  71.3345575  61.0727596  27.5454807  71.2505627
  61.5715885  26.3211942  70.5134869   4.1678342  29.4529486  46.0622835
   3.8974649  28.7241650  45.5037117   5.0593311  29.2309046  46.3309145
  47.1760798  43.6064816  76.8206930  48.0625963  43.8790655  76.5840244
  47.0310688  43.9885569  77.6862717  51.5071917  14.7189295  67.6330900
  52.3108149  14.6518791  68.1487703  51.7844105  15.1179874  66.8083858
  16.1499648   9.4867795  49.4895935  16.3636975  10.3494208  49.1340542
  15.3827529   9.6385663  50.0414848  39.4608450  40.0196266  70.2845716
  40.3133535  40.0757074  70.7162189  38.8468647  39.8217750  70.9917593
  25.7588696  64.2961168  78.7473392  25.2621222  65.0956297  78.5734081
  25.7256460  63.8095474  77.9237032  22.8365445  79.1918659  74.3336821
  23.2883024  78.4098959  74.0163946  23.5402989  79.7840691  74.5987463
  17.2845471  21.4756322  78.5795832  17.8565562  22.0512319  78.0719185
  17.3977220  21.7637324  79.4853544 109.5998885  10.1990883  14.0922832
 110.0463773  10.3446810  13.2582092 110.2043153  10.5419772  14.7505665
  37.7946757  91.4121555   5.3483868  37.5202560  92.3181223   5.4903507
  38.4456924  91.4659260   4.6487331  40.4404402  31.8220711  82.5670815
  41.0811234  31.5045285  83.2034206  39.5996857  31.7546415  83.0196476
  60.5806875  34.4480109  78.9056444  60.7003021  34.7864437  79.7929907
  60.5893946  35.2267361  78.3490992  23.1120133  32.8728390  27.3953462
  22.8824902  32.7341533  28.3142138  23.4792447  33.7564564  27.3709393
  32.1828389  20.8037686  56.9186592  32.7292299  20.9630227  56.1490345
  31.4308906  21.3846374  56.8029022   5.4584295  29.6939468  56.6765928
   5.1551718  28.7898469  56.5937042   4.6705505  30.1917911  56.8948317
  75.9957958  70.3016196   5.9528923  76.3480235  70.2324747   5.0655365
  75.2208901  69.7397255   5.9474468   4.0099451  31.8226337  64.4270706
   3.7768847  31.1069894  63.8356590   4.9527407  31.7253661  64.5608902
  31.8952346  21.6308880  82.8756332  32.2907662  22.2502160  83.4889984
  32.5225306  21.5739059  82.1548748  89.4743729  99.8342775  17.4423313
  89.4198275  98.9051698  17.2186947  89.4715787 100.2845119  16.5976334
  28.5951400  44.2255211  68.8947535  29.1026807  45.0345325  68.8304520
  28.0399323  44.3516111  69.6642160  30.7147026  58.7602425  76.2063837
  31.1898923  58.0527687  75.7705975  31.2639642  58.9919090  76.9552994
  26.3888812  48.8724279  70.3970814  27.0708275  48.2172823  70.5452967
  25.6170511  48.5190248  70.8393669  12.3213458  26.6269016  36.1288357
  12.9279232  26.0053301  36.5312576  12.8616846  27.1270418  35.5171776
  88.1546497  20.1379061  66.1089277  87.3672771  20.1900721  66.6507339
  88.1248569  20.9260869  65.5666018  69.9397851  71.0692726  21.8002605
  69.4074298  70.9445642  21.0145855  70.8354164  70.8907782  21.5135288
  23.2926345  36.0917258  69.5020342  23.7318158  36.8744946  69.1694355
  22.3792744  36.1983657  69.2362642  42.5543404  19.0608943  76.0995483
  42.6366043  18.4295225  75.3848219  43.4395027  19.4054699  76.2178087
  95.5998589   3.8638919  15.1287270  95.5653001   2.9899638  14.7397709
  95.0357510   4.3976014  14.5691109  50.2328539  20.9899926  70.7490730
  50.4989672  20.4801393  69.9839163  49.3036604  21.1697102  70.6057835
   1.8985882  26.4970279  61.4782524   0.9628984  26.2967348  61.4537764
   2.0729750  26.7151046  62.3938179  15.0752115  29.9443817  59.5336628
  15.0939465  29.1377997  60.0487423  15.9659374  30.2892447  59.5962000
  64.4614554  59.5026516  37.4875736  65.3867579  59.3679933  37.2828484
  64.1178156  58.6213361  37.6339436   6.8033355  14.5906222  75.6966782
   6.3754719  15.4468560  75.6913757   6.3592803  14.0967035  75.0074100
  32.8166270  16.3962102  61.2193966  33.4466553  17.0338082  61.5551996
  32.2515821  16.2012303  61.9670200  27.5117517   6.6528666  83.8207531
  27.3628116   6.2169945  82.9816723  28.4413600   6.8808007  83.8105679
  36.0769057  35.4231739  89.7193241  35.7482743  34.5272756  89.6444988
  36.3968468  35.4865551  90.6192398  42.8777122  32.8617930  77.3667145
  42.2779274  32.3160839  76.8581009  43.3856630  32.2390103  77.8866768
 108.8355394 101.9377604  85.2675915 109.6610042 101.4986408  85.0626183
 109.0024205 102.3867193  86.0963345  64.2456747  96.0848449   4.1106224
  63.7592030  96.5998148   4.7543430  64.5928932  95.3449176   4.6088028
  43.2130671  22.2659945  89.8690033  42.3966122  22.5658917  89.4693851
  43.8754082  22.8785801  89.5491886  19.1636634  77.9153728  87.4882698
  18.4583247  77.2780132  87.3764515  19.9618101  77.4273205  87.2857857
  19.7804081  39.2654324  78.5865545  19.4214737  40.0737572  78.9526320
  19.4139981  39.2190361  77.7034807  27.8267121  33.4451127  66.1361694
  27.6241207  32.5476789  66.4003658  28.6121726  33.6700654  66.6348457
  17.6323533  13.2915962  62.8976822  16.7239892  13.3504820  62.6016426
  17.9001164  12.4004376  62.6732445  28.2799292  33.3152843  79.5141888
  27.9132962  32.8117204  78.7873888  28.1526470  34.2294264  79.2604685
  74.9089576 102.6589559  19.0746689  75.0491215 103.6057781  19.0853596
  75.3354383 102.3627637  18.2705402  48.5832262  43.6889553  72.4306250
  48.5986471  44.1631556  71.5992880  47.7504349  43.9367056  72.8322697
  50.7355547  33.8630581  73.1895018  50.5258036  32.9847097  72.8721046
  51.5177822  33.7427258  73.7278986  33.9335537  51.7112684  44.7362375
  34.1380620  50.7995987  44.9442339  34.7617340  52.1759319  44.8563814
  98.3808328  11.6842978  13.7601662  98.4433629  10.7333844  13.8500977
  97.6632191  11.8196766  13.1413460  75.6476761  88.6589764  22.8485870
  76.2989975  89.3380617  22.6729298  75.1898623  88.5450386  22.0157337
  45.4405022  17.6620448  63.7152958  46.2849903  17.2115600  63.7271070
  45.0043011  17.3742831  64.5172644  60.6985140  23.1531310  60.8450651
  60.5794811  23.5302234  61.7167664  60.9751797  22.2517133  61.0097885
  49.6078003  72.4144231  14.4797325  48.7041403  72.5098728  14.1788769
  50.0689150  72.0292710  13.7345791  72.4349452 103.2654213   3.6510277
  71.5759159 103.3147358   4.0703964  73.0467582 103.1263755   4.3739319
  32.5568151  56.6477442  79.3535757  33.1397438  56.3441706  80.0494671
  32.6887989  56.0225773  78.6408520  74.9667645  70.7959782  19.6932030
  75.2609063  70.3821670  20.5046654  75.4901696  71.5947698  19.6283054
  55.0280190  35.6863880  83.6062813  55.3448391  36.1499929  82.8310776
  54.9253464  36.3696742  84.2687035  41.1953211   8.6391723  36.8063188
  40.6932545   8.7621099  37.6119542  40.9313440   9.3688762  36.2458897
  46.2501246  75.3725313  20.7696342  47.1138150  75.6160306  20.4365063
  46.4284707  74.9429988  21.6062546  75.5218056   3.3147328   3.7126923
  75.0115536   4.0768187   3.4386444  75.1097660   2.5765698   3.2637310
  45.2134562  44.1738987  90.4507542  45.1221800  44.8436594  89.7730160
  44.6150875  44.4518137  91.1442566  42.5152206  55.4580021  77.4553108
  42.4616766  54.8443317  76.7226601  43.1712437  55.0772762  78.0391884
 110.6434013  30.3915494  16.9081402 111.1437322  29.6532624  16.5605354
 109.7509004  30.0565713  16.9945240  23.8458633  56.9169474  67.6320410
  22.9651618  56.6444588  67.3744583  23.7151957  57.4219942  68.4345913
  75.8920813  99.5165609   3.6270905  75.9294415  99.7165512   4.5624161
  76.2845827  98.6467479   3.5522747  60.4806995  28.2914472  87.2738934
  61.4255857  28.1499243  87.3321438  60.3650570  28.8121510  86.4790821
  75.9579159  98.5369323  15.2687454  75.2721000  99.2041658  15.2949810
  75.7182885  97.9198478  15.9601307  91.4476395  91.3048981   4.6876240
  92.1343804  90.9610890   4.1162968  91.0961915  90.5328344   5.1310635
  29.1667151  20.7621002  59.3288803  29.2636275  21.7081475  59.4376564
  28.4257507  20.5312514  59.8891592  27.5455379  27.2857070  89.6965694
  27.9656959  26.6969013  89.0696716  27.3182678  26.7239785  90.4375458
  91.5162850  97.2381376  18.5577106  92.2119237  97.8942417  18.6006832
  91.8157435  96.5335773  19.1322994  63.4822846  90.8385609  13.4035587
  63.9601041  91.0030626  12.5906277  64.1023446  90.3591250  13.9530087
  92.3795809  16.2434285  10.6515694  93.2541420  15.8543866  10.6560230
  92.4821712  17.0577138  10.1589870  26.4552045  51.1081219  71.8841696
  26.2370324  50.6042528  72.6682281  26.4500833  50.4638290  71.1762905
  73.4134007  39.9594116  82.5901413  72.5369406  39.8709512  82.9646015
  73.7277317  40.8038712  82.9131126  91.2700297  22.4062579  14.8545647
  90.7310356  22.2259276  15.6247616  91.9994666  21.7902606  14.9231434
  49.6612787  44.6119404  75.9789419  50.1314449  45.2849531  76.4711094
  50.2930355  44.3057680  75.3282738  15.9670977  20.7704680  19.9868011
  16.8210940  20.7315295  20.4173946  15.9712033  21.6071789  19.5218945
  47.7248573  24.6236658  67.8327608  48.6266041  24.3239164  67.7177000
  47.2415781  23.8373017  68.0863476  51.9096279  50.8304977  84.9070072
  51.1122656  50.6882334  84.3968964  52.6136065  50.5024195  84.3475342
 108.1487395   1.0369437   5.3536415 108.0114891   1.6318696   6.0908318
 107.5356962   1.3400452   4.6839046   9.4189179  57.8785801  71.5474463
   8.6518437  58.1755352  71.0579062  10.1065552  58.5034227  71.3173103
  27.2306752  32.0928240  71.0968256  26.5260959  31.6115284  70.6630516
  27.5966883  31.4686179  71.7234278  54.3713427  42.8618383  80.7771015
  55.2675056  42.9866028  80.4647636  54.4170332  43.0452204  81.7154598
  29.8292327  22.4473739  76.8576002  29.7913361  23.2765675  77.3342896
  30.7539654  22.2010827  76.8785858  33.6226821  48.6460924  70.2890921
  34.5650244  48.5727692  70.4402447  33.3001351  49.1573572  71.0312557
  48.3987808  38.0838132  90.5270004  47.5443268  38.3711171  90.8488655
  48.1975985  37.3855829  89.9039078  95.4630328 101.7685913   5.0609875
  94.6868945 101.2606023   4.8247719  95.3796530 101.9087003   6.0042000
  40.1313877  56.8602276  61.4591265  40.4349184  57.6875305  61.8328476
  40.9066629  56.2988138  61.4587927  19.9265779  78.0717419  19.2388058
  19.0473641  77.8086661  19.5108509  20.4811383  77.8688549  19.9921513
   3.5597853   6.0508196  12.3968315   3.9781956   6.8952124  12.2290039
   3.2381253   5.7685225  11.5406322  22.1553278  31.9583249  67.8565073
  21.8150234  32.7219033  67.3902750  23.0760550  31.9112301  67.5990677
 100.8281733   3.8428252  10.6528950 101.5090944   3.2360022  10.9433270
 101.1486103   4.1797631   9.8162270  33.4126019  73.6706829  78.1196737
  34.0810323  73.9388704  77.4891949  33.8935447  73.5372925  78.9364576
  60.1608754 102.1266245  12.0008278  60.6546975 101.4766763  12.5007629
  59.8774720 102.7664159  12.6539612   5.0930595  20.8001399  55.7950783
   4.6981364  20.8980608  56.6614962   5.8834690  20.2827215  55.9492254
  26.3582945  45.9342289  38.6209416  25.5700970  46.2231016  38.1610179
  26.8955922  46.7230272  38.6940503  32.3475718  66.6589117  91.3261890
  32.5345421  66.6180801  90.3883076  33.1403923  66.3218164  91.7433643
  46.1506677  90.0814246   7.1664429  46.2907315  90.7801937   6.5274334
  46.7347986  89.3777679   6.8837929   1.6000992  65.0413036  81.5592098
   1.8428205  64.3137598  82.1319199   0.9731546  64.6623039  80.9431458
  63.8671207  28.7040830  72.4742126  64.5985651  28.3352828  71.9790268
  63.3918953  29.2380166  71.8375778  96.7347527  64.2591667  64.9757051
  96.0117912  64.5059633  65.5524588  96.5066147  64.6418190  64.1284990
  92.2716488   2.5449460   4.9281406  93.0009927   2.6991265   4.3277168
  91.8379547   1.7646401   4.5827961  46.2553072  33.7545300  83.5502911
  46.1418676  34.6841383  83.7482643  47.1862411  33.6649251  83.3464241
  38.4091544  46.0151958  89.3840504  38.7414598  45.3411150  89.9768448
  38.9837742  46.7667341  89.5297813  17.6473765  18.3199303  15.9803677
  16.9637732  18.9687388  15.8131599  18.2834248  18.4557383  15.2780533
  22.4136996  49.3128681  64.9332619  22.6253343  48.3866501  64.8167849
  21.4704418  49.3642855  64.7788286  78.1550312  28.3387685  80.9928703
  77.5168514  27.6499414  81.1785507  78.7719965  27.9353905  80.3822327
  31.7447233  46.4883900  73.8050032  32.6541424  46.5793324  74.0894651
  31.2299752  46.8343067  74.5341206  51.2400675  42.5098133  87.7680874
  51.6742325  43.0648422  87.1202660  51.6676474  42.7286720  88.5960388
  60.3387953  63.2466565  20.1606464  60.6241799  64.0177070  19.6704769
  61.1031938  62.6705633  20.1671982  63.9573074  94.2321561  21.8268776
  64.9084974  94.1254495  21.8176079  63.6159898  93.3517765  21.6698360
  21.2824345  53.5315084  56.3198376  21.4021826  54.4809389  56.2979317
  20.3364158  53.4075785  56.2428761  35.0670195  22.6072311  82.4682140
  35.6878066  23.1324625  82.9731750  35.2108073  22.8737688  81.5601921
  31.3619852  65.4065847  71.0418940  30.6094122  65.6020069  70.4836178
  31.2905288  64.4689417  71.2206602  35.4765201  78.0064249  76.4721489
  35.6129122  78.6212063  77.1930361  34.5762777  78.1657505  76.1885786
  70.5335952  68.3429478  11.5175247  70.5711437  67.4727439  11.1205769
  71.3807059  68.7375043  11.3102531  67.5166066   2.7923148  11.2577724
  68.3298327   2.7065795  10.7602406  66.8862762   2.2519581  10.7814026
  68.1251049  58.8616514  86.0971928  67.4101448  59.4962168  86.1460590
  68.2766771  58.6011887  87.0057201  59.9212646  76.1547089  75.0714827
  59.3679571  75.3854132  74.9363327  60.7716179  75.9045982  74.7101212
  29.5468712  74.5788908  61.9836617  29.8097301  75.4729605  62.2022390
  29.6007347  74.1038942  62.8129435  47.0151758  70.4580927  70.5947256
  46.5415335  69.6264267  70.5796337  46.6560745  70.9245729  71.3494921
  72.5227023  57.2322558   8.2729626  72.3440624  57.6954495   7.4545670
  71.8583298  56.5440913   8.3086300  44.7102690  31.3753486  57.5223494
  45.4353857  30.8069158  57.7818155  43.9870453  31.1168647  58.0936337
  36.7058516  43.0804920  76.7394686  36.9177246  43.9713860  77.0181179
  37.3512483  42.5306940  77.1837807  15.1597881  40.7272530  87.8809071
  14.7715998  41.5485191  88.1826782  14.4340420  40.2549839  87.4728870
  71.4918518  19.8913789  63.7029600  70.7862473  19.5415068  64.2469692
  71.8663549  20.6016135  64.2240620  44.2684412  82.8179932  49.2132711
  45.1003170  82.9122448  49.6773148  43.8783598  83.6916637  49.2410660
  36.5205836  10.9170759  76.8180370  36.6126752  11.4158928  77.6297808
  37.2735810  11.1798382  76.2887096  40.9865618  51.0385561  73.3291960
  41.1683607  50.2636671  73.8609171  40.8044147  50.6922436  72.4556255
  74.8119546  79.8912715  32.2113037  74.1101814  80.5221127  32.3718739
  75.2728177  80.2353047  31.4461327  23.0987096  55.7955933  77.2286415
  23.0315089  55.6313705  76.2880278  22.8548312  56.7157269  77.3291540
  50.8621597  48.7602711  78.7040615  51.6935682  49.2064381  78.8650751
  50.2994061  49.0336418  79.4284964  25.2450804   9.6475594   3.5146618
  25.2725796  10.2376788   2.7615166  25.1792006  10.2289574   4.2722034
 101.2268354  35.3622239  20.4091740 102.0329286  35.1380723  20.8741474
 101.2807848  34.8743718  19.5873928   7.3714165  99.7439312   8.5075092
   7.4779800  99.5413135   9.4369316   8.2602600  99.9150346   8.1962204
  88.6154366  99.1166042   1.4436626  89.0147305  99.9278091   1.7578888
  88.0621291  98.8255714   2.1684933  30.9399295  59.8190212  81.0789967
  30.6567192  58.9047003  81.0855103  30.6147957  60.1763535  81.9053364
  75.3770828  36.0409617  67.3955202  75.1285791  35.2339339  66.9447565
  75.2959204  36.7226243  66.7284536  64.6000290  24.6838498  67.6502323
  63.9804125  25.1758027  68.1890106  64.7642851  25.2503467  66.8963528
  48.8121271  47.3979092  83.7986374  49.6275377  47.6228094  84.2467022
  48.6398983  48.1449175  83.2254410  10.4328620  46.2078810  83.9786053
  10.9666419  46.7757463  84.5343304   9.5516157  46.2722826  84.3466854
  20.8943701  19.6408403  72.0473480  20.4643703  19.2590916  71.2821007
  21.4321733  20.3483558  71.6917896  65.8433437  10.0582337  70.4454327
  65.2182627  10.0942731  69.7214127  66.0394144   9.1267908  70.5464411
  40.1795149  57.0385027  77.9641724  39.5016432  56.6800308  77.3912668
  40.8705807  56.3761902  77.9610777  85.6616783  73.4982204  75.5362749
  85.8949852  72.9742146  74.7699738  85.7779217  72.9036903  76.2773895
  16.2475066  26.2194102   1.7289352  16.3751416  27.0102828   1.2050438
  17.0639567  25.7302706   1.6270542  35.2719407   7.4358075   5.6631088
  34.9377303   8.1448691   6.2124348  34.4871621   6.9982903   5.3330517
  61.7276859  55.4924870  86.5190697  61.8479967  55.6868505  85.5895710
  62.4390173  55.9610367  86.9557667 110.5569554  24.5870513  84.4903088
 109.7393180  24.9747581  84.8023510 110.9050036  24.1189116  85.2492142
  84.8819256  98.0065250  86.6947556  85.1847649  98.6190319  87.3650932
  83.9293671  98.1006527  86.6970921  66.8936443  80.2827072  61.9507456
  66.4060211  79.8974133  61.2227392  66.7638111  79.6716785  62.6760149
  40.5737357  19.7011702   5.4502392  40.4831462  19.6585505   4.4982910
  41.2732939  20.3380482   5.5959797  85.7607365  66.9257545  80.8869743
  86.0066795  66.0440159  80.6071758  86.4920902  67.2169495  81.4315510
  90.9908391  88.6482261   9.6155739  91.5410758  89.4312786   9.6328163
  91.5965367  87.9342149   9.4166851  50.2137709  67.3822927  75.6438065
  50.4083014  66.4802742  75.3893518  49.2631578  67.4554062  75.5588627
  59.6992826  74.2767048  70.0400972  59.7290516  74.3626785  69.0872288
  58.7661600  74.2918158  70.2529097  73.6614156   1.8906039  48.9867210
  72.8316022   2.3199862  48.7786865  73.5009409   1.4511317  49.8217916
  65.3035212  61.6746902  81.1801052  64.4689369  62.0996571  81.3778496
  65.0765753  60.9739923  80.5687523  16.3424838  72.2206450  77.0145988
  16.8047345  72.2824526  76.1786938  15.9445190  71.3501549  77.0044327
  46.0130839  15.1464551   7.1670532  46.9191222  15.0607627   7.4636745
  46.0610442  15.0402300   6.2169743  80.9993267  53.6224794  74.5520306
  81.5321350  52.8381300  74.6829128  80.6288910  53.5169125  73.6757517
  16.8915753  20.3234332  10.5465221  17.1571927  21.1431639  10.9633160
  17.7100567  19.9367230  10.2354240  60.4661608  80.9816647  81.7632294
  59.9340487  81.3854218  82.4488449  60.5951643  81.6777802  81.1190224
  69.2417813   8.3562774  74.1399908  69.0268470   8.1498546  73.2303619
  68.9378834   9.2560309  74.2596579  77.7006865  69.0576267  83.3465958
  78.0770016  68.6128712  84.1060734  76.9440269  69.5287323  83.6955261
  63.4101868  67.8097630  79.0659618  63.3253336  67.7419519  80.0169754
  62.8001595  67.1562624  78.7238693  60.1238728  77.0467949  42.9095078
  60.2536917  77.1320724  41.9649982  60.1415777  77.9464531  43.2359028
  59.9704218  63.8283062  83.7452888  59.4563961  63.0384159  83.5777187
  59.3312359  64.5402956  83.7179852  29.8543791  64.3539612  13.7777996
  29.5504145  64.8532479  14.5357895  29.5022206  64.8259919  13.0232048
  76.8055391  87.7865410  72.9898787  77.1215725  88.4784317  72.4088049
  77.6012039  87.3849010  73.3389330  87.4866915 102.4877809  20.7439804
  87.1804572 103.3665489  20.5198860  86.9612695 102.2376035  21.5039730
  73.9076138  88.8435173  59.2994452  73.3153152  89.4028950  58.7969398
  73.7349653  89.0714645  60.2129316  75.8663607  80.6393337  79.9502707
  76.6315603  80.6185627  80.5249596  76.0130501  81.3965416  79.3833971
  17.9974225  47.7650642  82.6773834  18.3383134  47.5005054  83.5317993
  17.4775460  47.0165300  82.3847103  10.3884987  33.8270848  35.2290344
   9.6461014  34.3270009  34.8896694  10.2484612  33.8031094  36.1756325
 111.2302590 102.4943184   4.9018288 111.1915160 101.5677475   4.6647930
 111.2439824 102.9557012   4.0632820  57.2754145  52.2776556  85.0814533
  58.0165911  52.1930647  85.6812382  56.5879774  51.7385721  85.4726791
 108.5176708  15.8324378   7.7429390 109.1253211  15.8586638   7.0038128
 108.1001259  16.6937630   7.7404118  93.6947632  61.9261551  87.3880291
  93.5322475  62.7831745  87.7821541  93.1409645  61.3247061  87.8858185
  35.5728726  17.3061841   0.8736706  35.6743769  16.5529482   1.4555264
  34.8013405  17.7641862   1.2071514  30.5327468  30.9188454  14.8658466
  29.7739844  31.3129418  15.2961922  30.9988932  30.4666989  15.5690575
  71.1699057  79.7604656  90.7321644  71.4334774  80.5699158  91.1698246
  70.9424973  80.0320816  89.8429298  66.0038948  66.3950396  78.0600119
  65.2805233  66.6884041  78.6139965  65.5870962  65.8572912  77.3867035
  39.4705968  30.7350438   9.4860649  40.0178914  31.4125435   9.0889454
  39.3261675  30.1014035   8.7833023  50.6131172  35.8095884  87.6440620
  50.6742954  35.1584101  88.3429623  50.7086086  36.6505313  88.0912018
  57.5446558  63.2536268  78.9524841  56.6683006  63.3160114  79.3324137
  57.6470900  62.3265028  78.7375736  74.5944357  82.5350666  87.6969910
  74.7375107  81.7060566  87.2403717  75.4746771  82.8752708  87.8572273
  66.4439583  69.4216251  42.1383047  65.7182312  70.0232315  42.3045111
  66.0786104  68.7630367  41.5475321  90.4777814   8.4308547  62.1307659
  90.2302314   7.7344436  62.7390099  90.8990956   7.9742927  61.4025688
  62.6998926 101.1935972  21.1393452  62.5638915 102.0671533  21.5062714
  61.9540430 101.0607790  20.5542851  42.1003298   0.0445979  19.6856976
  42.3920684   0.9534400  19.6140671  41.6068892   0.0153439  20.5053902
  15.9777407   0.9831851  14.9237728  15.8936934   0.3594201  14.2026043
  16.7982058   1.4437001  14.7477341  54.3636656  85.6814671  73.2444239
  53.5321331  85.5041409  73.6841249  54.3076563  86.6020966  72.9883957
  31.0332446   9.7101061   3.8643742  30.6422000   9.3166201   3.0843163
  30.5111937   9.3705361   4.5912743  12.1486907  21.4899819  19.6432400
  12.1349673  22.1490519  18.9492130  12.5306039  21.9422095  20.3954792
  66.5018702  49.6310139  78.1243134  66.5623617  50.1344824  77.3124647
  67.1498060  48.9338255  78.0226183  74.7048664  67.5783968  79.3061972
  74.5805168  66.9897509  78.5617065  75.6324816  67.4933195  79.5264721
  19.2798237   5.2208607  20.7279873  19.0145306   4.9161284  21.5957356
  20.1787429   5.5277150  20.8463669  94.4138432 100.2867292  15.9869099
  93.9150573  99.7648214  15.3583717  94.7058583 101.0489868  15.4869843
  23.3843780 100.9547043  82.6730537  23.0013919 100.5321693  81.9042873
  22.6320839 101.1954212  83.2137489  84.9594021  81.3025665  53.5241461
  85.8773232  81.2104321  53.7794161  84.8134232  82.2480297  53.4921837
  37.1371750   4.2874663  12.1679878  37.8287844   4.5679419  12.7673531
  37.0527939   5.0093215  11.5450573  70.9386063  90.9236717  66.2845945
  71.6290665  91.5847301  66.3345432  70.6177950  90.8440685  67.1829128
 103.5726048  48.8929932   0.9113407 102.7404596  48.4556286   1.0915375
 103.7810089  48.6491006   0.0094986  49.0301800  83.1775951  57.9160786
  49.0895653  83.8369083  58.6074591  48.8546085  82.3590374  58.3801603
  37.1171260  83.5144138  78.9499998  36.5943336  83.7522030  78.1842470
  37.6560926  84.2866993  79.1212463  46.4747195  34.5982163   5.0636005
  46.5305094  33.6940758   4.7543430  45.5371718  34.7558396   5.1749706
  33.5585408  19.3459075  10.2485561  34.4542269  19.5318549   9.9667645
  33.6345629  19.1671698  11.1858463   5.0488381  44.5132821  16.3399696
   5.9267239  44.1320317  16.3260269   4.5386080  43.9195912  16.8908119
  96.5857077 105.5022882  32.1362114  97.4848271 105.4916643  32.4643898
  96.2184668 104.6639942  32.4166107 111.8040752  64.0378284  79.2095184
 111.0561180  64.5970631  79.4193745 111.5245724  63.5431099  78.4392166
  70.8022976  87.7166080  59.8402405  70.7509279  88.6480331  60.0548029
  71.2406445  87.3210812  60.5936623  10.5275826  26.6338914   2.4813557
  10.1528744  25.7744925   2.2883415  10.1983456  26.8481581   3.3542442
  16.5966515  48.8912480  24.2206478  15.8209757  48.5843270  23.7512302
  17.3154692  48.3713238  23.8611984  42.1397448  80.9106922  62.6601839
  41.6553974  81.7141819  62.8500319  41.8009853  80.2727509  63.2882786
  59.8326254  81.7768478  49.8341322  60.7887030  81.8121529  49.8641348
  59.6248055  80.8456612  49.9111891  97.5832988  50.8001607  16.0671616
  97.2771980  51.4775937  15.4641533  97.7006341  50.0254052  15.5174160
  82.5180149  72.5349951  81.2854004  82.6680660  72.9847860  80.4538918
  83.0632019  71.7498541  81.2347889  71.0389328  83.5086727  82.6296425
  71.1242294  82.8690910  81.9226170  70.2642250  83.2263756  83.1158161
  72.3478889  97.6606369  61.5928364  72.2757006  97.1152210  62.3761272
  73.2833385  97.6658726  61.3900137  35.4156399  88.8507271  75.3441429
  35.1338935  89.2170429  74.5058966  36.1147714  89.4348145  75.6379032
  64.0308046  80.9238911  70.9686184  63.6604452  81.0234261  70.0916052
  64.7701645  81.5315533  70.9867668  29.5643906   1.0894507  64.3339443
  30.4311947   1.2376231  63.9558840  29.3280796   0.2056998  64.0521908
   0.8591752   6.6523640   6.0995007   1.3765864   7.1601193   5.4744434
   0.1425628   6.2898820   5.5786324  32.7705482  15.7434100  58.4567690
  31.9809345  16.2338370  58.2282448  32.9076580  15.9295100  59.3856430
  69.1872363  12.6489966   5.3952885  70.0477175  12.6853888   5.8130074
  69.0426306  13.5364478   5.0670242  68.4789228  96.2343502  59.9902391
  69.3747377  95.9240246  60.1223278  67.9282856  95.5207157  60.3123331
  94.9368858  92.2378254  53.8265944  95.0485516  91.3060379  53.6380911
  95.6463909  92.4459267  54.4344759  73.1790829  92.8244209  86.5109634
  73.8477850  93.2686710  85.9897137  73.6748600  92.2934055  87.1342373
  20.7701449  34.7675126  20.7359123  19.8689990  34.4705193  20.8622932
  21.1607079  34.1096108  20.1607037  91.6412449  73.7949753  76.1041260
  92.1238804  73.9524031  75.2926445  90.9322453  73.2040930  75.8503342
  61.0006618  67.7953768  84.4830227  61.3241196  67.6382828  85.3701115
  61.3871479  68.6344051  84.2322350  72.7161312  60.2100706  78.9867878
  72.8274918  60.3775978  78.0509663  73.5460663  60.4812622  79.3790817
  22.9716305  26.1912148  35.0141335  22.9419951  26.9061558  35.6499195
  23.8489632  26.2440436  34.6350288  32.2025876  77.1459668   7.0707321
  31.5692000  76.6233151   7.5625610  32.3434596  76.6531651   6.2623215
  72.0921898  75.8748293  48.8248444  72.4622869  75.1565790  49.3380451
  71.6752958  75.4454374  48.0778122   1.1986975  47.5986855   6.8139362
   1.9750433  47.8858082   7.2946453   1.4095931  47.7674286   5.8956337
  94.6065235 101.9333458  71.7506933  94.6003342 100.9961414  71.5561819
  94.4004440 101.9856358  72.6839828  26.5360217   6.2267726   9.2759418
  26.2455754   5.3186171   9.3603706  26.8788008   6.2866919   8.3842373
  87.7289153  96.6056083  28.1419277  87.4125434  95.8411001  27.6606083
  88.5855532  96.3402914  28.4766006  77.3095846  71.6282177  66.3114643
  76.6575289  71.5817165  65.6122541  78.1437349  71.4615965  65.8725309
  92.7546692  78.7935686  85.2182961  92.9409981  79.6911621  84.9429035
  91.9002247  78.5975981  84.8339272  80.8007102   4.0844481  10.8224487
  81.1994605   4.4850056  11.5949631  80.6382136   3.1770032  11.0800743
  55.3489590  85.5532551  80.5349445  56.1647320  86.0277748  80.3750324
  54.7163677  86.2344742  80.7629776  37.1286730  50.7378857  17.3227406
  37.9348139  50.3207486  17.0188141  36.4363532  50.1193135  17.0897198
  18.3057789  16.3563101  17.6079845  18.9393668  16.5358060  18.3026600
  18.2227282  17.1866839  17.1391392   1.2330346  14.4829886  30.8230209
   2.1403198  14.4207614  31.1216736   1.1825590  15.3330128  30.3858280
  79.3002224  43.9070129  86.0458565  80.1088619  43.5314178  85.6976128
  79.5854998  44.4508123  86.7801094  56.9379520 100.1640224  83.5979557
  56.5385056 100.9679794  83.9301014  56.1971712  99.6269226  83.3168888
  47.1141434  80.6789494  26.5888691  47.4735022  80.5543900  27.4672651
  47.7793217  80.3156853  26.0042262  27.6706362  87.3622513  45.4607630
  27.4348521  86.7235279  46.1335754  27.2552228  88.1758022  45.7467651
  55.5968718   5.3690808  20.0508881  56.3123278   5.9679740  20.2646065
  55.9000926   4.9018233  19.2724609  51.8793821  79.4253588  54.2478800
  52.2504091  80.1595592  53.7584686  52.3344755  79.4443178  55.0897598
  88.7926769  81.7264462  78.5977411  89.5214462  81.9749546  79.1664076
  88.5724449  82.5295925  78.1258440  18.6539769  94.4558334  75.9525394
  19.4437397  93.9723015  76.1948395  18.1148684  93.8162422  75.4872179
  68.0017237   3.4807532   7.7187443  67.8465228   4.2550652   8.2596493
  67.4279933   3.5985463   6.9616508  10.7945446  16.0922736  83.7934113
  10.4311088  15.2788276  83.4434795  11.7419533  15.9563273  83.7806225
  93.8385201  98.4947777  77.3693609  94.5428276  99.1101646  77.1656942
  93.9539909  98.2977104  78.2989120  13.3533625  63.7812417   9.6963596
  13.8105158  63.0401986   9.2987442  13.4540944  64.4923012   9.0635204
  89.3476105  87.4353886  74.4389915  88.8292313  87.0187759  73.7505531
  88.9889812  88.3202934  74.5065308  67.9070211  15.3500384  59.3138790
  68.2671619  14.4673461  59.2279577  68.6743737  15.9221953  59.3206358
  96.5999724  75.1083653   3.3919144  96.4657475  75.3062146   2.4650574
  97.4136163  75.5591958   3.6176777  46.3931847  83.2738686  50.8778429
  46.5149546  82.4620533  51.3701391  46.1376095  83.9182281  51.5379286
  65.8285427 101.8244171  88.5390377  66.2252998 102.4355888  87.9183197
  66.5725183 101.4140415  88.9798641  87.2812366  82.6726818  87.0625305
  87.8635311  82.6493549  87.8218842  86.8857288  81.8013859  87.0371342
  52.5929308  74.6367931  76.0981321  52.6680279  73.7591124  75.7236099
  53.3927584  74.7470379  76.6122913  79.6323395  87.7252102  77.3812532
  79.4193745  88.3421993  78.0814075  78.7917233  87.3347759  77.1421814
  65.2565479  88.2413769  66.0084295  65.2093983  87.4243927  65.5119085
  64.5506620  88.1720924  66.6512012  42.5319529  58.8282442  86.9584084
  43.3465862  58.3335066  87.0469856  42.7568483  59.5588064  86.3822746
  40.2633238  83.5711288  67.6662779  40.6020594  82.9493904  67.0221186
  39.3640423  83.2846355  67.8258038  20.0406316  59.4476843  82.2381496
  19.1529229  59.1807413  82.4767685  20.3278974  60.0007057  82.9646969
  69.4472694 101.2646484  79.2718697  69.6454573 102.0721722  78.7976837
  69.3914604 100.5944633  78.5907173  53.8863420  64.8240757  89.4435406
  53.7919807  64.0736675  90.0302410  54.8056746  65.0778246  89.5251846
  40.1342110  53.1898968  24.9365044  39.7281222  54.0361397  25.1241398
  41.0072617  53.2520192  25.3240013  54.3361616  88.5206032  69.5948601
  53.4899616  88.0759907  69.5449018  54.3345451  89.1229057  68.8509083
   4.6231321 105.0233841  89.9304104   4.1739038 105.1513672  89.0949249
   4.3490174 104.1528034  90.2188301  86.9254399   4.0863437  74.4387150
  86.3754416   4.2323321  73.6690235  86.9309188   3.1359309  74.5523882
  62.9718685  64.8155308  50.7511091  63.3259153  64.1325760  51.3207197
  62.2425318  65.1870394  51.2473774  71.3223600  88.3215427  65.6671762
  71.4422464  89.1843224  66.0640049  71.1203146  88.5058022  64.7498655
  45.9318686  82.7487946  71.9273853  45.6448460  83.5817051  71.5530729
  46.0898733  82.1870136  71.1686516  92.0232106  20.0220698  88.8640976
  92.4788476  20.8633822  88.8927650  92.6536275  19.3960017  89.2202568
  64.5789814  73.9949131  30.0489044  65.1230001  74.6124554  30.5376887
  63.6856174  74.1829586  30.3365993  10.8048730  42.7073090   2.0640945
  11.2291388  41.8743031   2.2698593  11.2615113  43.3493703   2.6076603
  58.1060171  61.8809891  85.7860374  58.6627150  61.1594725  86.0788345
  58.1724405  61.8625498  84.8313236  91.2227917  83.6330891  59.0296698
  91.6030121  82.9823399  58.4396029  90.9782982  83.1351948  59.8097658
  56.4898348  80.1642418  66.9062519  57.2032452  79.6952581  66.4734364
  56.8577576  81.0238743  67.1109247  46.3686470  96.4689468   3.6986065
  46.9679264  96.5214752   4.4431496  46.8380073  95.9444355   3.0498981
   7.3188214  32.5571149   1.5187263   7.3695426  33.4920590   1.7176056
   7.0024972  32.5210850   0.6160164 101.5082932  86.5372086  62.8247070
 101.8750191  87.0556927  63.5408831 102.2716618  86.1649513  62.3832083
 107.5594880  12.7998202  21.0813427 106.8873097  13.2593815  20.5781364
 107.7622797  13.3912127  21.8061543  88.4010887  68.8067341  47.4712753
  88.2175446  69.5633221  46.9143963  88.0558300  68.0599117  46.9821072
 101.4203597  32.3287601  87.5361347 101.0945178  31.6882915  86.9037914
 102.3703147  32.3190516  87.4190235  12.7447896  25.1856177  45.9069252
  12.5258069  26.0558694  46.2400055  12.1917681  24.5896571  46.4121246
  34.5207453  99.4234276  54.0110874  34.4773674  99.2728424  53.0668020
  35.3325438  99.9143791  54.1382933  53.5816765  87.4663925  81.5552235
  53.2503986  88.1884956  82.0891380  53.2547474  87.6500797  80.6745434
 105.7894707  18.0280417  82.9138184 105.2644921  17.5283259  82.2885799
 106.0525943  17.3857135  83.5729313  97.3305537  47.5103848   4.7290707
  97.7594639  48.1138985   4.1224194  97.5404908  46.6402905   4.3898106
   4.9597792  25.4395598  47.3034334   4.1275076  25.5974978  46.8577719
   5.0188211  26.1381358  47.9551601  27.2162914  97.2690487  74.1381121
  27.4789476  96.3530064  74.2281532  27.6156473  97.7076721  74.8893547
  29.3529849   5.5479949   8.9024735  29.0581183   4.9617236   8.2056427
  28.9408927   6.3877289   8.6993504  67.4573378  44.5369809   8.8114357
  66.6284518  44.2037385   8.4677410  67.3389010  44.5399087   9.7612762
  54.1370440  66.7910719  78.5580397  53.4077358  67.4095488  78.5152292
  53.7384272  65.9703732  78.8474989  13.4714131  61.1081593  35.2721024
  14.0176825  60.3647988  35.5275249  14.0401082  61.8708127  35.3778458
  80.2170944  55.6596422  86.3729095  79.6041059  56.2694311  85.9622669
  79.7950649  55.4138088  87.1961308  16.4332442   0.9965556   3.7808037
  17.3902945   1.0130065   3.7769222  16.2080769   0.3069918   4.4053268
  72.0835876  88.9683533  89.1694832  72.0547771  89.3980312  90.0243282
  71.3494682  88.3543015  89.1851902  43.5727310  98.8521957  78.0452871
  42.7443647  98.6598206  78.4846354  44.2028999  98.9580631  78.7579679
  38.0388217  20.1790373  19.7568226  38.8574223  20.0848525  20.2439117
  37.8093104  21.1035674  19.8506451  68.6932755  67.0180845  74.9211597
  68.9354753  67.8896570  74.6082211  67.8189421  66.8688011  74.5613098
   5.8840088   3.2098884  64.9750614   5.8430389   3.5737437  65.8594561
   6.5415291   3.7422294  64.5272779  16.2762742  54.4144814   6.9886017
  16.7253928  54.0929883   6.2068272  15.9227614  55.2652543   6.7289066
  84.1381269   1.8854629  28.8160515  83.3384138   2.1805870  28.3806324
  84.7581964   1.7358982  28.1023407  57.6305819  76.8278837  73.0006647
  57.0449495  77.3766994  73.5222626  58.0566359  76.2570620  73.6400986
 103.3261754  27.4751179   5.7114220 104.0432669  26.9323771   6.0391998
 102.9560091  26.9708865   4.9868774  73.5951138  94.2162132  80.6404018
  73.8498545  94.1592979  81.5613270  74.4064426  94.0592861  80.1573372
  96.5792465  97.4899769  66.0793447  96.1566830  97.0182419  65.3616142
  97.3625278  97.8739166  65.6852627  52.3010874  78.4103394  70.1998949
  52.8464460  77.7958202  70.6909990  52.8531837  78.6897230  69.4695711
  64.2021942  99.6239185  47.9861307  64.8079395  98.9259148  47.7369452
  64.7124863 100.1876450  48.5675478  25.1953177  54.1868584  25.4177952
  24.3660168  53.9194768  25.0215530  25.7595067  54.3971436  24.6736813
  83.1190444  24.1263217  78.1946039  82.3907138  23.6485023  78.5914183
  82.7074099  24.6886271  77.5384045  73.7101221  80.8366680  61.9431448
  74.1927338  80.1157093  61.5387535  74.3064737  81.5835285  61.8902493
  37.1038918  49.1905205   4.3439865  36.8441872  49.5881360   3.5129070
  37.7996688  49.7588532   4.6743298   2.8575758  13.6876410  90.5629158
   3.5555319  13.0581588  90.7441235   2.8139118  14.2301196  91.3503456
  40.6839132  72.0157003  85.2281952  41.5646505  72.3825026  85.1508141
  40.2305269  72.6062298  85.8298111  69.5264339  89.0188217  71.6436291
  69.1243649  88.4260273  71.0086727  68.7885332  89.3795681  72.1351576
 103.1396580  66.8724442  34.2207980 102.7993393  66.7571402  33.3335996
 103.2955265  65.9818745  34.5351601  44.5920086 103.2779694  88.1415176
  44.1078997 102.4539375  88.1948185  45.3694677 103.0660343  87.6249313
 102.4074364  91.3152218  86.5384293 101.9769478  91.7341423  87.2836876
 102.8398609  92.0336246  86.0767651   3.0923036  63.0691195  68.4619856
   3.0907109  63.3511686  67.5472832   3.7971738  63.5743141  68.8671732
  26.4005093  46.6080659   1.7440891  25.6862931  47.2440426   1.7849731
  26.0305028  45.8080571   2.1173286  88.0764294  93.7076950  63.0720615
  88.3663559  94.5615387  62.7509260  88.8865471  93.2199860  63.2206249
  56.9181776 101.4346123  77.8192711  56.0149574 101.2012768  77.6048374
  57.0101213 102.3383999  77.5177050  66.3055563  72.6010942  84.8901939
  66.3169193  72.6329374  85.8468056  65.3938627  72.4126339  84.6676350
  33.8526444  53.4723370  15.6841278  34.3217759  54.2886822  15.5116749
  34.1997866  52.8558152  15.0394440  87.6704730   9.8122923  20.0187397
  87.3620333   9.3692010  20.8091640  88.6247088   9.7969191  20.0924397
  81.9338512  84.8614311  72.4543905  81.8960476  83.9076519  72.5258684
  82.0020390  85.0286484  71.5143776  50.0109339  84.1314507  82.3310661
  49.4458151  84.0191841  83.0954361  49.8326111  85.0224495  82.0301533
  14.1709189  40.7015126   2.0945740  13.3785252  40.4638569   2.5760937
  14.4617562  39.8827641   1.6929531  61.4223814 100.5154324  47.8997135
  60.9961796 100.1302338  47.1340704  62.1567202  99.9300385  48.0848885
  96.7379475   0.7518596  76.1662817  96.8206788  -0.1979238  76.2517166
  95.9088994   0.8795566  75.7051945  68.4616470  96.6277313  74.4182968
  68.8637352  95.9115219  73.9267778  67.5204325  96.4695930  74.3451977
 106.0743047  78.2726853   5.2197838 105.4049326  77.5884907   5.2130032
 106.9005014  77.7985375   5.3136826  75.6742883   2.6369399  88.5348225
  76.1973763   3.3754653  88.8465691  75.6107093   2.0526332  89.2903233
   3.0327801 104.5376180   5.8655643   2.2952131 104.7227501   6.4468956
   2.9422430 105.1718258   5.1543522  80.1807594  86.2863159  83.3283997
  79.8930502  85.8657837  84.1387081  80.5078411  87.1420860  83.6057281
   5.0060895  80.8387566  48.9930820   4.8490956  79.9792719  48.6020899
   4.1398481  81.2436104  49.0372896  65.6670070   0.9901828  86.8759727
  66.4287663   1.3076419  87.3609161  66.0244084   0.3493136  86.2613392
  50.8296824  81.7986774  67.8221560  50.7616806  81.7430592  66.8689966
  51.6894960  81.4290237  68.0229139 101.3197517  99.3121243  67.3039913
 100.4049206  99.0597153  67.4288559 101.2855148 100.2490425  67.1110010
  27.5091223   7.2812693  13.3777332  28.0730681   6.5729420  13.0671406
  27.2841601   7.7723353  12.5874901  27.5927310   1.8663304   0.8087158
  27.2635417   2.4287694   1.5098095  26.8048911   1.5292971   0.3821659
  78.6472130 102.0186710  70.2454185  78.6781883 101.7334938  69.3322086
  78.4461737 101.2230206  70.7381153  79.1918325  94.1605377  79.9517488
  79.6588659  94.7191715  79.3304253  79.8421526  93.9526176  80.6226254
  51.7551284  34.5039361  19.9549389  51.9338755  35.4441540  19.9383545
  51.8703036  34.2221921  19.0474129  12.0278981  60.7494497  55.2540445
  12.0677331  61.1080217  56.1406517  12.8890947  60.9372330  54.8808193
  29.5857339  27.1091693  21.7226028  30.3052907  26.4796822  21.7696095
  28.8167004  26.6155760  22.0075321  49.1631655  52.5594895  14.4542122
  48.5388140  51.8452542  14.3266201  49.8276381  52.4201672  13.7794495
  46.5420675  98.1720829  89.9738503  46.1428976  97.7556705  90.7377148
  45.9168053  98.8495255  89.7162819  67.2508192  84.4565392  66.5996742
  67.2137403  84.7791290  67.5001097  68.1207561  84.7091007  66.2903976
  58.8868093  65.3747368  86.5526485  58.1572723  64.8137903  86.2893200
  58.7367249  66.1973333  86.0867786  59.8199463  97.5936794  69.6955061
  59.1638803  97.2798538  69.0731525  60.5559158  97.8693008  69.1490555
  68.2555628  69.1556263  44.1674566  68.5706568  68.2573223  44.0674734
  67.5758600  69.2467451  43.4996748 106.2728692   1.5762443  72.8522539
 107.0455075   1.7133826  72.3041201 105.5575372   1.9841498  72.3642540
  31.7432690  69.0918159  68.7929249  31.1551595  69.3569708  69.5000696
  32.2228503  68.3434629  69.1481781  52.8418116  77.2549908   4.3081570
  52.9569487  77.5710385   5.2043056  52.7870326  78.0506032   3.7787724
  57.1883488 104.6726799  60.6536865  57.9851723 104.4271088  60.1835823
  57.3596239 105.5604649  60.9679079  45.4903650  93.4531784  85.3776836
  44.6010160  93.1594849  85.5752659  45.9403849  93.4393311  86.2223816
  79.1531372  65.1817369  86.8251610  78.5681772  64.4241381  86.8153286
  79.5975447  65.1302338  87.6713848  99.8807122  61.6084664   7.9582882
  99.4487049  61.9453042   7.1733379 100.3202583  60.8100312   7.6658249
  84.2620946  79.4297289  45.9130096  84.6939183  80.2839421  45.9217834
  83.5286189  79.5258878  46.5204620   4.3646244  24.9902553  79.7409678
   4.2087320  25.8093089  79.2707825   3.9886383  25.1370257  80.6089115
  32.2807813  84.8863411  75.1294518  32.8912115  84.7724533  74.4010067
  32.5730371  85.6876945  75.5637980  35.0555091  76.0930150  28.7652588
  34.1929965  75.7381909  28.5498524  35.0339179  76.9915288  28.4359646
  16.8167882  24.1628020  20.4997540  16.4993291  24.3500893  21.3831425
  17.4116187  24.8858397  20.3006935  10.7578044  26.0473149   5.4567146
  11.6128258  26.2327235   5.0683975  10.9495883  25.8435052   6.3720894
   0.7889608  16.8229121  84.6803951   0.9649280  16.5964049  85.5936050
   0.1444677  17.5289840  84.7286606  48.8195376  73.4630768  27.4551582
  49.6503691  72.9916661  27.5162220  48.9966635  74.3136208  27.8569603
  74.0460205  91.1868668  77.7074432  74.4576931  91.3004208  76.8507814
  73.1592321  90.8860779  77.5090456  49.9753952  91.1366558  60.2731800
  50.6041145  90.5851746  60.7388115  49.1869497  90.5979156  60.2073336
  45.0433969  86.7893982  45.6468487  44.7701836  85.9133911  45.9192276
  45.2137375  86.7062473  44.7086000  63.2012177  80.5578327  36.5781641
  63.3652020  80.4135036  37.5101042  64.0478802  80.4032230  36.1592388
   3.0379918  78.7831831  83.6555004   2.3315099  78.4808588  83.0847931
   3.0725530  78.1341743  84.3582344  68.8307428  99.7847939  83.2405567
  68.3112669  98.9846039  83.1625748  68.3405590 100.4381657  82.7414989
  18.8678174  44.3945019  24.3558121  18.5129552  45.2071755  23.9954281
  19.0341715  43.8453000  23.5896969  18.5333495  27.1562235   8.1465912
  18.4688143  27.0873730   7.1940517  19.3596892  27.6149457   8.2981300
  44.0120983 104.5845890  49.0527821  43.0756474 104.5720482  48.8549757
  44.3519306 105.3287315  48.5557795 109.4683911  50.5411523   6.5806103
 109.2569686  51.4746468   6.5694904 109.8764040  50.3778355   5.7302666
  99.9355698  80.0029850  87.2564316  99.5662308  79.1418123  87.4518681
  99.4279099  80.6093216  87.7957630  33.7421612  46.2495320  10.9501743
  34.6764474  46.0954373  11.0901642  33.5229735  45.7150262  10.1869583
  69.8602390  64.8994446  79.1208076  69.3397951  65.2738762  79.8315573
  70.4597425  65.6013298  78.8674641  93.7120342  86.2352467  72.8688335
  93.9305115  87.0512486  72.4186850  92.7574730  86.2483883  72.9386377
  55.1351790  31.5754883   9.2781830  55.0011592  31.7225640  10.2144718
  54.7176509  32.3260682   8.8556480  36.3787818  85.7974529  83.1235504
  36.0055828  85.9172726  83.9968204  36.0871625  86.5647125  82.6311207
  31.1325507  25.0927727   6.6004086  32.0273451  24.9093049   6.8866158
  30.6454949  24.2962496   6.8114948  35.9850669  57.7422857  86.7644024
  36.8611360  57.3569298  86.7798042  35.4450846  57.0916796  86.3156605
  21.6685224  67.4025202  64.4356775  20.7926512  67.7834940  64.4984770
  21.5353417  66.4682055  64.5955133 109.0488197  32.1169655   9.1752815
 109.5589806  31.5538685   8.5931396 109.6651103  32.3730939   9.8614407
  83.0529594  49.0119505  78.3049822  82.7776527  48.8302040  79.2035389
  82.4607658  49.7029161  78.0081558  81.6193771  85.6229401  65.4720736
  81.3953781  85.1329613  64.6808863  80.7745171  85.8716679  65.8470058
 108.2915831 105.1313661  19.5419025 108.8807441 104.8561596  18.8394833
 108.7619258 105.8365987  19.9864864  75.4546738 102.8287983  76.5899992
  75.1919270 103.7468338  76.5236092  75.2698851 102.4636078  75.7247114
  74.2269802  94.0036774  64.0910053  73.6941862  93.2087898  64.0679359
  74.9494839  93.7906742  64.6816397  42.0675516 101.3223171  55.5141163
  42.4744272 102.1813774  55.6268072  42.2111464 101.1083603  54.5922518
  39.3188763  95.6038284  53.2466364  38.5812616  96.1189079  52.9197645
  39.0303540  95.2892685  54.1033983  35.3761387  93.6777973  82.8591633
  35.7524991  93.6770153  81.9790649  34.8349714  94.4668198  82.8875351
  49.6376567  40.8035367  12.0096207  48.7146525  40.7044690  12.2430325
  50.0592379  40.0196545  12.3618126  12.1898465  60.8702939   1.9082260
  12.4542908  59.9762623   2.1250534  12.7874188  61.4250844   2.4095726
  63.4378529  83.6772442  80.7349586  63.2181835  83.3681679  81.6138458
  62.9243183  83.1202793  80.1498890  73.2543993  56.6910648  89.7723007
  72.5161743  56.6725540  90.3813267  73.8989305  57.2590923  90.1943874
  79.7849751  77.6208830  84.3282032  80.6791878  77.4344778  84.6143436
  79.5984983  76.9492340  83.6721992  13.0906348  45.1815598  12.9554462
  13.7358002  45.0321667  13.6465931  12.9698710  46.1310094  12.9416943
 105.2045418  32.6533406  21.9390392 105.3537561  32.2024815  22.7701187
 105.1044966  31.9487565  21.2989044  52.9261827  98.1264877  90.2890205
  52.2378016  97.7596092  89.7342587  53.5407686  98.5275269  89.6744633
  31.5869430  21.8442458  70.7374620  31.7521862  21.7032641  69.8052359
  30.7805160  21.3596457  70.9137344  11.9316438  43.0886841  46.2870312
  11.6124871  42.5367689  47.0010042  11.2215856  43.0842972  45.6451321
  88.4060530  34.9497025   1.1104202  89.1182570  34.3535893   0.8787823
  88.8459162  35.7202809   1.4695263  13.2929568  65.5383771   7.1214294
  12.3498349  65.4328435   6.9964409  13.6483483  65.5858796   6.2339211
  61.0087585  84.1905594  73.2396269  61.0811043  83.3702183  72.7517414
  61.3742685  84.8517895  72.6519203  94.3687344  93.0069637  63.1634378
  93.9540958  93.1719971  64.0102386  93.6758518  92.6189041  62.6290607
  22.2812228  41.1741345  15.7278824  22.7695946  40.8493607  16.4843559
  22.5092368  40.5723851  15.0192642  54.5252705  82.9481506  81.4932919
  55.2894640  82.3726654  81.4608002  54.8596334  83.8054276  81.2296104
  87.0881320   3.0997485  55.6518602  86.2236405   3.1545753  55.2445745
  87.6140071   2.5958842  55.0307226  57.1624903  50.1817029  21.5221882
  57.7895884  50.1913731  20.7990837  56.3054137  50.1889222  21.0960484
  40.6722455  46.3526337   6.1829472  40.4069523  46.1474030   5.2864361
  40.7223801  45.5018036   6.6186047  93.3760643  61.2833977  81.2922001
  93.9600658  61.5999365  80.6030178  93.3835220  60.3312874  81.1938763
  27.8520398  15.0806182  26.1842346  28.2154612  14.3111270  26.6224670
  27.1868329  15.4089015  26.7891788  43.7556219  99.3401623  72.0901394
  44.5125389  99.8753738  71.8516731  44.1119909  98.6651611  72.6677227
  55.5505232  26.7915003  18.6127281  56.4847045  26.8162387  18.4055424
  55.1605754  27.4518006  18.0398655  15.3571228   8.9552230  83.5400677
  14.5772938   8.4083480  83.4450912  15.7866196   8.9103526  82.6858044
  83.9368392  25.8630198  68.8606644  84.0132285  26.8040008  68.7027073
  83.1496287  25.6029719  68.3822250  89.0998363  90.5631542  77.4565840
  89.7489548  90.7842922  76.7887688  89.5273781  90.7763290  78.2860422
  78.7639237  32.1588248  61.6440201  79.4509650  31.8016261  61.0813332
  79.1561270  32.9397601  62.0345974  59.5158243  73.6706209  50.2829695
  59.0085602  73.9150476  49.5089102  59.1065168  74.1546297  51.0002136
  79.9414921  83.8906670  80.1736164  80.4641533  83.4357929  80.8340263
  80.3795052  84.7342682  80.0608635  32.2197776  36.3134663  20.1848602
  31.5862803  36.1023133  20.8706665  31.7771105  36.0785477  19.3693352
  67.0752668  71.7203474  61.4248610  66.9211388  72.4138260  60.7833290
  67.4020243  70.9840536  60.9078121  89.3865776  87.4463844  78.0717230
  89.2023659  88.3017063  77.6835012  90.2581882  87.2190762  77.7478933
  11.9742112  42.2327416  14.4244671  12.2716670  42.1642106  13.5172462
  12.1214490  41.3609688  14.7912979 110.0906087  15.4324454  87.3456383
 109.5250035  16.0662955  86.9045448 110.0872565  14.6674174  86.7703533
 100.4612827 104.6639061  89.0704727  99.9845219 103.9060020  88.7320805
  99.8910236 105.0211906  89.7511959  41.9416432  34.1013520   4.9950886
  42.0857196  33.3520978   5.5730915  41.1230950  33.9000695   4.5415497
  36.2024570  81.5362740  85.0921917  36.1280513  81.2607193  86.0058403
  36.7699671  80.8791351  84.6892834  62.4316168  80.4154491  63.2891273
  61.6590834  80.8922386  63.5925961  62.1599865  80.0224209  62.4596786
  51.7553572  78.1074040   9.8674870  52.2817664  78.4733670   9.1567135
  52.2672610  77.3641579  10.1864910  68.2564354  81.2623978  77.6052284
  69.1100836  80.9498405  77.3055220  68.2317543  81.0368061  78.5351372
  52.8154612  93.2612991  60.5696869  52.7243567  92.5513172  59.9341869
  53.6461544  93.6798191  60.3437901   3.2012752  14.0743464  86.2727451
   2.3876718  14.5080394  86.5300274   3.8204960  14.2945212  86.9686794
 106.8092824  41.6573066  37.5043035 106.0134507  41.1913604  37.7607703
 107.5139046  41.1965674  37.9597807  17.2100215  38.8910191   3.9813137
  17.2013287  38.0341904   3.5546970  17.1565060  39.5181840   3.2601738
  26.9080739  52.1352761  11.5487671  27.6494746  51.8904679  10.9950256
  27.3028426  52.6037972  12.2842121   3.9141706   3.3008784  79.3240643
   3.1316713   2.8888721  78.9577484   4.5795635   3.1985778  78.6436081
  33.9730906  74.7042847  74.0550232  33.6775899  74.4107008  73.1932116
  33.2385540  75.2119255  74.3999720 104.1828967  30.8596057  59.0025091
 104.2315007  30.6741542  58.0647039 103.3138371  30.5539245  59.2623758
  47.0806079  58.3356564  10.4673767  46.3844256  57.6883023  10.5791378
  47.4257617  58.4709637  11.3498688  44.4230418  50.5703061   5.7383251
  44.8266558  50.6080907   4.8712063  44.7624259  49.7633832   6.1255264
   1.6470436   2.7320022  77.9337645   1.0143141   2.4041957  78.5728455
   1.2780432   3.5635966  77.6362562  20.5724338  29.5492000  74.9610806
  20.7021812  30.4931563  74.8697042  20.4323200  29.2389792  74.0664482
 102.6109505  87.1519566  76.0253286 102.0360470  87.1849632  76.7899370
 102.8418255  86.2270355  75.9390116  74.5758963  98.7237835  89.4109821
  74.5291424  99.2634964  88.6218357  73.6809683  98.4094524  89.5395470
   5.5873207   1.4436645  74.6395159   5.9961418   0.5781669  74.6427870
   4.9600986   1.4150161  75.3620195  74.9960661 100.8375645  90.9984684
  74.8174238 101.1690807  90.1184654  74.9116802  99.8874760  90.9181976
   6.9460253  64.1842454  11.3168144   6.8055014  64.2777054  10.3746128
   6.3181977  63.5142510  11.5873241  77.6325798  58.2505322  81.5430164
  76.9643164  58.0266571  80.8952999  78.2766294  57.5455761  81.4761448
  95.2211238  34.0513318  11.1069870  95.4842187  34.3112366  11.9898605
  94.8922469  33.1581299  11.2082577 110.3145314   1.0452670  76.3945532
 110.7128430   1.5669459  75.6978226 110.3168011   1.6231746  77.1576071
   3.1806377  16.3047904  82.9902840   2.3935560  16.6512221  83.4106636
   2.9578785  15.3993434  82.7740097   1.3280872   3.2262153  86.8813992
   1.9788460   3.6106509  86.2940788   1.5395216   3.5872382  87.7423286
  11.8529801  59.1434949  22.9194069  11.0348944  59.6211331  23.0566216
  11.8072657  58.8462823  22.0106697  30.6411223  73.6246865   0.5937290
  30.8701520  73.6402505  -0.3355312  29.8109584  73.1494038   0.6278801
  66.4500289  71.1691086  14.2579174  66.9459014  71.1459820  13.4395027
  65.6166129  71.5762799  14.0215778  80.5236435  51.9855261  49.7447252
  81.0439682  52.0888281  50.5414820  80.9216976  51.2410641  49.2935514
  28.4287982  56.6641514   4.4575882  27.7677207  56.6588967   5.1498127
  27.9333834  56.8249123   3.6544991  93.1419993  14.7519702  79.4856548
  92.2354842  14.4744414  79.3535805  93.0968953  15.7073611  79.5235014
  82.7280379  25.9107799  72.5973749  81.7830897  25.7719058  72.5339794
  83.0994321  25.3426188  71.9224739  73.0246401  74.2381525  86.2687874
  73.7445164  74.7611856  86.6215515  72.8305769  73.6023808  86.9575214
  38.7205748  63.0863087  23.2047653  38.0307631  63.5473149  22.7274132
  38.2695059  62.6808159  23.9452648  89.2713643  -0.0192910  78.3278561
  89.7017575   0.4220885  79.0600967  89.6822215   0.3541869  77.5481462
  40.2625708  43.4052079   0.3984928  39.6816830  44.1426270   0.5856323
  39.7377638  42.8193467  -0.1470089  42.5885396  74.6645634   4.7344112
  43.3768420  74.1734593   4.5028400  42.7247338  75.5308907   4.3508053
  94.3578959   1.0199756  66.1734533  94.4234086   1.9749278  66.1735868
  93.5474969   0.8354301  66.6482496  37.5409321  55.1500790   3.1334877
  38.4300999  55.3687184   2.8545380  37.0047288  55.8764355   2.8155041
  38.9946227  28.6554711  28.1774998  39.1899018  29.0772240  29.0142918
  38.0392890  28.6005013  28.1541729  50.2666664  78.5876083  85.2021980
  51.1853456  78.4448767  85.4299736  50.2630568  79.4219732  84.7330952
  10.0126985  97.1518707  26.6912389  10.9267762  97.2943020  26.9370055
   9.5151952  97.7198315  27.2795844  96.5928078   1.9149608  56.0927534
  95.9061051   1.3206786  55.7902718  97.1603299   2.0326919  55.3309870
  59.9250984  61.6797733  56.5670490  59.3682003  62.4211121  56.8047762
  60.8157015  62.0290327  56.5998554  31.3716368  57.6640885  25.8076572
  31.5733294  58.0097191  26.6771889  32.1524291  57.8538220  25.2874660
  79.4396830  88.5994911  71.9423866  80.0659084  88.1145859  71.4048529
  79.7662401  89.4992542  71.9376516   4.2299274   6.1659926  63.6307192
   3.4786753   5.6704062  63.9566803   4.9114994   5.5073756  63.4968662
  53.3752394  85.4932022  62.2679663  53.8295317  86.2218666  62.6909113
  53.8254404  85.3840923  61.4303207  75.8635998  91.9592857  49.8063040
  75.0780439  91.4783478  50.0667572  75.5410385  92.8223419  49.5468616
  55.1319218  96.8423271  76.9026804  55.9289455  96.9901180  76.3936186
  55.4450750  96.6347313  77.7830648 111.5295745  11.6047782  62.1893883
 111.2325478  12.4383658  62.5542736 111.6252232  11.7740840  61.2521505
  25.7650856  24.4560451  68.3772373  26.4004139  23.8944930  67.9331207
  25.4585747  23.9321631  69.1173935  29.8640542  79.3880932  13.7756634
  29.7232155  79.8993199  14.5725632  30.7088713  79.6910660  13.4429169
  47.6269054  82.6618099  45.8294535  47.0282793  82.6193333  45.0837517
  48.0716228  83.5037994  45.7319212  87.7430248  98.2869816  61.3670397
  88.0526352  97.3904514  61.4959431  86.9620037  98.1945419  60.8214331
  65.5438519  83.2616615  72.6606703  66.4268351  82.9053879  72.5624704
  65.4349947  83.8428402  71.9079351  94.0329457  35.7138652  90.2139759
  93.5176850  35.6180591  91.0149479  94.8439408  36.1343974  90.4997540
  66.5110636  63.8885260  88.2644176  67.2593164  63.8676262  87.6678371
  65.7473469  63.9345407  87.6892185  10.7797103   9.4177048   6.2716198
  11.5173010   8.8104813   6.2126637  10.0045447   8.8602679   6.2037277
  59.0728049  31.7113774   1.2104321  59.8050646  31.3096898   1.6780472
  59.0819029  31.2952607   0.3484535  77.7263165  92.9482555  75.6220198
  78.1502676  93.6733627  76.0810518  78.3108950  92.7541065  74.8893499
 111.8398286  69.1548627   9.3320847 111.6954924  68.7759869   8.4649944
 111.7497422  70.0984948   9.1991615 108.6835194  86.6870117  60.4008102
 108.5392380  87.6163864  60.2228403 109.5132256  86.6603947  60.8773708
  63.9128256  78.4250641  75.1849937  63.2702255  77.7192497  75.1133966
  64.6394348  78.1448030  74.6284628  93.9251423 102.1339321  64.5677662
  93.5186386 101.3823891  64.9992514  94.1571617 102.7248096  65.2841854
  69.5450306  62.3104429  86.2786102  70.1324606  61.8207884  86.8542862
  69.7691059  62.0114183  85.3973579  84.8439598  79.0996647  72.2076750
  85.7320499  79.4534349  72.2563648  84.4008064  79.6526480  71.5642023
   4.6856979   9.6886081  57.9893541   4.2598919   9.8974055  57.1578932
   3.9622597   9.5423144  58.5988331  71.2311912   6.1640853  70.1444006
  70.4040790   6.6096229  70.3277445  71.8721128   6.8708915  70.0677395
  98.9709091  86.7352581  23.2485986  98.2385731  86.6151142  22.6440501
  99.6726990  86.1953449  22.8849816  74.3354273  97.6195812  73.8527346
  74.4946098  98.2829094  73.1812477  75.0492573  96.9914150  73.7428427
 102.6191903   3.3157844  68.8981724 102.1701813   4.0151137  68.4232473
 103.1722546   2.8957194  68.2394648  25.5181842  54.9639504  12.0737076
  25.5387358  55.0954812  13.0216026  26.4350562  55.0188820  11.8043423
  48.7974262  91.7088223  76.3091946  49.3271446  92.4632168  76.0512924
  47.8936672  91.9922352  76.1708784  28.9539055   0.8253020  83.9264107
  29.8486999   1.1583251  83.9946651  28.5562614   1.0319537  84.7722244
  70.4694319  77.9282045  80.0116539  70.0837755  77.0816183  80.2370167
  71.2683010  77.9749107  80.5368805 102.7455617  42.9589646   9.5761776
 102.9065944  42.2056573   9.0079975 101.9964053  42.6988595  10.1122189
  92.5660659   2.6710338  56.2145376  91.7407513   2.8957099  55.7848740
  93.1577445   3.3881015  55.9865618  69.4669771 103.6818314  78.2081318
  69.6084547 104.1715622  79.0183067  70.3223276 103.6773491  77.7785015
  65.5763578  85.3911304  80.7377720  64.8615456  84.7583771  80.8077431
  65.8613825  85.5313110  81.6407394  29.8106627  62.8739064  25.9908485
  29.5936684  62.8626053  25.0586319  30.5612521  63.4644597  26.0548973
  89.7275496  -0.1409036  53.1942415  89.7046519   0.7808703  52.9372644
  89.0614177  -0.2156716  53.8775492  25.0229458  64.0392773   5.4940510
  24.3458037  63.9970677   6.1692810  25.8087306  63.6982529   5.9212112
  46.3241820  54.9469655   3.6802197  47.0499568  54.5764630   4.1824245
  46.2023310  55.8230393   4.0461349  84.0616035 104.4064999  81.6419220
  84.7955322 104.1069698  82.1784401  84.3560982 105.2413368  81.2778378
  82.3887444  84.9193382  58.7942505  82.4870205  85.8583164  58.6364603
  83.1932449  84.6671295  59.2474556  10.0540881  35.8326619   0.8916664
   9.1015248  35.8067124   0.9821415  10.3600506  36.2477105   1.6981125
  39.3786435  52.0148080  29.5174980  39.7675042  51.4845078  28.8219357
  38.8809638  51.3901608  30.0450993 110.7671929   6.0642928  65.4802704
 111.5962220   5.9248370  65.0225639 110.1242352   6.1814422  64.7809076
  22.7339558  25.1518147  18.0070686  23.0261473  25.9879058  18.3701229
  23.5366349  24.7305815  17.6996613  79.2525768 104.2403221  88.7973309
  78.4611559 104.0905094  89.3144798  79.1955996 105.1584816  88.5328197
 105.4176570  19.4088382  87.3377514 105.0016881  19.2326850  86.4938545
 105.7061816  18.5499591  87.6464844  14.1854576  14.0368861  77.6447535
  13.2684521  14.2707175  77.7884626  14.5559887  13.9687366  78.5246944
 102.9580689  15.8282393  69.2956924 103.6595822  15.9007281  68.6485052
 102.5375081  16.6880816  69.2903852  89.9375343 101.2835026  90.3218555
  90.3287792 101.8110752  91.0181522  90.0341511 100.3800106  90.6228733
   2.9747919  28.2431811  34.9676013   2.9949144  29.0466231  34.4476843
   3.7952379  28.2562274  35.4604769  78.8815356   7.7468795  57.3293447
  78.7923527   8.1076449  58.2114553  77.9949284   7.7721805  56.9694567
 101.2818527  91.2258053  67.0214081 100.7786465  90.7202721  66.3830900
 100.6418800  91.8183804  67.4157763 103.0784608  25.6745547  79.2264605
 103.0508853  24.7204894  79.1541100 102.3609925  25.8904094  79.8221731
  84.2654134   4.9871081  82.1768188  84.7533084   4.7054595  81.4029598
  83.3905364   5.1920241  81.8469143  24.0936661  97.6289463  90.9479237
  24.4895172  97.3247719  91.7646313  24.4636130  98.5013676  90.8128262
   4.5956854  68.7245076  13.2685852   4.7041325  67.8292363  12.9477024
   4.6236663  68.6423104  14.2218304  15.3152136  65.6855862   5.1596737
  15.9401469  66.3551800   4.8816013  15.8408265  65.0593941   5.6575108
  35.0090651  49.5520871  20.0894165  34.1108517  49.4089787  20.3876877
  35.3193669  50.2926247  20.6105232  95.1590110  19.2923087  82.0597076
  94.9763871  18.9754409  82.9442787  96.0799504  19.0762919  81.9132805
   4.4351344  45.2435105  30.6247139   3.6631398  44.7411816  30.3640747
   4.0928034  45.9272664  31.2004948 100.1534367  92.7472878  74.6339130
 100.1889420  92.4602699  75.5463743 100.7969379  93.4538364  74.5798683
  32.2279124  56.0359280   0.8444691  32.9513125  55.6355946   1.3268089
  32.6520209  56.5275281   0.1411247  68.8792229 102.8361034  63.9796257
  68.4693384 103.4385777  63.3589363  68.1496048 102.3359680  64.3453455
  95.6859446  38.9725322  66.9760275  95.1176024  38.6057204  67.6532745
  95.8168221  39.8831100  67.2405291  62.7775860  73.2044744  77.5934076
  62.8208685  72.8996658  76.6870642  62.4030304  72.4677181  78.0762434
  85.6839038   4.7900123  61.3711739  86.4771081   4.4251842  60.9787989
  86.0003567   5.4824656  61.9513464  56.2396574  99.3001842  80.3896713
  56.6711378 100.0105190  79.9148273  56.2947989  99.5588875  81.3095951
  58.8747883  90.7877159  82.7744007  58.5141134  91.1247063  81.9542885
  59.6484327  91.3278103  82.9356384  40.9787135  55.6649392   9.1161537
  40.8190827  54.8716347   8.6048603  40.2856593  56.2674229   8.8461304
  18.7178092  62.2369378   2.2204399  18.3521704  62.4875729   1.3720798
  18.2974009  62.8268330   2.8461456  65.6220770  68.3699989  66.1065626
  66.1745977  68.3929253  65.3252649  64.9571180  67.7100134  65.9103823
   5.9446434   1.1874217  83.6205387   5.2058271   0.6048697  83.7966633
   6.6613010   0.5997390  83.3812428  22.8186993  71.7703431  12.0333958
  22.3520140  72.6012318  11.9436455  23.0100255  71.7029278  12.9688549
  45.1499037  52.9158299  18.3896065  46.0436396  52.6053994  18.5348797
  45.2044158  53.8646500  18.5036373  50.2671194  98.2907486  83.0194283
  50.4512405  99.2226028  82.9011917  49.3396950  98.2577229  83.2540035
  80.0711192  16.6700690   1.5306473  80.1544513  15.9220593   2.1220589
  79.9827994  17.4258559   2.1113586  57.0926666  83.3113003  76.0174227
  57.7998590  82.8148937  75.6054783  56.6699648  83.7722683  75.2928066
  36.1760287  37.7396195  17.5217056  35.4973893  37.7712529  18.1960011
  36.9668584  38.0494683  17.9630852  80.9130287  77.8308964  64.6163940
  80.4410744  77.1635628  65.1145506  80.9398174  77.4885273  63.7229204
 105.9599496   1.3190955  58.4709311 106.8316603   1.3501185  58.0767298
 106.1228848   1.3345737  59.4140387  96.6650821  20.2634257  86.2504292
  97.4058390  20.4824561  85.6851578  95.9934808  19.9393004  85.6503201
  33.4728149  24.1389007  69.2550659  33.8397221  24.4297141  70.0899601
  33.4650616  24.9256057  68.7098455  76.6523767   8.7410945  77.2015619
  76.6764737   7.9423827  76.6745806  77.4116326   9.2446918  76.9080496
 109.1856720  53.3205788  19.8858929 109.8067905  53.7958710  19.3340397
 108.3397199  53.4437554  19.4552803  71.7860126  87.7705574  72.7908754
  71.9184303  87.6081181  73.7248516  70.9049606  88.1404495  72.7346563
  24.5952896   0.1320380  53.2182455  25.3981499  -0.2661019  52.8818750
  24.4543461   0.8960456  52.6590919  31.2095551  47.2649663  51.3941765
  32.1555953  47.2181313  51.5322208  30.8550362  46.5477364  51.9196606
  26.3835244  55.2614873  29.8978138  26.0863928  56.1667626  29.9896336
  26.7967467  55.2313988  29.0349197  36.6501621  27.9224414  63.9865303
  36.9620518  28.1704158  64.8568583  36.1724857  27.1049613  64.1272020
 106.4685965  44.3505305  87.5227356 105.5868483  44.7227401  87.5079155
 106.3791753  43.5052318  87.0826149  89.4085598  86.5177536  83.2972431
  88.5738564  86.2805939  83.7012959  89.3535423  86.1649799  82.4091244
   7.0713475  78.2645893  82.6609993   6.5182069  78.9898539  82.3707294
   7.9638055  78.5519886  82.4682331  42.3446035  97.8857708  67.2907209
  42.3744059  97.6883888  68.2268763  43.2354355  98.1622410  67.0757580
  68.0483342  11.4331645  88.3354378  67.4452735  12.1747321  88.2842064
  67.7866054  10.8613032  87.6138401  73.8648272  91.0036659  80.6248474
  74.0198421  91.2247372  79.7065163  73.3637714  91.7435360  80.9680271
  23.5601906  12.6670665  64.2517900  23.4787945  12.0422381  64.9723339
  24.5004085  12.7106875  64.0776634  64.6947098  93.2160568  85.3145790
  63.8595343  93.6565495  85.1574707  64.7401619  92.5404644  84.6380138
  65.0726318 101.2706375  72.2136497  65.7994270 101.7767620  72.5767565
  65.3893423 100.3673744  72.2073698  79.1561794  90.2072525  66.3089037
  79.2555475  90.6010246  65.4421329  78.2133961  90.2251148  66.4734364
   5.0664858  80.5540936   2.6097679   5.4708342  80.9336655   1.8296051
   4.9900775  79.6210759   2.4100876  67.5273609  85.4878521  69.2361975
  67.6787519  86.4329147  69.2487717  68.3662939  85.1074123  69.4963837
  24.4752220   9.0522689  90.9534550  23.6504463   8.7547130  91.3374519
  24.5639900   8.5397262  90.1499271  87.3864842  23.0224914  32.3653030
  87.4784566  22.6338500  33.2352042  86.4538670  23.2246989  32.2906971
  60.0097752 105.0643730  60.4762983  60.6426048 104.4133854  60.1730204
  60.0797844 105.7793140  59.8436975  18.2262997   4.9970645  74.7715378
  19.1549114   4.7903270  74.6658134  17.7814106   4.4295997  74.1420317
  62.5764708  57.7946084  21.0548878  63.4898429  57.6505845  21.3023472
  62.6240687  58.2032101  20.1905918  92.1158366  55.7274621  16.2743568
  92.8399138  56.2973492  16.5335369  92.5344805  54.8981087  16.0438252
   5.6761411  67.2821712  52.3357344   5.3747037  67.7196836  53.1319427
   4.9525598  67.3846531  51.7175436  58.4832668  86.2635136  74.2296028
  58.0383015  85.6094265  73.6907053  59.1506004  85.7684898  74.7048378
 106.9187499   3.9272708  79.9361277 107.7360392   3.7674445  80.4080582
 106.2360240   3.8311214  80.6001091  40.8796744  69.0419476   0.0024128
  41.2574629  68.9553063   0.8776283  39.9366049  69.1047280   0.1537609
  61.3880305  67.2978394  14.3078518  61.0250239  66.5826409  14.8302937
  61.6642813  66.8817036  13.4913063  82.2794819  94.5844841  72.5045919
  82.0391560  93.7240982  72.1607685  81.5526962  95.1544094  72.2531939
  79.7459126  91.1376667  40.5313015  80.3754234  91.1326694  39.8102427
  80.2184868  90.7436466  41.2645483  47.1545458  71.3223696  57.7883673
  48.0818367  71.0987186  57.8679800  47.1523666  72.2235346  57.4656725
  34.0954356  62.9331010  18.1473160  34.3116765  63.3388512  18.9868641
  34.5860724  63.4420006  17.5019264  61.5986300  92.8349495  58.9065933
  62.1558571  92.2068119  59.3661356  60.7161283  92.6535988  59.2299175
  61.6218472  15.1024932  54.2812252  62.2532368  15.8207816  54.3217087
  61.8319131  14.6445388  53.4673595  12.0229535  41.8986981   8.4398174
  12.4992900  41.1595433   8.8179493  12.4778943  42.6723187   8.7726593
  87.0433140 100.0268841  66.9663858  87.3795605  99.8307800  67.8408623
  86.8926239 100.9721184  66.9741297  45.4701571  42.4966900   1.9858646
  46.2123828  42.1768181   1.4730167  44.7439723  42.5270455   1.3629913
 103.3438492  88.6324596  86.2856197 104.2654228  88.4167194  86.1427879
 103.3236217  89.5889759  86.3154411  61.6570091  90.6724262  37.5351810
  61.2913513  91.4868736  37.1899223  62.2016525  90.9480286  38.2725024
  86.2021209  35.2568931  89.3277836  86.4290238  35.6312388  90.1790333
  86.8001986  35.6810969  88.7124920  49.0327029  44.2915719   5.7683468
  49.2176680  44.0306370   4.8661613  48.2183509  44.7913354   5.7109547
  72.4653149  84.3598270  71.8485785  72.7770758  85.2638149  71.8056631
  73.1630611  83.8871288  72.3023748  21.8929485  10.5147952  88.3258152
  21.1599926  11.1293525  88.3622646  22.6465324  11.0546512  88.0873013
  32.6579432  42.7086346  14.5639133  32.1921591  43.3476918  14.0245914
  32.8290229  43.1682866  15.3859138  56.8392038  85.6325531  60.6647635
  56.7138243  86.1613560  59.8768044  57.0298386  84.7540951  60.3358507
  30.8911804  46.2672061  60.8574772  30.6134895  46.3510627  59.9452925
  31.7917637  45.9471149  60.8052206  73.7610674  90.6566048  88.1299210
  73.0744410  90.0496387  88.4062672  74.4675064  90.5228710  88.7618160
  14.6374755  47.0338814  41.2742805  14.6312146  46.1394208  41.6150665
  13.7331681  47.3328393  41.3696003  62.9724364   6.2421363   0.9844017
  63.3353476   7.1257823   1.0451984  62.8727297   5.9610598   1.8939590
  98.1949378  37.2834414  73.1264305  97.4234677  37.1951789  73.6861467
  98.6250163  38.0808276  73.4353638  94.8197747   9.8848552  81.4548683
  95.3368426  10.4843062  80.9167862  94.4100953  10.4464549  82.1129036
  73.8375211   5.9470386  80.3877544  73.1978942   6.4256782  79.8604918
  74.2394186   6.6158694  80.9421730  15.3875975  48.5470669  28.8401508
  15.3405051  47.6027291  28.9893246  16.3249926  48.7375538  28.8050938
  90.0032616 100.4394341  74.9507809  90.0779724 101.3513470  74.6695995
  90.8390427 100.2511978  75.3777218  22.8664641  73.3280270   9.1901875
  22.6394896  72.6118081   9.7832775  22.0332150  73.5854905   8.7956619
   6.0837893  43.8038342  19.6718025   5.2361493  44.2012875  19.8712254
   6.6639905  44.5470898  19.5069790  20.7763723  90.4754257  55.4126024
  20.7990983  91.3944721  55.6791782  21.6786149  90.1733398  55.5171347
   6.1468892  50.7345002  23.2262135   6.4573817  50.0505345  23.8195229
   5.6210999  50.2676194  22.5767517  13.7419609   5.9053344  85.1514816
  13.9283852   6.1193675  86.0656261  14.6018413   5.7441730  84.7630596
  78.2354546 103.3975220  73.1547213  77.9957438 102.7786636  72.4649572
  78.4373093 102.8467369  73.9111137 104.3956757  99.4844341  66.5965080
 104.8261166 100.1416683  67.1433020 103.8560867  98.9814949  67.2065306
 109.2114569  65.4629510  28.5694408 109.9432279  64.8942273  28.8088131
 109.6246029  66.2794201  28.2885170   9.4291500   9.6680182  79.7574854
   8.8980297  10.4642314  79.7433758   9.5568088   9.4817084  80.6876564
  91.6903497  33.0251712  84.7725964  92.4533416  33.6031264  84.7661304
  91.6832257  32.6281470  83.9016438  23.4399895  96.8488305   6.3056660
  23.4422307  96.8033307   7.2617817  23.4229617  97.7857773   6.1105156
  13.2708649  11.6278571  85.8961296  12.8933720  11.8229789  86.7538261
  13.0225376  12.3736209  85.3498745  85.5377293  32.8235549  63.7493467
  85.4492999  33.1029147  64.6605968  86.4107991  33.1195563  63.4917402
 101.2518120  98.6824989  72.8547144 100.5508041  99.1204834  73.3374071
 101.0462284  97.7504349  72.9269123  71.1094379  94.7462940  47.7254343
  70.2344704  94.4999123  48.0253649  71.0799742  95.7007408  47.6591396
  10.7033447  23.0659598  59.0079451  10.5263809  22.2059077  59.3890190
  10.0527958  23.6433906  59.4074345  19.6785644  21.9650382  65.5299044
  18.9992241  21.8723411  66.1978340  19.5302585  21.2308425  64.9339247
  29.9579291  55.4033940   2.1856022  30.2750401  56.0113042   2.8535271
  30.6609587  55.3724568   1.5367413  63.2379675 101.1479568  56.8212223
  64.0712690 101.4259529  56.4410162  62.6351976 101.1141872  56.0784149
  83.7083054  94.7123909  69.9387550  83.9903736  95.6017685  70.1524639
  83.3514690  94.3707752  70.7586384  35.7579803  93.8157272  87.5994778
  35.1860332  93.4411430  88.2694054  35.9185624  94.7117710  87.8953743
  49.6458678  72.3180478   6.7407608  49.5964961  72.8406422   7.5411987
  50.4831175  71.8587105   6.8058872   7.2284131  56.3802807   0.6547832
   6.6881423  56.2216466   1.4288425   7.8459839  57.0584004   0.9286213
   9.9645523  24.9573726  49.5649481   9.8571113  24.1201324  50.0163031
  10.2021793  25.5740184  50.2574158  57.3186731  82.2431183  88.0745125
  58.2151747  82.0708466  88.3623219  57.3043251  83.1810665  87.8840542
  97.9307748   0.2963180  81.1604500  98.7793542   0.6326121  80.8722687
  97.5840760   0.9803218  81.7333126 102.7252197  85.4649925  59.0592003
 101.9335842  85.9334564  59.3239450 102.4023247  84.6798134  58.6170816
  19.9522500  79.1062729   1.3711643  20.3048997  78.4640877   0.7551575
  20.5037789  79.8796170   1.2528706  45.1181602  97.5731468  73.9682531
  45.6430912  98.2298756  74.4258499  44.6493578  97.1134567  74.6647739
   3.7574963  46.8861382  11.2742805   3.3866362  47.4809735  10.6224632
   4.4482808  46.4177792  10.8055592   7.2734074  35.4824631   1.7481041
   6.3786606  35.7588761   1.5499878   7.4587063  35.8669369   2.6048851
  30.0561909  24.8127669  66.0792446  29.2968658  24.8028392  65.4965210
  29.8365978  24.1869849  66.7694664  76.0603714  97.9410934  85.3316689
  75.7191896  98.0686378  84.4464779  75.6348276  98.6219501  85.8527851
  79.8483944  84.5104122  53.9775991  80.3029346  84.3607807  54.8065948
  80.5382061  84.4686604  53.3152914  60.7180075  68.6509507  10.7193565
  61.0722880  67.7779572  10.8884716  61.0796122  69.1957371  11.4184189
  86.5667915  92.6336002  38.9752483  86.6977406  92.8613567  39.8956895
  86.8890476  93.3944607  38.4920549  13.3681969  20.0004310  58.1764698
  13.5283188  19.7091788  57.2788239  12.7996448  19.3265361  58.5491037
  81.2143756  11.9714183  37.6451969  81.8563081  12.3010844  37.0163250
  81.4177705  11.0398501  37.7290344  26.9066433  28.1808967  61.4830017
  26.5884689  28.6684150  62.2428179  27.5836376  28.7420100  61.1047459
  42.7391247  11.6264552  86.9822502  43.1029610  11.3186664  87.8123856
  41.7910484  11.5647239  87.0987225  86.2795162  72.0057631  73.5040188
  85.7093143  71.2769508  73.7488365  86.9880867  71.5985680  73.0056763
   5.2145436 101.4804173  59.3696880   5.1714090 100.7892227  60.0304651
   5.9506276 101.2316990  58.8106203  67.6050668  13.2555305  29.2387390
  67.5414567  12.5570594  28.5873318  66.7438846  13.6732208  29.2269135
  16.4965682  63.3972638   7.7567005  16.6536574  62.7682202   8.4608746
  16.4374070  64.2434495   8.2002258  25.2764133  24.1169185  50.5450678
  25.6216434  23.5882682  49.8256350  25.8228306  24.9028319  50.5484438
  27.6873211   0.4526252  69.1112661  28.2286552  -0.3367787  69.1066742
  26.8666653   0.1779098  69.5202732   1.6874031   8.8966483  13.3457720
   1.2585739   8.3810538  12.6627624   1.8165544   8.2796592  14.0661001
 104.9575234  30.5798072  87.2247887 104.6132231  30.6123942  86.3322449
 105.5907107  31.2965983  87.2635651 106.9274522  15.8609027  84.1420841
 107.4087811  15.3150958  83.5202789 107.0324040  15.4156226  84.9828911
  64.1376591 105.0024128  74.2470312  63.4105301 105.5736542  73.9996576
  64.1912127 105.0816727  75.1994371  84.4591808  87.2732735  70.0376081
  83.5259056  87.0779896  70.1218557  84.7084713  87.6246357  70.8923769
 111.7922946  61.0216552  55.4547834 112.4401876  61.7111569  55.3096676
 110.9914800  61.4908868  55.6887674  72.3375130  84.7261714   7.8101444
  71.7200137  85.4574631   7.7983952  72.8483678  84.8311328   7.0075035
  29.4782591  26.2248731  55.7178974  30.3590393  26.5112305  55.4761171
  29.0727425  26.9998527  56.1067295 100.5120703 100.5761322  75.8959532
 100.9577509 101.1909675  75.3132200  99.8874994 101.1155811  76.3808632
  93.4677883  99.6279722  59.3367910  94.0615817  99.1891938  59.9459839
  93.8225623 100.5129519  59.2520714  36.9117785   1.3283506  55.2557611
  36.1003590   1.4467359  54.7619820  36.6821146   0.7097130  55.9491396
   7.0032644  37.8866458  46.3429594   6.4444143  38.5676813  45.9686518
   6.3912350  37.2255659  46.6664219  19.4339669  26.9546580  53.5486364
  19.0240812  27.4479342  54.2592001  18.7481308  26.3613868  53.2422209
  80.4523208  75.2522617  24.6748066  79.5804002  74.9316483  24.4441724
  81.0524716  74.6228915  24.2748761  92.6522347  72.4456435  56.0719109
  91.8794557  72.9930168  55.9325314  92.4210521  71.8899494  56.8162155
  70.5707408  27.9320978  24.4369411  69.8019410  28.4522771  24.2032909
  71.2216616  28.5773610  24.7129345   9.2919635  87.5622755  82.2058487
   9.0478372  87.6069981  83.1303120  10.2431869  87.6690656  82.2038746
  78.2655679  97.8111493  73.3692026  78.0291282  97.8629833  74.2952919
  79.1386008  97.4186718  73.3665037  73.2856337  95.9090709  52.8267431
  73.6831660  95.6182891  53.6474991  74.0151643  96.2670123  52.3208809
  12.4085987  25.4853082  89.8205662  12.1926773  25.4999590  90.7529831
  12.3702133  24.5595384  89.5803452  24.2159152   8.1155860  42.3834085
  24.3065071   8.4365773  41.4861965  24.6602964   7.2677952  42.3804903
  11.4751004  76.4421230  86.2538147  12.2901820  76.8520266  85.9642410
  10.8879375  77.1766430  86.4325523  14.3719852   3.3059859  81.1744881
  14.6484542   2.6275834  80.5584049  13.8530672   2.8382215  81.8288231
  40.2126789   4.2394328  55.1200104  39.8345065   4.2336053  55.9993219
  41.1555719   4.1596076  55.2642727  50.8850802  55.4268806   1.7887783
  51.4474369  54.9945979   1.1460400  50.0988973  55.6650488   1.2974358
 101.6623041  36.0173798  62.9439878 101.9273642  35.2755117  62.4002934
 101.5974519  36.7511749  62.3327875  93.2507452  88.3239013  80.7107925
  92.8577455  88.6115581  79.8867559  94.0481397  87.8640765  80.4481983
  99.4049177  39.4489098  58.5763645  98.6312172  39.8874950  58.9302874
  99.5140025  39.8238492  57.7024317 102.5167665  12.2308421  66.7315531
 101.9649085  12.4939871  67.4680614 103.4016487  12.1979630  67.0950556
  63.1820107  54.5678730  15.1794815  62.7243090  53.9934613  14.5656395
  63.6888147  53.9727692  15.7319546  90.7046469  94.5031231  31.8368983
  91.5708812  94.8317188  32.0775151  90.5551120  93.7660485  32.4290061
 108.8353988  97.3386526  67.9084158 108.8777372  96.4394229  67.5831127
 107.9000589  97.5098097  68.0183172  81.6235539  89.0165823  64.6792316
  82.4142798  88.8961583  64.1534138  81.4462908  88.1507951  65.0469589
 105.9706345  18.0261850  37.2887492 105.5743322  17.3442674  36.7463803
 105.8964410  18.8230944  36.7637134 102.0289894  92.7922517  30.6848955
 101.7245432  93.4783000  31.2789369 102.0699950  92.0055085  31.2285733
   0.6837323   4.8371330  69.7172022   1.5308431   4.4228801  69.8816109
   0.9002908   5.7379693  69.4767284  14.4027758  26.3786244  24.8136449
  14.2273211  27.2481704  25.1732779  14.2389596  25.7803893  25.5426931
  46.7625666  21.5625095  56.7313433  47.4094868  22.0840740  56.2562704
  45.9718752  22.1019912  56.7294884   9.2451047  84.9107820  81.3631821
   9.8679780  85.1983791  80.6956959   9.2648744  85.6034404  82.0235443
  27.8741646  30.0829649  78.8291836  28.0256748  29.1384864  78.7940121
  28.7478614  30.4683232  78.7629700  81.2392118  97.4197930  58.6894846
  80.9837695  96.7606407  59.3348503  80.5610725  97.3707360  58.0157232
  31.3471746  16.7439127  40.6872034  30.5364704  16.3062668  40.4274845
  31.6546893  17.1722126  39.8883128  36.4616060   4.8089984  91.0180092
  35.8408332   5.0938565  90.3473854  36.9430137   5.6027281  91.2513924
  14.6787655  11.7533970  55.5062437  14.5124543  11.1950970  56.2657642
  15.2007294  11.2079787  54.9177694  85.4441882  94.7796606   7.4191380
  86.2247277  94.5096277   7.9029465  84.9463893  95.3078531   8.0431938
  48.7788046  62.2440456   5.8996201  49.4507886  61.6601722   6.2514114
  48.4018362  62.6675277   6.6708469  60.8879352  66.4754318   1.3876247
  61.1794472  65.6214117   1.0684013  61.4042283  67.1072053   0.8870792
  29.3567920  44.5279694  85.2287960  28.5996866  44.8567200  84.7440815
  29.5281720  43.6660099  84.8494625 110.5387384   2.7744156  73.1137180
 110.5688951   3.2822171  73.9245605 110.2857348   3.4088159  72.4430799
   9.7949409   1.5593234  41.1161661   9.8901236   1.2673894  40.2095556
  10.2759635   0.9096260  41.6287518  82.0799359  97.8869629  47.4878740
  82.2554364  98.8027322  47.7042007  81.7866119  97.4981713  48.3119106
  15.7192636   0.6611649  74.9361467  15.5862606   1.6057041  74.8562288
  15.0327194   0.2757097  74.3918037  44.8715973  38.5947561  84.3092442
  45.1914263  39.1764355  83.6196136  44.9359512  39.1148710  85.1102257
  10.1180840  18.7596977  90.5265713  10.0643623  19.6515536  90.8699989
  10.9550118  18.4278750  90.8516598  76.9042183  62.0424818   3.6602116
  76.5535665  61.4570974   4.3314743  76.5422273  62.9012846   3.8785076
   8.7917686  27.0281458  36.4814305   8.9366496  26.2272215  36.9851804
   9.6584111  27.4289751  36.4143586  52.2065258  42.0773220  73.9026928
  51.9519043  42.1608925  72.9837704  52.4647522  42.9620743  74.1610909
  30.5362269 102.7216446  41.5408134  31.4381405 102.4012017  41.5306902
  30.2062794 102.4810871  42.4065495  86.5830990 105.4632698  16.6840184
  86.9550320 105.3020179  15.8168995  86.3803133 104.5915821  17.0235324
  33.4252954   9.8265517  35.9258318  33.8456488  10.3849578  35.2718306
  32.8983331  10.4283679  36.4515328  15.1186824  36.7143822  73.6477232
  14.5266175  37.2674608  73.1380224  14.5425475  36.0916901  74.0910673
  63.8619089  10.7069540  72.8760147  63.2873917   9.9438709  72.9381895
  64.5685530  10.4279256  72.2937536 106.0963079  92.4946207  62.7874422
 105.9417602  91.7485374  62.2080421 105.4789921  92.3699766  63.5082865
  97.9297838   8.2395107  54.3415117  97.5306389   8.4244263  53.4913826
  98.6502334   7.6414204  54.1428375  36.2958097  27.7627921  53.8870430
  35.4778361  27.8675485  53.4010553  36.1349702  27.0204043  54.4694710
 102.6063713   7.0419347  56.3663960 103.3201459   6.9652295  56.9995403
 101.9075492   7.4867475  56.8460035  26.8247437   7.5690019  70.2430296
  26.0777593   7.0372826  70.5178404  26.4321828   8.3485258  69.8500013
  60.9616400  52.0627010  29.0380383  61.1805297  52.1391826  28.1093407
  61.7795778  52.2609330  29.4940090  34.1496301   4.2488357  80.7770729
  34.2541671   3.8838410  79.8983860  34.9094725   4.8196501  80.8912754
  55.0684023  37.6184225  86.0086632  55.1339436  38.5696125  86.0933685
  55.4680920  37.2785640  86.8092728  37.3642087  34.4348431  67.7546549
  38.1720209  34.9131250  67.5677872  36.9569039  34.3086147  66.8976831
   6.7078584  12.7632487  57.7386856   7.4271756  13.1817615  58.2116127
   6.2853354  12.2045183  58.3910084 100.6470165  18.1238174  90.8311176
 100.8406815  17.7970088  91.7096996 100.5736205  19.0720737  90.9390736
  40.7039738   4.8659906  50.2488565  40.2206659   4.1183281  49.8972225
  40.3423738   4.9939236  51.1258411  10.6725478   8.6280656  55.8773518
  10.6890559   8.6982447  56.8318319   9.7460508   8.7000489  55.6478882
  93.3696838 100.7497781  81.5567684  93.6054047 101.0835156  82.4223900
  92.9191753  99.9238235  81.7330456   4.3746337   6.7917037  48.3404589
   4.0971488   6.2018955  49.0414286   4.3045616   6.2661958  47.5434875
  44.1106934  39.5391952   0.3548241  44.0946413  39.8571907  -0.5478668
  43.2375742  39.1729115   0.4952908  43.1563831  78.1711506   5.8397484
  43.0797411  77.3107360   6.2521172  42.9736704  78.7919210   6.5450764
  43.7279458  61.3281094   0.9622765  44.2710692  61.5025054   1.7309380
  43.7596399  60.3772037   0.8573723  18.8449347  40.3607750  40.1255226
  18.8808537  39.5188999  40.5796051  18.4304273  40.1625013  39.2858171
  46.2478811  94.4889425   1.2602520  46.4056177  94.6538519   0.3306484
  45.2953643  94.5176815   1.3503456  84.8277684 101.6184121  56.1285400
  84.8276731 101.8016290  57.0680428  84.5367285 100.7089737  56.0618401
  99.0605947  86.5878063  64.0980244  99.0032931  87.2031587  64.8289776
  99.7874447  86.9135231  63.5671520 101.5583035  81.1726409  39.0260077
 101.9952460  81.4687901  38.2275033 101.4274307  81.9709974  39.5376015
  42.6006771  64.0971051   3.1886959  43.5330982  64.3039869   3.1252670
  42.4133272  64.1209959   4.1270733  31.5124750   3.1103089  52.7170706
  31.5114427   3.4834731  53.5985374  31.2367940   3.8315356  52.1513319
 110.4090758 100.1780319  39.9111915 110.0354620  99.3358868  40.1708794
 110.8189388 100.0069630  39.0632653  13.4684944   8.4192920  89.3211174
  13.1970298   8.2876831  88.4126949  13.2408476   9.3297184  89.5096111
  97.7286383  95.3027278  81.5342617  98.4704920  95.8657878  81.7552757
  97.3372766  95.0796693  82.3788357  12.2907281   7.6611733  47.0773506
  13.1922865   7.3631281  46.9565487  12.2840273   8.5520226  46.7272425
  18.5887885  38.2838225  46.4487123  17.8014529  38.8281870  46.4500999
  18.3644915  37.5368404  47.0036316  93.4807702 105.1367227  79.7323847
  94.4279131 105.1770683  79.8647547  93.3777460 104.8480826  78.8255739
   5.0057887  90.6875568  16.5063727   5.3233432  90.5084795  17.3914266
   4.3327855  90.0240427  16.3545573  84.7245141  96.1554581  63.2369900
  84.3933632  95.7384628  62.4415731  85.3203448  95.5092287  63.6159420
 106.4957532   6.0627621  57.4281549 107.3775217   6.3787276  57.6253366
 105.9222850   6.7936426  57.6587582  35.4169822  24.5965147  90.7059479
  34.5513725  24.8565030  90.3907394  35.2705669  24.3262625  91.6124630
   5.7348298  84.8894459  64.9501038   6.0074901  84.8399120  65.8663130
   6.5394401  84.7435885  64.4525480  16.2515748  25.2403688  58.8398123
  15.7617879  25.0431824  58.0414057  16.2871659  24.4077945  59.3107510
  93.0687448  96.5717214  31.4529610  93.9609810  96.5604526  31.7994022
  93.1332537  96.1220276  30.6104374  74.2566618  98.5125178  48.3528852
  73.5251255  98.1172675  48.8270855  73.9630982  99.4025963  48.1584311
  39.0254068  19.3868721   8.6560863  39.3927002  18.6545098   9.1510338
  38.7928581  19.0098345   7.8075606  10.3911364   0.8599304  38.4478021
   9.4696462   0.7688294  38.2053375  10.8664048   0.3866395  37.7649069
  28.6210370   7.6877600  50.8207369  28.3200479   6.7947400  50.6529474
  29.5074105   7.7134579  50.4603052  15.2538335  21.1194801  74.4852734
  15.0539732  21.7333937  75.1919556  14.9002731  20.2829242  74.7876024
  17.4519467  57.2854853  69.3174124  17.8655863  58.1045389  69.0448523
  17.7408373  57.1604967  70.2213764 110.0910755  98.2403129  34.3955207
 109.3448516  98.0282545  34.9562454 110.6759211  98.7488365  34.9572968
  53.4859920  72.3258005   6.0046959  53.0579592  73.0617212   5.5671501
  54.3038452  72.2033654   5.5226612  45.6063128  17.3573506  55.9049177
  44.7033978  17.0398140  55.8925343  45.9035015  17.2696173  54.9992609
  70.5703586  87.9117173  44.4898510  71.3668414  87.8651887  43.9610052
  70.3918349  88.8485211  44.5720720   1.4034799  26.4547062  80.5212593
   0.8511532  27.2285080  80.6326103   1.4018995  26.0335994  81.3808441
  90.6187392  57.1762900  14.3531418  91.3198472  56.7007695  14.7987366
  89.8628331  57.0879232  14.9336910  35.3498554  13.5679924  16.7476034
  35.1461720  14.4761348  16.5239429  36.2155414  13.4163082  16.3683808
  34.1423202   9.4381481  48.3541727  34.8240066   9.2462826  47.7101803
  33.5555935  10.0483119  47.9073095  12.5438070  11.8612349  76.7155695
  13.1558824  12.5955749  76.6671896  11.7046130  12.2632885  76.9399309
  54.4657183   1.4912233  54.4956160  54.0963984   0.9841989  53.7725925
  55.3319740   1.7549157  54.1852999  50.0480533  78.3083271   1.6289616
  50.1220799  78.0897831   2.5579357  50.2847803  79.2345618   1.5812111
  87.1413275  89.3253046  38.2866859  87.2151383  89.7514766  37.4327755
  86.2618252  88.9475602  38.2906199  42.5822926  24.9887013  87.7343369
  43.3794737  24.4794989  87.5878906  41.8817234  24.4463682  87.3719788
  35.7449412   0.1060875  71.7350960  36.2410450   0.5600444  71.0538960
  34.8521066   0.4386633  71.6430473 104.6155282 104.3721406  44.5654106
 104.5634719 104.0405994  45.4618502 103.7042113 104.4314594  44.2786837
  52.7930546  31.1793447  64.9751186  52.0465755  30.9005523  64.4447660
  52.6182652  30.8172297  65.8437681   7.7119535   3.3454701  32.2028232
   8.1691080   4.1464174  32.4591923   6.9760942   3.6493361  31.6714025
  10.1947379  28.0238557  74.8306799  11.1490691  27.9789186  74.8895454
   9.9621743  27.3499703  74.1919088  72.5490142  63.1553100  12.3226070
  72.3444415  64.0894853  12.3637962  71.7387200  62.7458237  12.0193291
  67.1754742  12.8496730  51.0131073  66.5989065  13.3872890  50.4701805
  67.1259975  13.2478166  51.8821669  43.0796432  18.8918710  42.7163458
  43.0287695  19.7374845  43.1619692  42.3755407  18.3732617  43.1055975
  53.3694029  15.3953886  82.0637321  53.6995554  14.9073935  81.3093472
  52.9140091  16.1461532  81.6826725  35.7993340  18.6165917  35.7230616
  35.0828743  18.0588460  35.4200125  36.1860728  18.1339133  36.4535999
  20.5748463  14.9730146  68.5757065  20.4447722  14.1214705  68.1583500
  20.0340962  14.9381185  69.3647575  27.2543263  17.0164621  56.7966843
  28.0485272  17.5505507  56.8117952  27.1552277  16.7605221  55.8796740
 102.5878575   4.4013119  60.0431824 101.7415056   3.9542323  60.0368357
 103.0276439   4.0928122  59.2509413  58.3117914  33.7465978  81.3524532
  58.6242199  33.0827856  80.7376575  58.8352633  34.5228267  81.1532688
  47.6736975  -0.1176503  35.2073908  47.3232508   0.4767163  34.5439553
  47.9889774   0.4591612  35.9031796   8.1643862   5.0085741  76.4165497
   9.0353620   5.3727216  76.5747595   7.9502034   5.2791697  75.5237293
 101.1930415  23.1637192  69.5091724 101.7145452  22.6527715  70.1282024
 100.3207800  23.1979203  69.9018860  32.1415163  52.1601319   1.4485931
  31.9486476  51.7185314   2.2756481  33.0729205  52.3740854   1.5028381
   4.3322662  47.4470711  78.7401819   3.7350616  46.8527746  78.2858849
   5.1845115  47.0140791  78.6909294  35.2915072  29.2921162  61.8194771
  35.9504128  29.2395830  62.5118065  34.4667482  29.4341373  62.2840548
  41.2363577  38.3972931  72.4657106  41.9394636  38.3673739  73.1145382
  41.6518879  38.7487388  71.6782761  42.0443487  21.4405417  74.6015310
  42.5800514  22.0954132  75.0491858  42.0957136  20.6657863  75.1613045
 109.6363256  54.8664013  31.0537910 110.3824995  54.5441266  31.5593529
 109.1639826  55.4362737  31.6607285  52.0426321   6.1235958  76.6301203
  51.5963125   6.6161966  77.3188686  52.2236347   6.7726904  75.9503078
  15.0465345 105.1301059  71.9399214  14.7759723 105.2316210  72.8524542
  14.2490815 104.8647771  71.4817619  82.2259713 101.4408229  10.4429436
  81.6115380 101.7128299  11.1246490  81.7017079 101.4201854   9.6423435
  14.5946014  22.1468449  69.3782806  14.8345423  21.2202883  69.3905401
  13.6603963  22.1495986  69.1697502  43.7556124  25.8017755  26.7807102
  43.4403181  26.1546254  27.6127672  44.7019863  25.9434676  26.8036985
  96.5154692 102.2409984  86.6059208  97.2306510 101.7298782  86.9847393
  95.7598516 101.6541412  86.6354561  93.5366107  31.4226769   6.9973278
  94.2205573  31.8849515   7.4818325  92.8765774  31.2112902   7.6575565
  26.6347980  34.9553490  71.9829464  27.4215865  35.4301310  71.7150354
  26.8334579  34.0378237  71.7960978  35.9754038  18.7162614  72.0126915
  36.2482238  18.2581210  72.8076172  35.7503557  18.0172789  71.3986778
  40.7717609  31.4873528  79.7373056  41.3660431  30.7502127  79.5970058
  40.7048607  31.5632701  80.6891441  95.6849989  18.7186444  55.1684189
  96.5310845  18.8816988  54.7515440  95.8755073  18.7223279  56.1064625
  12.0182562  29.5905447  53.5073662  12.9083574  29.9413967  53.5365963
  11.7793727  29.4666147  54.4259548 103.7759176  37.4426365  55.0622463
 104.0195152  38.3679032  55.0900316 102.8521618  37.4305344  55.3127670
  29.1500902  36.4267969  66.9224262  28.4012032  35.9219909  67.2395515
  28.8853240  37.3404932  67.0286846  37.6467776  41.2494087  66.0943556
  37.1607161  41.1631250  66.9144344  37.3380327  42.0738363  65.7185459
  80.0883194  95.3119927  42.5290203  79.8445763  96.2137413  42.3200417
  80.0140031  94.8448187  41.6968822  33.9237953  39.6875738   9.1996956
  34.6883694  39.2001926   8.8929081  34.2817492  40.5115830   9.5300102
  93.9993664  80.8531123  56.0633850  94.8217674  80.3654867  56.1093140
  94.2587265  81.7696172  56.1581850  72.2275854  73.8097952   5.4725361
  72.4184442  74.7326802   5.6401253  72.5989295  73.6418604   4.6064377
  18.1534827  43.8091803  34.3996859  18.9307642  44.3213320  34.1766095
  17.9001951  44.1239119  35.2674532   4.2753033  99.5086311  11.2754726
   4.8042539 100.1790641  11.7078686   4.7268871  98.6867212  11.4672279
  34.1303015  36.1194110  61.0465336  34.0014172  35.9793997  60.1084423
  33.4328747  35.6125665  61.4623928  11.3301658  89.7624498  73.8837004
  11.4923715  89.0440780  73.2722569  11.8795966  90.4779821  73.5637426
  42.4888992  15.6807864  68.8521385  42.0223951  16.5027499  69.0037346
  42.2249603  15.4145002  67.9714251  32.1179271   7.1882504  41.7340517
  32.3363495   6.2951660  41.4677382  32.8105259   7.4311209  42.3485041
  85.5038973  92.7920586  62.3525810  85.3965219  92.9832023  61.4208269
  86.4225551  92.9909187  62.5335598  20.0180578  99.7677445  33.2356930
  19.2350101 100.3109091  33.1460452  19.6990775  98.8702148  33.1412268
 101.0207841   3.3629966  85.0152588 100.7785758   2.4528269  84.8445034
 100.7928881   3.5031047  85.9343147  41.2084723  48.4004831  77.8560686
  41.6344452  49.0615129  78.4017992  41.9294119  47.8731155  77.5120306
  11.8073535  24.4934702  86.6917610  11.7902887  25.2547050  86.1116982
  11.9220614  23.7468719  86.1038208  43.4977674  32.6811910  64.4763136
  44.4225740  32.7826905  64.2512369  43.0285549  32.9358959  63.6818361
  35.9738612   3.2702366  82.9844761  35.4689169   3.6290896  82.2547531
  35.3592348   3.2585022  83.7181854  56.5581560  22.7221251  61.6728258
  56.6672373  23.5585189  62.1253490  56.9090223  22.8767729  60.7957792
  82.5345088  82.3074411   2.0691776  81.8451024  82.9553078   1.9235134
  82.5853062  81.8224286   1.2455177  84.5032951  40.1946449  55.3343344
  84.9513361  40.4388523  56.1441851  84.8348400  39.3198824  55.1316023
  44.6070576  28.5787725   8.7156487  44.9395752  28.3640099   7.8441316
  43.6573219  28.6238885   8.6052299  52.0500755  37.2311950  39.4404078
  52.6547384  36.7700815  40.0217772  52.6161623  37.6707387  38.8059163
  31.1031055  13.9984798  30.4775500  30.6739879  13.1428933  30.4854560
  30.4840016  14.5727849  30.0268698  21.5795780  83.8487791   0.4267883
  21.6244710  84.7632574   0.7059765  20.9872962  83.8567113  -0.3251266
  92.9574176  93.7469762  33.0144262  93.8673910  93.9432078  33.2372999
  93.0092772  92.9693359  32.4587131  30.6436014  13.2359779  89.4766808
  29.8077011  13.5575712  89.8144341  30.5495644  13.2781279  88.5250473
  44.1394520  30.0636744  76.9683599  44.8494291  30.6083202  77.3082542
  43.7011242  29.7265410  77.7496624 105.3038641  95.8362633  85.1744175
 104.7144171  96.4426040  84.7259426 106.1127754  95.8666831  84.6635723
 110.5416651  16.5319228  89.8503780 110.1463534  15.8350194  90.3740978
 110.5557730  16.1831033  88.9591122 103.2212898  24.3342805  82.2099113
 104.0938172  24.6408010  81.9629860 102.6435259  25.0712371  82.0116329
  37.0958757  19.3000150  60.8545542  37.6082253  19.4295835  60.0564671
  36.6262555  20.1254463  60.9743452  77.5179721  70.3161691  11.1570549
  77.0507575  70.3462480  10.3221703  78.3970786  70.6339930  10.9511471
  51.8854833 101.0571645  34.5670986  52.4890996 101.7801164  34.7380257
  52.4283160 100.2714513  34.6321011  19.7576582   8.4263134  49.3565464
  19.8679841   9.3629873  49.1931391  19.9648786   8.0110949  48.5193586
  40.8802795  28.1832862  68.3118439  40.5795717  28.7057233  67.5682926
  40.3227854  28.4590864  69.0394211  28.9448977  21.3463902  65.5169296
  28.7152600  21.6296721  64.6319199  29.8890948  21.1930990  65.4819155
  31.1263204  11.9237506  64.1264105  31.3700700  11.5104938  63.2981396
  31.9615173  12.1282792  64.5469427  40.1502798  58.6428522  11.4498806
  39.2030618  58.6939065  11.3218021  40.5168290  58.7515830  10.5723572
  62.0961905  16.9914198  87.4491405  61.5733004  16.4325809  86.8742371
  62.6264524  16.3798761  87.9600811   3.4127092  42.5426102  51.4786577
   3.9924598  42.9356146  50.8262253   2.7304634  43.1991196  51.6192675
  32.3455715  14.3761504  68.8560200  32.8234816  15.0414026  68.3607674
  32.9604554  14.0938783  69.5331240  44.7150707  16.4402020  66.1102486
  44.8127937  15.5318725  65.8245564  43.9607430  16.4261651  66.6993332
  56.8678785  83.5509204   6.9537258  56.8666077  83.8430594   6.0421944
  56.0394300  83.8724373   7.3094368  41.8996811  14.7906971  84.2275715
  41.1838961  14.1813064  84.0472317  41.4771605  15.5378115  84.6512794
  96.3353873  64.2990504   6.1881828  97.0120717  64.9672328   6.0792637
  96.8092824  63.4686278   6.1428738  76.7592042  80.8270937  60.3240633
  76.3312981  80.8320147  59.4678450  76.3759967  81.5717417  60.7876158
  98.4269954   7.3492091   7.7928543  98.8332392   8.1243508   7.4050999
  97.8371789   7.0226519   7.1133614  23.7849569  65.4085970  86.8401337
  23.5019112  65.9945011  86.1381054  22.9815269  64.9765110  87.1300220
  33.3891463  34.6960592  67.5410557  33.7151551  35.5792999  67.3683167
  32.7144170  34.5556259  66.8767881  77.3768950  11.1284959  45.0409126
  78.3206224  11.0718417  44.8912430  77.2356224  12.0259976  45.3421831
  72.0835925  52.7737308   5.1943302  72.4763370  53.5871469   5.5110931
  72.0124579  52.2226950   5.9737682  -0.1030783  31.6411519  66.4843893
   0.6752841  32.1778393  66.3348913  -0.4590561  31.9611573  67.3133087
  41.0848284  32.0594072  71.0838223  41.2539053  32.7176452  70.4097509
  41.7153931  32.2580194  71.7760468  32.1683931   0.5866313  45.7255316
  32.6417255   0.4092272  44.9126863  31.3019872   0.2042062  45.5865192
  26.7067790  38.2397413  69.6468544  26.0672116  38.8455033  69.2723703
  27.4584246  38.2897806  69.0562963  59.1277310  77.0952469  33.2948232
  60.0179728  76.7909223  33.4711409  58.6718770  76.3221961  32.9619217
  51.7588949  22.8287649  83.0316639  51.7151260  22.9621744  82.0848179
  51.8147087  21.8790627  83.1373978  65.6385971  82.8183387  13.2275486
  65.2707387  82.1184705  12.6880169  65.8713127  82.3889588  14.0507793
  26.5958261  42.8257418  56.0051966  26.1304760  43.0999231  56.7954493
  27.1520519  43.5725403  55.7835197  97.7176961  15.5800283  47.2151852
  97.3134622  15.4380810  48.0711508  97.5880918  14.7540390  46.7491674
 111.5042491  14.6928227  67.3597145 111.1557555  15.3842688  66.7969656
 111.4338580  15.0471938  68.2461119  11.9525266  70.0497818  32.8490567
  11.9696367  69.8373222  33.7822247  11.7807901  70.9910250  32.8208208
  35.1870871  37.7329373  48.5494709  34.9419713  37.9161406  47.6425076
  35.3670049  36.7929053  48.5637426  37.2999501  28.6853981  81.4212704
  36.9367433  29.4658947  81.0027790  37.1228862  28.8092542  82.3537636
  39.2396402  29.4495869  77.7985525  39.2237973  30.3975725  77.9300928
  38.3573484  29.2350340  77.4956369  27.8891206  23.9606953  78.8278008
  27.1905041  24.5926952  78.6582661  27.5513029  23.1328464  78.4860802
  68.3515835  18.8752067  35.0569892  67.4273825  18.9038575  34.8094726
  68.3525467  18.4955835  35.9356904  22.1301341  28.1978869  59.7997141
  21.3958931  27.7013803  60.1611042  22.9069734  27.7106929  60.0743008
  14.5237302  88.8311213  61.3668776  15.0327443  89.2788213  60.6910801
  15.0367116  88.9437622  62.1671247  52.8412104  36.5223289  46.8659925
  53.5387087  37.1602130  47.0170832  52.0699549  37.0533061  46.6673422
  17.5699604   3.3712795  42.2595167  17.9412901   3.2457581  43.1327820
  17.3908794   2.4848850  41.9457245  93.8846923  63.3051907   6.9484520
  94.7336245  63.5358249   6.5711498  93.8090850  62.3612331   6.8089581
  40.3986225  76.8266104   7.0785427  40.0384409  76.0016273   6.7531204
  40.2886284  77.4393462   6.3514328  82.5704385  65.1587556   4.0840149
  82.4203254  65.5227851   4.9564743  82.7988530  64.2428528   4.2426968
  24.7036242  29.3297958  58.9692497  24.9575639  29.1653514  58.0611181
  24.2446947  28.5337758  59.2375135  94.4837638  72.8053838  80.2516747
  95.3002568  73.2137710  79.9639368  93.8593861  72.9998499  79.5526981
   4.3985215  34.3906164  53.6744213   3.8222301  35.1271486  53.8784838
   5.2276361  34.6103668  54.0992880  42.8633911  76.7171453  22.4431801
  42.4745197  77.1289896  21.6715622  42.5469369  77.2408222  23.1792831
  99.5128127  93.2283634  89.6073341 100.4360005  93.3205646  89.3718529
  99.4009324  92.2928029  89.7759819 101.5115222   0.0438662  81.5085888
 101.0728964   0.8725105  81.3157463 102.0853606  -0.1039912  80.7568645
  90.1333209 104.2743943  61.2447929  90.5699202 103.7623279  61.9255304
  90.7562419 104.2872087  60.5181313  68.4577680  70.9110688  12.1689701
  68.3874775  71.8645404  12.1222496  69.2496324  70.7046662  11.6724014
  77.4763238  96.6573554  49.0189981  76.9254556  95.8865159  48.8826847
  77.0942038  97.0931351  49.7807837  20.9802222  44.0212727  67.4610806
  20.8820057  44.0802526  66.5107632  21.3884306  44.8500395  67.7115726
  19.3533540  37.0469642  60.6229115  19.7492564  37.8356695  60.2521896
  19.6327186  36.3416719  60.0391722  87.0381101 102.4981791  58.6197233
  87.1442565 102.1539300  59.5065498  86.0921582 102.4956268  58.4734392
  20.7277751  47.8663874  76.6166973  20.8786249  47.0506811  77.0942974
  19.8202801  48.0963993  76.8161440  39.4535995  14.1344643  62.5170994
  39.0283179  13.8371766  61.7127466  39.4901848  15.0870550  62.4307060
  87.5858880  59.2322789  12.4785519  86.9874097  59.7855739  11.9766331
  88.3670235  59.1647451  11.9294548  28.9820504  19.2993939  46.7322874
  28.7860918  18.4219551  46.4037514  29.4298005  19.7327411  46.0056782
  22.5948524  70.6659937  41.7880726  22.9359174  70.5800819  42.6783133
  21.6910338  70.9586668  41.9050550  91.3101491 102.0739370  54.7032976
  90.3721436 101.9008964  54.6230841  91.4013108 102.5125575  55.5491877
  88.1837352  77.6023465  77.7616501  87.8949388  78.2689124  77.1383381
  87.4415823  77.4927836  78.3561516  78.4333134  57.3061557   1.2856674
  77.9425765  58.1098996   1.1141777  78.6438895  56.9641103   0.4168129
  99.8011132  97.9084193  84.4602108 100.1811548  97.4557656  83.7072849
  99.6077915  98.7887400  84.1378880  92.3339654  75.1249264   8.1784821
  92.4801446  74.6113156   7.3840904  92.9814530  74.7933434   8.8006115
  42.4753666  26.6202307  66.3110352  42.3964119  25.7752728  65.8682680
  41.9336414  27.2143531  65.7916307  60.4315849  98.3838945  57.9547405
  60.8028468  97.5419014  57.6912165  59.8179885  98.1660366  58.6563587
  14.4231058  34.5747458   1.8990707  14.8054624  33.6974619   1.9192600
  13.7295700  34.5186709   1.2417316  33.3588886  36.8730497  75.6248903
  33.6900544  37.6356840  76.0991812  33.8669825  36.1381578  75.9684086
 106.9315031  24.8383784  80.2003384 106.8610847  24.7216773  81.1477852
 107.4363494  25.6447983  80.0952148  35.4142737  15.2780831  77.4875450
  35.3582525  14.7913909  76.6652155  36.0914636  15.9361506  77.3307323
 110.0712891   1.8741640  90.0593090 109.8385078   0.9739453  89.8320484
 111.0241215   1.8596831  90.1494980   3.0462265  51.6434956  55.3712225
   3.1334656  50.7037878  55.5311298   3.8718420  51.8935204  54.9563980
  14.0182960  38.5246563  22.8832984  14.6778166  37.8670430  23.1042290
  14.4877636  39.1641808  22.3477221  22.8603315  65.7660580  71.6684723
  23.4481001  65.0194263  71.7838049  22.0369649  65.4867887  72.0688581
  59.4745970  29.3599224  34.9129677  59.1265202  29.9584341  35.5739212
  59.7264624  29.9276638  34.1846371  20.9527588  26.7043757  63.9349985
  21.3152862  27.5825810  64.0514326  20.6752801  26.4415097  64.8125744
 100.9747792  79.0699051   4.0010452 101.2007523  78.6029266   3.1966209
 101.0116912  78.4009932   4.6847248  96.5944049  27.6911831  73.0783176
  97.5283346  27.6242590  73.2771349  96.1577818  27.3835611  73.8726473
  44.8390293  28.3436561  87.3485565  45.6665277  28.7103605  87.6600170
  45.0150967  27.4084139  87.2458172  26.6346240  26.5481472  51.6263390
  26.2350488  27.3567629  51.9468307  27.5694990  26.6576552  51.8002653
  97.8732248  94.4389444  71.3871574  97.0063730  94.8329204  71.4850664
  98.4419294  95.1690656  71.1427641  85.2580691  65.0505887   7.7101231
  84.3970156  65.2155839   7.3259449  85.1114083  64.3343781   8.3279991
  65.6819511  85.7407497  10.3413773  66.4704014  86.2457965  10.5401325
  65.3296090  85.4997014  11.1981010  15.1211560  12.4926841  74.9585390
  14.7317815  13.2898700  74.5992136  15.8903778  12.3341751  74.4113588
  18.6329901  18.4289968  73.2091093  17.9070878  19.0332997  73.0538225
  19.3788695  18.8312030  72.7639961  60.5719137  22.0157838  83.6675739
  61.2034321  21.3987589  83.2978535  59.7474194  21.5300465  83.6899948
  54.7041655   4.5976585  74.4178581  55.6426287   4.6490127  74.5992041
  54.3646717   3.9964044  75.0807858  34.9292994  22.5931025  74.4357538
  35.8807802  22.5319672  74.5204782  34.7482729  22.2918487  73.5454130
  13.8386369  17.2029769  52.4258947  14.2493653  17.1573722  51.5625000
  13.7267995  18.1395662  52.5887585  44.8873056  50.6833016   0.6919003
  45.4225028  51.3329007   1.1477757  44.5244891  50.1389311   1.3906574
  41.0666704  13.6567724  80.3269863  40.5095673  13.8160026  79.5650721
  40.6312180  14.1193652  81.0429668 107.2084695  13.9839470  54.2646408
 107.8135350  13.2444263  54.2077589 106.4795229  13.7414658  53.6936140
   5.6775855  67.7974301  66.2422609   6.4845227  68.1702238  66.5973854
   5.8808946  66.8720251  66.1061621  41.7945910  25.9370613  41.3267136
  42.6245546  26.2300062  41.7029762  41.3674021  26.7417836  41.0331774
  93.0075451  93.3654791  72.3390007  93.2802518  94.1127652  72.8713799
  93.6955067  92.7132576  72.4714708  47.2138882  32.7354264  88.1568718
  47.5162697  33.2308555  87.3957157  46.2684822  32.6552749  88.0303192
  53.8718176  25.8495688  33.6370444  52.9472971  26.0056067  33.4443212
  53.9353228  25.9318304  34.5885849   5.6228667  37.6965880  87.9285049
   6.5206093  37.9502583  88.1428432   5.5012393  37.9870272  87.0245838
  51.9935179  42.9601192  79.8598194  51.5405655  42.9234076  80.7022667
  52.9196024  42.8625393  80.0813484  31.4054942   6.3017005  76.1252403
  32.2437000   5.8628815  76.2704229  31.3869548   7.0038760  76.7754984
  35.3341603  58.6785841  67.7064848  35.0383115  58.6698437  66.7961979
  36.2797260  58.8161230  67.6497078  84.7820330  79.6827696  11.0592651
  84.5357037  80.3642605  10.4338646  84.4335318  78.8747405  10.6826115
  59.5740461  28.9931750  48.8473940  59.5455885  28.2532549  49.4539690
  59.9703789  29.7025323  49.3533230  28.9739251  11.1188197  49.8372793
  29.6503949  11.7374897  49.5618343  29.4394469  10.4791188  50.3760767
  61.5973140  84.2998909  21.0944748  61.3672019  83.3708666  21.1084461
  62.5310660  84.3122219  20.8842564   8.9978069  14.0195286  46.0789585
   9.7681040  14.0534127  46.6461706   9.0425390  13.1573784  45.6655216
  27.6551318  19.4425476  70.0978470  27.9175997  20.2093887  69.5886326
  27.7215910  18.7122858  69.4825983  43.4209061  16.7372727  61.5834045
  44.0450859  16.1826003  61.1154604  43.9344358  17.1356273  62.2861385
  90.8308538 103.5073378  67.4468756  90.2607711 104.0867752  67.9523373
  90.2295812 102.9698959  66.9312620  49.1879845   7.0489675  79.2627335
  48.9182758   7.5651944  78.5031319  48.5489130   7.2685385  79.9406815
 110.0439139   6.5103048  91.0219669 109.8045993   7.4366295  90.9922600
 110.5243357   6.3608080  90.2076721  19.6734607  31.1171603  35.1404238
  19.2471695  30.3329110  35.4860568  19.2691779  31.2514734  34.2832494
 104.8500714  32.2061610  83.0198479 104.1935799  32.0066929  82.3524189
 104.4078335  32.0313668  83.8505745  49.6603060  12.1577537  76.2239361
  50.1956081  11.5986514  76.7870426  48.9248228  11.6026425  75.9648037
  31.2120199  46.1594296  67.1042585  31.1061072  47.0928478  67.2879457
  31.9772100  45.8996725  67.6173258   1.6077162  24.1488171  66.7835903
   2.4233440  23.6732316  66.6261005   1.5000479  24.1313171  67.7345562
  15.5734992   8.2240409  68.6946011  16.0654044   8.2861614  69.5133829
  15.9044445   7.4293476  68.2760668  30.7495022  31.2805915  53.9338684
  30.8390236  30.7368755  54.7165489  31.5405631  31.1010242  53.4257269
  24.4768524  29.5208883  65.6629419  24.5521021  30.3740549  66.0903454
  25.2827668  29.4363284  65.1534462 108.7673834  12.6631248  58.0404711
 109.6557778  13.0139303  58.1031036 108.6730418  12.4125946  57.1214676
  54.9102449  30.5512905  89.5132160  54.6609592  29.9252653  88.8333797
  55.1651859  30.0069857  90.2581787 104.7605678  83.8223916  71.3710451
 104.6884342  84.3535453  72.1640778 105.3138443  84.3396979  70.7857990
  31.2361921  67.1902119   2.3046112  31.8447394  66.8136369   1.6689301
  31.2304724  68.1263922   2.1051979 104.5366641  95.9961247  39.9095631
 105.4394146  95.9086752  40.2155447 104.3333694  95.1469451  39.5173931
  33.6375952  29.7115541  80.9812737  33.3177757  30.5274963  81.3662338
  33.4263349  29.0412068  81.6310692  27.3456430   6.7017829  80.8851242
  26.9014502   7.4568224  80.4993248  27.1662474   5.9829313  80.2790737
  14.4278049  94.1168552  80.4950428  14.3900537  94.0292066  79.5426130
  15.1786565  94.6890384  80.6533337  59.8781658  79.7151135   9.3188572
  59.5834041  79.4935011   8.4355450  59.6819282  80.6475423   9.4099522
  17.2666287  31.2394691  28.2007980  17.5950098  32.0778465  28.5256410
  17.8154910  31.0454345  27.4409747  47.1042776  18.2759821  34.1399693
  47.0788717  18.9838207  33.4961128  46.1843204  18.0712533  34.3072772
  69.9929278 102.3319906  46.3183212  69.9628689 102.3255446  47.2750282
  69.2075016 101.8547418  46.0507917 111.1510325  47.3172765  20.4861546
 111.5691615  47.4563699  19.6364117 111.2760068  46.3852535  20.6648827
  27.6658010  20.1587391  54.6743107  26.7970228  19.7854984  54.5254946
  27.9942489  20.3580332  53.7975931  26.7730308  40.3224754  37.5420260
  27.4837947  40.0419283  36.9655371  27.0125437  41.2119722  37.8021407
  99.6170326  90.5256337  51.9253206  99.4895025  91.3607436  52.3753834
  99.6130534  89.8730904  52.6256084  71.7484864  75.1129275  52.4665689
  72.0531348  75.8894974  52.9359961  72.5227525  74.7944575  52.0025444
  70.2936126  59.8007749  12.9507065  70.8791185  60.1220404  13.6364174
  69.4252134  60.1037024  13.2159328 104.9786617  12.8591244   1.6123390
 105.6005646  13.4026377   1.1285400 105.5185701  12.3771613   2.2387886
  93.4199143  58.1946229  16.9706917  93.3550931  59.1283308  17.1712494
  94.2400552  58.1104808  16.4843559  30.7847500  24.1178751  15.5169332
  31.0620046  24.1837597  16.4307272  30.8294392  23.1822324  15.3199446
 107.5900891  39.3050694  71.6801786 106.8471432  39.7904658  71.3215017
 107.1918556  38.6200047  72.2171450 102.4531618  43.9404202  73.0267668
 103.0356690  43.5309410  72.3870420 103.0155566  44.5461273  73.5095310
  23.5362053  28.9136410  39.1937351  22.9753280  28.1452036  39.2993569
  24.1453576  28.8686705  39.9307179  94.2599913  43.3734035  74.0830564
  93.8965222  44.2468214  73.9372396  95.0025496  43.3194923  73.4814453
  78.6713601  83.8706802   5.7916260  79.0495253  83.9545821   6.6669464
  79.0758801  84.5765375   5.2872849  48.5987616  37.2716045  67.9956198
  49.0447569  37.0632434  67.1747017  47.9336071  37.9147315  67.7502871
  25.2621484  68.5476732  87.7385235  24.3911052  68.8290501  87.4586201
  25.4766202  69.1254139  88.4709454  55.1504564  29.2864585  65.3271818
  55.9280396  28.7330890  65.4005098  55.4802656  30.1195860  64.9904966
  20.0017142  52.2172832  45.6576586  19.3985868  52.9506063  45.5363989
  19.8598623  51.6612959  44.8915100  91.9977856  59.4526647  11.7411995
  91.4803696  58.8070522  12.2225380  92.9022504  59.1543274  11.8370056
  48.8598156  26.6927385  41.9471216  47.9709244  27.0330119  42.0486975
  48.7579918  25.7417202  41.9848871  38.2762241  19.8558390  53.5500002
  38.9792085  20.3555393  53.9651394  38.0999827  19.1388679  54.1591978
  29.9732709  23.5825348  56.0000801  29.7525430  24.5129442  55.9570312
  29.8101640  23.2564831  55.1150274  64.5075178  28.9258099  43.6772537
  64.6309042  29.3072224  42.8080368  64.1713285  28.0458784  43.5071707
  50.3903723  71.2613069   0.3221989  51.1714781  71.4821516   0.8294868
  49.6739937  71.3016580   0.9557724  23.3507419  23.7611580  73.9493322
  23.0140281  23.1918383  73.2574320  24.0347242  24.2775011  73.5229635
  52.8934669  30.3849697  67.5447607  53.4591770  29.6669102  67.2608757
  52.4892759  30.0666904  68.3519554  41.5756035  42.0771551  49.6253824
  42.4162245  41.7394161  49.9344492  41.6701460  42.1205235  48.6738491
  65.1697683  33.8541174  74.7983932  64.5332909  34.5069265  74.5069122
  65.4022217  34.1259956  75.6862450  12.8537905  42.2711754  82.0668125
  11.9784880  41.9119406  81.9218063  12.8059268  42.6764870  82.9326439
  46.6202641   5.7173026  56.5454578  46.0289383   4.9834532  56.3780451
  46.2638474   6.4360255  56.0233116  48.5279846  29.6421027  49.2376900
  48.2972670  30.2507281  48.5358524  48.3193731  30.1152301  50.0432110
  45.4570198   8.8407153  59.6954346  46.3897562   9.0434921  59.6238899
  45.0691080   9.2154104  58.9046383  58.8491822  72.2149466   3.0929470
  58.7869597  72.3854803   2.1531200  58.8475180  71.2603735   3.1637859
  34.2011523  20.1134396  65.9114027  34.4596696  20.3449464  66.8034792
  34.9774313  20.2961588  65.3820276  82.6009560  98.3478092   8.4286785
  81.7187978  98.0682300   8.1840038  82.5382329  99.2999958   8.5037899
  22.1436548  15.7687855  79.7249889  22.9734039  16.2179732  79.8861694
  22.0061374  15.8510411  78.7812996  35.4621816  40.7627630  67.8938484
  35.0079989  41.2447262  68.5849810  35.9849405  40.1106405  68.3604240
  72.4187232  97.9195808  23.6126041  72.9696871  97.1464370  23.7347507
  71.6303921  97.7349924  24.1231823  89.3267442  89.1764854   2.4263573
  89.9347831  89.6487878   1.8576241  88.4673024  89.5392536   2.2118855
  31.6016459  33.5316753  57.3614836  31.4073753  32.6289225  57.6135254
  30.7837653  33.8565087  56.9849348  49.0154743  40.3504515  59.3984461
  49.9035549  40.7047844  59.3538761  48.9486837  39.9816203  60.2792072
  24.6854377  38.2686973  56.7152596  25.3940153  38.9121175  56.7278576
  24.1494560  38.4877181  57.4774837 102.1636053  96.7909550  77.9100800
 103.0570289  96.5643126  77.6519012 102.2708150  97.3417043  78.6855888
  79.8652554  80.9009813  16.1644173  80.1902390  81.7416023  16.4868641
  78.9428139  81.0612439  15.9653091  12.4722683  30.0573087  44.8968267
  12.4101424  29.9634504  43.9462662  12.3190975  29.1750836  45.2351284
  11.2796164  56.3196421  73.3235884  12.0917308  56.6936111  73.6654186
  10.8916450  57.0238733  72.8041935  15.9809983  17.2946227  72.8903580
  15.5305386  17.6340139  73.6637497  16.8758547  17.6249087  72.9701900
  11.2517941  17.6054633  73.9745378  11.4815700  16.6763043  73.9646006
  11.2864029  17.8508723  74.8990965  71.4742065 100.6236099   4.6227455
  71.0277653 101.4573215   4.4749546  71.4672256 100.5134367   5.5735588
  47.6620054  23.2691121  73.1859732  47.1417236  23.5216761  72.4232483
  47.1964359  22.5189376  73.5557222  46.5923643  18.1956899  70.1353073
  46.3774872  18.8971543  69.5204878  46.9579792  17.5009131  69.5877314
  32.2441077  63.0007029  71.6916609  32.8415632  63.5191202  72.2306585
  32.3188519  62.1116972  72.0385265  18.6990595  47.3157644  56.4177179
  19.4225812  46.7021370  56.2903881  18.7922728  47.9472923  55.7044792
  11.1334682  27.3284435  38.4011412  11.5929747  26.8423080  37.7164817
  10.9915471  26.6863227  39.0966773  97.5090930  19.0719259  71.5067959
  96.5886757  18.9731169  71.2632751  97.6792309  18.3414888  72.1015596
   5.2861356 103.9093244  73.8064623   4.7166728 104.5595810  73.3952332
   5.2038526 104.0782584  74.7450352  27.2648239  43.7997913  71.4990664
  26.5720725  43.2514000  71.1308336  27.2713494  43.5835123  72.4314880
  27.0811987  44.1538620  42.0812798  26.1842036  44.3345737  41.8002558
  27.0779800  44.3318129  43.0217838  30.9683037  21.2708044  88.9123917
  31.6332960  21.4825439  88.2572651  30.9677744  22.0226502  89.5048046
  12.9953396  44.9923372  77.6437283  12.2043312  44.8502779  77.1237707
  13.3845437  44.1221333  77.7303076   5.4725558  23.5172725  54.4450235
   5.4970616  22.5683451  54.5681858   4.6589398  23.6757302  53.9663267
  51.7443705  17.0974612  43.3181238  52.6792717  17.3010373  43.2908487
  51.5805149  16.8455470  44.2269278  48.3141183 103.8439856  62.3908710
  49.0493058 103.2388851  62.4888039  47.9750203 103.6687952  61.5130568
  58.1953669  23.1004310  45.6454849  58.9217997  22.9890108  45.0322056
  57.4416637  23.3001518  45.0902605  45.5464983  13.4590662  29.8499560
  45.4390574  12.6057291  29.4298339  45.7853746  14.0494561  29.1353869
  30.1114106  68.7345791  60.6325388  29.4545674  68.0408525  60.6920147
  29.6126890  69.5171356  60.3977728  28.9788365  45.0912142  65.4253769
  29.2101550  45.0139999  64.4997644  29.6959138  45.5951166  65.8102322
  60.7999802   9.5263809  51.9905186  60.2709341   9.9010050  51.2862444
  60.3233147   8.7398088  52.2557116  39.6895385  15.4303801  81.5842247
  39.5883107  15.9670508  82.3703384  39.6963000  16.0602212  80.8634663
  26.9887137  41.2063169  80.4831123  26.1139655  41.2518406  80.0971413
  27.5052309  40.7102871  79.8479748  14.5326066  20.1848912  88.5958576
  14.4949234  21.0031867  88.1006813  13.8094974  20.2489614  89.2197514
  60.0681353  26.6098237  66.7937851  59.3075037  26.2214088  67.2259903
  60.3427649  25.9517360  66.1552477  53.7041807  21.1293888  45.6568098
  54.4589424  21.6532397  45.9254074  54.0091515  20.2237844  45.7125044
  78.1523562  95.8319114   6.2524033  77.5234557  96.5523885   6.2927055
  77.7378751  95.1242899   6.7460728  19.0466571  74.0888786  78.4769058
  19.3721306  73.7038851  79.2905903  18.8819504  73.3384514  77.9059744
  86.1688805  93.6823677  10.2589989  87.0982457  93.7129758  10.0318909
  86.0780764  92.8913330  10.7902718  29.6369243  60.7936859  71.3016891
  30.1570892  61.5924549  71.3890171  29.6040177  60.4313040  72.1870327
  37.1377349   4.7743422  62.9739189  37.4966598   4.3955696  62.1714640
  36.8268394   5.6408018  62.7115774  37.6331663  39.1290045  72.2793531
  37.9823256  39.0569091  73.1676817  37.1765685  39.9702191  72.2690105
  30.8579803  30.7175040  28.9304447  30.0826502  30.4849172  29.4413233
  31.4487219  29.9721909  29.0389037  14.3062686  88.8237744  89.5317936
  13.7575006  89.1551691  88.8209724  13.6850690  88.4776717  90.1725388
  27.9104447  24.5308542  64.3432903  28.1756783  23.7008357  63.9471197
  27.8677416  25.1437593  63.6092949  25.4011416  23.8866425  55.7450581
  25.2100635  24.1421318  54.8425913  25.1031232  22.9790092  55.8052397
  48.8887548  33.5241270  63.2322645  48.9548731  32.5720906  63.3063364
  49.5395136  33.7586570  62.5706482  53.8294948  86.4453291   3.5864067
  54.3690897  86.1623858   4.3246555  54.4588197  86.7496227   2.9325104
 103.6819372  34.7763467  42.2336340 104.3286994  35.4346824  42.4876547
 102.8381738  35.2150345  42.3424816  63.6225080  18.1525040  41.3779068
  64.5480537  17.9571068  41.2315607  63.3726454  17.5920486  42.1125412
  25.1479869   1.1227696   0.3427410  25.0725512   0.5755942   1.1245060
  24.5564608   1.8572800   0.5065060  71.9776917  87.0298337  17.4611759
  71.9473816  86.0749029  17.4027157  71.1126590  87.3153685  17.1672058
  54.6900702  40.6201410  69.8874807  55.6018543  40.8596087  69.7215509
  54.4303989  40.1168013  69.1158247  40.9841347  33.5551548  35.2644706
  41.5169048  32.7599311  35.2659106  40.0991917  33.2509375  35.4658699
  49.3263626  13.8416445  65.0757647  49.5731592  13.8159454  64.1512871
  49.9483824  14.4512641  65.4728603 104.1493830  54.2353964  60.3008127
 104.9378154  54.7737741  60.2318621 104.2382577  53.7871218  61.1418724
  47.5156260  30.9806490  38.6564827  48.4218979  30.6840658  38.5732055
  47.1955490  30.5526280  39.4505739  18.4480858  25.7142806  81.3708973
  18.8524449  26.5402508  81.6364098  18.5101473  25.7133818  80.4157162
  63.7367392  33.1028628  87.0510292  63.7666798  33.9934874  86.7015648
  64.5301676  33.0267406  87.5810432  22.7127837 105.3947385  79.3720484
  22.7264690 105.2109018  80.3113270  22.0009088 104.8525421  79.0322208
  45.3433800  29.4449663  59.9902630  44.4604254  29.7230053  60.2338076
  45.2592611  28.5079718  59.8136425  97.5728437  90.9453481  74.5803690
  97.8652450  90.0374263  74.6604443  98.3502790  91.4226788  74.2905760
  59.7265434  70.2786493  57.8487539  60.5931520  70.6170082  57.6235008
  59.2722750  71.0249186  58.2398415   9.9177986  54.4512558  74.9157000
  10.5611885  54.3551445  75.6178713  10.3197122  55.0696850  74.3055820
  26.8516469  44.9820614  77.7219629  26.8986320  45.9219742  77.5470686
  26.9253302  44.9115562  78.6737156  15.8884966  32.4213195  72.3995638
  16.0951698  31.9994259  71.5655804  15.0068331  32.1145248  72.6111746
  56.4479494  10.4646528  39.5711040  55.7834816  10.4640198  38.8821101
  57.0553017   9.7691858  39.3187571  26.0667801  50.9605408  57.7114868
  26.2694407  51.2082243  58.6136055  25.4496574  51.6284227  57.4126148
  57.4996901  38.3337784  76.1301851  57.6682186  37.4300146  76.3967180
  57.1356821  38.7500024  76.9115210  62.7399918  88.0129319  67.2584724
  62.2027942  88.7703222  67.0260668  62.2368809  87.2589797  66.9507885
  34.0720081  97.0017433  34.8576546  34.4328784  97.2258252  35.7154393
  33.2138013  97.4253279  34.8407769  38.0203867  68.4547234  61.7140770
  38.8644147  68.0232620  61.5810728  37.3850179  67.8708982  61.2997246
  60.3649378  22.3924017  64.6270895  60.4027700  21.5016484  64.9754572
  61.2814951  22.6502037  64.5286417  20.5092955  25.4390264  26.5244317
  20.2825546  25.1194477  25.6511116  20.7522440  26.3548827  26.3887286
  37.8170800  36.1431885  44.4583130  38.4650660  36.0115290  43.7662077
  37.1748424  35.4468894  44.3207264  34.1424060  56.2245131  85.8362007
  33.5346460  55.8717728  85.1862526  33.6534905  56.2011766  86.6587830
 101.6523982  88.4132551   5.3479385 101.1766053  87.7001690   5.7738018
 101.9298983  88.9796184   6.0679817  47.0414925   2.3872605  52.1035671
  46.1904144   2.3656799  51.6660404  47.4476528   3.1981796  51.7974997
 108.9918948  93.8549398  19.9855232 109.4746590  94.5441269  19.5292473
 108.1971408  94.2865680  20.2990437  41.4337015  58.6950350  63.1544971
  41.7401028  59.5790529  62.9523468  42.2343874  58.1770134  63.2368851
  39.8991919  29.7006202  70.3340578  39.3620205  29.1821098  70.9330797
  40.4206371  30.2635908  70.9062386  34.8849583  26.2345099  40.9647274
  35.7936525  26.2867379  41.2610054  34.4235086  26.8873549  41.4911222
  39.5028472  43.1650686  71.4374304  39.1912103  42.9535580  70.5574417
  40.0123358  43.9675236  71.3246536  31.7605519  76.6845512  60.9530258
  32.4961543  76.1349678  61.2233448  31.6542315  76.5003538  60.0197506
  79.9996519  16.1749852  63.5364437  79.2612028  15.9621787  62.9657984
  80.7736301  16.0128903  62.9970741  77.1190501  94.0700744   7.8290176
  77.8247453  93.4250043   7.7830887  76.3177133  93.5558199   7.7308750
  10.4275358  47.8436708  72.4800634  10.7783353  47.8538895  71.5895176
  10.8542860  48.5824156  72.9140806  44.1880989  19.9801040  65.0854778
  44.4521475  19.3291736  64.4352531  44.9107981  20.6074905  65.1034832
  67.2151804  28.3616495  65.3717852  66.2986708  28.3168912  65.6442499
  67.1847534  28.7287712  64.4883108  35.8545709  30.6220651  32.4421597
  36.7932487  30.5593801  32.6187539  35.4472041  30.0779605  33.1161284
  69.4128347  71.5236424  15.2989578  69.3318582  70.7246696  14.7780800
  69.9536086  71.2684857  16.0464096  14.2143869  33.4201074  65.2182627
  14.9931085  33.8191867  64.8302460  13.9824378  32.7129531  64.6162939
  61.4638853  32.5935793  84.3663025  62.3860502  32.4676871  84.1427231
  60.9933090  32.4127936  83.5526085  30.8582354  48.9414740  78.3182478
  30.0366473  48.9705086  78.8085318  31.4934516  49.3731785  78.8895321
  49.4866800  31.3190842  79.0634918  49.6234941  32.2327757  78.8131237
  50.3362322  30.9018302  78.9207029  27.2858644  54.4744110  49.5504332
  27.6079369  54.6428776  48.6649275  26.8939972  53.6025047  49.5009232
  33.4121299  77.5043297  69.0750551  34.3681812  77.4880219  69.0311193
  33.2111859  78.2466221  69.6450138   8.5708332  25.3721857  57.0858908
   7.8301901  25.2250314  57.6741266   9.0904975  26.0489106  57.5197411
  74.2127348 100.5044006  15.2706814  74.8604203 100.7721685  15.9226322
  73.4673143 101.0858272  15.4207706  38.0418372  40.1665449  83.4744358
  38.6420965  39.4943047  83.1519318  37.3740029  40.2384281  82.7924824
  84.7483691 100.8276748  61.3917542  84.6986219 100.6358927  62.3282242
  84.5546373  99.9927246  60.9656572  37.4744773  40.8897400  78.6968088
  36.7623734  41.0141754  79.3242264  38.2258415  40.6385422  79.2340040
   2.7936551  30.2883220  88.3503437   3.6273503  30.3330708  88.8185120
   2.3852867  29.4817901  88.6649513 108.2122565  78.3408760  11.7564964
 107.6646186  78.6919163  11.0542870 108.4746362  77.4745487  11.4452648
  55.7754421  34.2270112  48.3129597  55.9195995  34.5471239  49.2034531
  54.8635340  33.9360952  48.3077097  20.3124475 102.1085191  61.2571859
  20.6738662 102.5440091  62.0291710  19.4224595 101.8665862  61.5133524
  39.0526724  13.7148702  77.9028511  38.9760828  14.3252110  77.1694708
  38.1895280  13.7278759  78.3164215  63.9158726  90.6299256   6.9737148
  63.7573457  90.8298944   6.0511589  63.0884267  90.8352731   7.4089146
  34.6850324  44.0348577  75.3778601  34.3982530  44.7598600  75.9331608
  35.4085708  43.6351538  75.8605194  82.1642590  95.4795526  17.3961067
  83.0120803  95.4201482  16.9557571  82.0664979  94.6382164  17.8420067
  64.5655251  28.9564586  65.4372835  64.7903156  29.5521998  66.1519814
  64.4225693  29.5293713  64.6839142  12.9313087  43.8675451  67.5681591
  13.0291200  44.4522810  68.3196592  12.1560848  43.3440924  67.7712822
  10.6052016  83.7077647  84.8395157  10.8602475  83.5792953  85.7531166
  10.1578187  82.8963405  84.5993614  46.0529852  39.1889977  67.6330042
  46.3257837  40.0252914  68.0103970  45.1502323  39.3365669  67.3510647
  49.2329407  23.2909608  47.1571064  49.7662687  22.5029325  47.0531654
  48.8544750  23.4400392  46.2906361 100.4796001  83.6557775  63.1147575
 100.8984038  84.4192773  63.5121346 100.7609674  82.9189139  63.6570644
  82.1115733  81.6727899  13.4529305  81.5367318  80.9171389  13.3313560
  82.3602582  81.6383980  14.3766212  22.4742818  18.1328034  49.4715500
  21.5991116  18.1484401  49.8589373  22.3580027  18.5148168  48.6016226
  32.8577185  30.9284449  76.7895031  32.6376462  31.6473198  76.1970329
  32.0910001  30.8416414  77.3559332  13.7153304  63.4856892  76.8677378
  14.3711269  62.8005362  76.9970751  12.9726946  63.0338430  76.4670420
  52.8859329  40.2679253  87.3929596  52.3507118  41.0599422  87.4427605
  52.2547913  39.5601273  87.2629261   8.0639404  39.6784949  84.6551895
   7.9312289  40.6224966  84.5687103   8.9330286  39.5239043  84.2850304
  65.2204323  22.3895216  84.1227627  65.0892687  21.7678356  83.4068394
  64.6540165  22.0693302  84.8248100  53.3139277  41.7016935  77.4056864
  52.9203558  42.1791840  78.1359863  53.9560509  42.3101187  77.0400047
  31.2844253  32.6025438  37.5703073  30.6177521  32.5003791  38.2495260
  31.2885213  31.7630172  37.1105146  40.0525427  27.7493048  83.2021427
  39.1660929  27.5270009  82.9174995  39.9394751  28.1005883  84.0853405
   1.7307567 102.3739105  69.4557238   2.1419453 103.0157521  68.8767624
   2.4619960 101.9690221  69.9221849  33.8589025  52.3247290  75.5051231
  34.4724274  52.1309805  76.2138414  33.0391455  51.9132233  75.7787895
  37.0050287  26.9716287  71.3866091  36.5596938  27.7905154  71.6041708
  36.7821980  26.3796139  72.1050072  45.5950069   2.3123680  81.5904140
  44.7655439   2.4399629  81.1300373  46.0901737   1.7144033  81.0305119
  56.6775846  12.9781270  79.6060658  56.3170576  12.0914340  79.6109438
  56.9656944  13.1145740  78.7035084   6.1742405  46.8312375   4.6861172
   6.7172245  47.2749464   4.0345669   6.6995338  46.8465261   5.4861641
  29.3652654  26.6304779  59.1792297  30.2249360  26.3538003  59.4964838
  28.8335323  25.8349299  59.2036390  56.6503525  11.3150132  62.0575714
  55.7873106  11.0058486  62.3329067  57.2561598  10.6422436  62.3683929
  37.3837018  39.5536089  59.2988014  37.1057725  40.0735950  60.0528526
  37.2326589  38.6465406  59.5645952  54.1100264  11.4046502  59.7036028
  54.7688389  11.0584819  59.1016340  54.3337822  11.0194767  60.5508375
  43.5345030  34.9170470  66.0500479  43.5715342  34.0511870  65.6436682
  44.2154837  34.8954010  66.7223787  39.2211485  41.3314486  46.5862703
  38.4899378  41.7472649  46.1294794  38.8251305  40.5943346  47.0511007
  15.4762018  28.1033707  82.5381565  14.5898354  28.4105802  82.3478603
  15.5693460  28.2120895  83.4845924  56.3073874  19.5804441  61.8122244
  56.6422129  18.6837232  61.8160343  56.5622139  19.9276280  60.9573793
   6.5086698  86.2561351  68.1973743   7.0845794  87.0006019  68.0232143
   5.6789731  86.6523045  68.4636164  68.1109190  18.2201850  60.0562906
  67.8126049  19.0440965  60.4415321  69.0524292  18.2025433  60.2279806
 107.6358076 100.9765467  60.1069832 106.7193504 100.7334164  59.9757385
 107.6445528 101.4321488  60.9487534  70.4452801  10.3031862  71.3993025
  69.7007275  10.8238673  71.7005825  70.1455641   9.9080050  70.5806255
  37.5653911  15.7677007  79.9533844  37.9102850  15.5267358  80.8131599
  37.9676747  16.6151083  79.7628546   9.7728980  25.5989790  73.5056114
   9.6101034  25.0791001  74.2926693  10.4739070  25.1320291  73.0508852
  20.0238538  29.1666293  72.2063971  19.8268318  28.6558723  71.4211941
  19.5727086  29.9996996  72.0696831  67.2564340  60.4019748  16.2850285
  67.9980517  59.8485021  16.0402870  66.9174267  60.0067733  17.0882225
 103.5124608  87.4073416  54.9525833 103.4371921  87.6596075  55.8728695
 104.4434687  87.5050765  54.7528172  32.9929638  23.2850647  84.7825718
  32.5916243  24.0301299  85.2298260  33.6620092  23.6753511  84.2201805
  27.5741458  32.7987862  54.6194458  27.5888777  33.4995246  53.9675426
  28.2905817  33.0125928  55.2171373  27.7204418  15.5050039  70.6771946
  27.9649615  15.7488227  69.7844505  26.8279076  15.1684332  70.5976152
  20.2830720  44.0439653  64.9315977  19.8556781  43.7978840  64.1112232
  20.0796103  44.9731827  65.0383234  41.9587183  39.3803287  36.5294981
  42.5920773  38.7915206  36.9398522  41.5560579  38.8547826  35.8381963
  54.3694782  16.1512268  46.3146114  53.8725185  16.4392531  47.0803165
  55.0531149  16.8129826  46.2099695  27.9585314  59.3997526  57.5370646
  28.0933475  60.3159475  57.7792311  28.7901711  58.9727831  57.7427387
  25.5624175  36.7682576  35.7492781  24.9961948  37.3422813  36.2651467
  26.1775661  37.3622251  35.3191280  51.5035582  69.1798483  12.8074455
  50.7346392  68.7153147  13.1379032  52.2425247  68.7702118  13.2572937
  40.9033203  18.0600631  56.5991449  40.9758806  18.8649189  56.0861397
  41.7055178  18.0353773  57.1207762  39.6037197  28.5752869  58.9986610
  39.1024995  27.9576540  59.5311451  39.3095112  28.4125733  58.1024456
  51.4212465  34.8469138  76.8997717  51.5053988  33.9540458  76.5651989
  51.6890812  35.4030585  76.1681986  30.6418443   7.2386658  60.0535631
  31.3876557   7.1884418  59.4556713  29.9805951   7.7343118  59.5705366
  14.8889339  27.6990795  53.0094337  15.0852847  28.5223460  53.4565496
  14.0834582  27.3882461  53.4227419  54.6640015  36.3653636  80.4829979
  54.2107534  36.7965555  79.7585154  54.6609640  37.0136762  81.1872101
  14.8881066  37.1232748  62.9106951  14.1540504  37.6504612  63.2260799
  14.5346463  36.6449046  62.1607256  68.2130695  85.7587885   1.8667030
  68.6626220  86.5097259   1.4791107  68.8502742  85.3867386   2.4764442
  49.9238777  32.7444720  49.2399168  49.5865536  33.3795071  48.6081171
  50.8755589  32.8218508  49.1724491 101.5494967 100.4269003   4.5238876
 101.9292641 101.2106060   4.1266346 102.3036147  99.9286531   4.8389816
  32.5378108  21.7340803  68.0698586  32.7683163  22.6586986  68.1603050
  33.2821584  21.2638283  68.4454155  64.9736214   7.1227628  63.4595013
  64.1494036   7.5670570  63.2607651  65.2868795   7.5455528  64.2590952
   4.2961466  21.7626166  63.1678009   4.7278559  21.3709116  62.4085712
   3.9040917  22.5683403  62.8311443  26.2084508  12.9431307  84.3956280
  25.7256436  13.6550522  83.9757538  27.0697379  13.3160651  84.5836067
  42.9103088  16.4739859  79.2375565  42.4863720  15.8451700  79.8215961
  43.5103178  16.9597077  79.8035049  34.9453044  51.2939024  70.5498266
  35.0473619  51.2210417  71.4987755  34.2997742  51.9906330  70.4311514
  39.2791605  38.0700207  82.0340061  39.6904063  37.3891687  82.5664997
  38.7207437  37.5907230  81.4218903  22.8043103   3.3731169  69.3752098
  22.4061894   2.5048637  69.3130302  22.2900200   3.9157873  68.7775087
  71.6681100  67.6549731   4.1369534  71.0063458  68.0602704   3.5765648
  72.4295975  68.2301890   4.0628433  52.8243542  45.3709173  79.0903378
  52.4097061  44.7692442  79.7086334  52.2195625  45.4072523  78.3492994
  15.4949880  34.3064308  78.2057333  15.8487523  33.7926364  77.4797201
  14.5655131  34.0789652  78.2295847  76.7605282  80.1601337  24.6781254
  76.4601851  79.4647668  24.0929031  77.0215202  80.8704303  24.0919590
  54.3723297  22.7766299  82.1899509  53.5329962  23.0559778  82.5556278
  54.9992037  23.4282303  82.5040817  39.0526652  35.6895041  63.5977364
  39.0690589  36.1501122  64.4366646  38.1469727  35.7692051  63.2983971
  71.1081648  33.3205724  66.6890430  70.9661770  34.0397501  67.3045588
  70.5151367  33.5075450  65.9613132  81.5894700  89.1073011   0.5594635
  81.4675666  88.1742238   0.3841496  80.9495497  89.3082975   1.2423515
  59.2789888  24.4863343  62.9445124  59.9539566  24.0208960  63.4384966
  58.4834623  24.3785048  63.4658003  77.0843626 103.2527088  14.3629646
  76.9233442 102.3862337  13.9894295  76.4766026 103.8296579  13.9003658
  29.2106628  34.6065164  56.4019728  29.3105078  35.0268173  55.5478001
  28.6510134  35.2034378  56.8986750  16.3195693  72.6950598  74.3107605
  15.6854999  73.4115171  74.2811584  17.0463264  72.9957104  73.7651730
  40.5559778   3.4440160  73.6060953  40.2379274   4.0459436  74.2789650
  39.7987151   3.2963219  73.0395508  88.9226771  91.7075108  19.0494633
  89.3985368  92.5304316  18.9372540  88.1614781  91.9415043  19.5805550
  18.7393439  55.9873295  67.1625805  18.1507087  56.4205885  67.7806664
  18.1667149  55.6871414  66.4567375  53.7417603  36.8288255  77.9019260
  53.8615942  36.2279940  77.1664858  53.8117599  37.7005839  77.5128603
  41.9380999  12.4868286  66.4478445  41.7244768  13.2245517  65.8765650
  42.7754259  12.7261698  66.8451214  92.4612380  68.1566356   1.9783688
  91.8102265  67.8356968   2.6023960  92.1480704  69.0269171   1.7318535
  55.6995010  24.9811602  55.2119160  55.4090309  24.0803432  55.3547049
  56.4848709  24.8967195  54.6712780  51.2725401  49.1472912  66.9685698
  50.7560921  48.3999205  67.2701502  51.2737608  49.7524643  67.7101851
  22.1434498  54.7172832  64.9749470  21.2897348  54.3499851  65.2040720
  22.3966980  54.2545748  64.1762018  76.4823461  86.7318677  16.5135860
  77.4227668  86.5744399  16.4295673  76.0920764  86.2437295  15.7885742
  73.7880994  81.7688845   4.5373440  74.2656112  82.4037241   5.0713730
  72.8654290  81.9665645   4.6980667  17.8995490  43.6850214  87.9421711
  17.3463094  42.9299736  88.1423283  18.7473726  43.3059788  87.7103233
 111.4656641  13.2006257  12.0005035 111.8215324  13.5850566  12.8016281
 110.8594204  13.8617318  11.6663933  16.1343026  32.1853423  82.2974014
  16.4416051  32.9700303  81.8434620  16.1251116  32.4318099  83.2222748
  22.3058128  36.0241365  75.6606340  22.7461839  36.7140770  76.1569071
  22.8801036  35.8639288  74.9117994  31.2885523  55.9026289  72.6606417
  31.9892955  56.4194345  73.0582619  31.6908312  55.5094147  71.8861818
 102.7218153  22.6350062  13.6814404 101.7859127  22.5957005  13.8783550
 103.1178595  21.9937651  14.2715168  33.2056165  53.0866051  87.7144814
  33.9158654  53.7014389  87.8982162  32.5179100  53.3220387  88.3372688
  51.0148430  39.8942590  82.0007038  50.1289368  39.9352646  81.6405392
  50.9564018  40.3613186  82.8341770  33.6135173  45.5625725  60.5652380
  33.6356330  44.7115755  60.1275826  34.2842937  46.0791063  60.1185989
  44.8095369  29.8635316  67.3570108  44.6319199  30.8018661  67.4218941
  44.4777203  29.4996405  68.1778097  33.1579161  49.9251842  67.7121830
  33.3614349  49.9090004  68.6473560  32.3653102  49.3947983  67.6303434
  49.1533184  52.6545906  76.0855532  49.2583752  52.7823448  77.0283556
  49.6346235  51.8487453  75.8979511  75.5096149  14.3179846  48.1638098
  75.3406715  14.3636227  49.1048765  76.1936617  14.9699616  48.0113745
  65.8236122  16.4096129  70.9787750  66.1537933  16.4251506  70.0804615
  65.9184885  17.3117125  71.2844658  25.3523493  54.1943598  63.6482620
  25.3266311  53.3793068  64.1495228  25.1299381  54.8739862  64.2845535
  36.4409876  31.4480305  80.3322697  36.2452793  31.9410706  81.1290359
  35.9301877  31.8832874  79.6497250  66.2549591  25.4281020  72.8579712
  65.3293705  25.5824375  72.6690388  66.4446592  25.9952283  73.6053753
  44.4512749  34.8023939  76.5510798  43.8851929  34.0784001  76.8186903
  44.6908331  34.5976615  75.6472397   8.7445454  66.5015291   0.4939651
   9.5980266  66.9198392   0.3807354   8.3726791  66.4735662  -0.3876019
  97.7530672  12.9615872  33.3971214  97.5228764  12.1714347  33.8858891
  97.8122546  12.6714413  32.4868774   0.4068951  88.4208010  15.3156567
  -0.1002403  87.6091717  15.3331280   0.9814600  88.3279084  14.5557404
  52.2768974  26.4164758  86.0909939  53.1708097  26.6405797  86.3496876
  51.8972301  26.0091352  86.8695545  50.5507231  33.8313103  89.5483589
  50.2943993  33.3449674  88.7647724  51.2701702  33.3221006  89.9216366
  75.6245805 104.7819399   1.4616966  75.3138471 105.3006624   2.2037220
  74.9565316 104.1063808   1.3452339  88.0913258  38.9018440  47.5260258
  88.8967896  38.8636971  48.0417824  88.3813572  38.7921381  46.6204453
  17.5237191  48.1012774  66.0830259  17.7591705  47.1898270  66.2563658
  17.9370570  48.5943651  66.7917204  37.2490740  45.6326056  77.7168894
  37.4686098  45.7144880  78.6449718  37.6213360  46.4163494  77.3126602
  12.7178435   5.2423422   2.9469299  13.2067685   4.9337714   3.7097931
  12.3485999   6.0813801   3.2224369  45.7169533  46.3703203  71.6504765
  45.5140877  46.2450886  72.5775099  44.8620272  46.4233112  71.2232447
  24.7958589  72.5195074  90.8185387  25.5784488  72.6336145  91.3577652
  24.2419219  73.2684088  91.0388374  21.9232965  82.3216438  54.4900417
  22.5018859  82.2366524  55.2478313  21.7420363  83.2596779  54.4311094
  44.2676449  49.7894096  70.3702688  44.8530865  49.8964405  71.1199570
  44.4322824  48.8978863  70.0631714  45.5182314  51.5169621  75.1107359
  45.4202557  51.0079861  75.9154558  45.3813267  50.8820629  74.4076061
  45.0054121  75.6749630  64.6603155  44.3424225  75.4197741  64.0187883
  45.8233643  75.3178120  64.3144417  77.7894068  32.6773977  83.5310745
  78.6353540  32.7294898  83.9759254  77.9949093  32.8239298  82.6077461
 101.8232346 104.7787164   4.5126152 102.5966407 104.9246238   5.0573921
 101.9493962 103.9030527   4.1472054  75.5388546  97.3316288  56.0928345
  76.3287401  97.4861431  55.5747223  74.9066782  96.9791985  55.4664373
  75.7918978  76.3028908  79.5729542  75.9845877  75.5451202  80.1251221
  75.7123137  75.9418392  78.6900377  24.9476437  20.5489247  10.5343723
  24.6707492  20.4311650  11.4430428  25.5379300  21.3020222  10.5595398
  48.2278395  58.4860849  60.1986456  48.0320787  58.0728626  59.3577194
  48.9933395  59.0335798  60.0240469   2.6961283 101.0895752   2.3487473
   1.8733457 101.2380813   1.8826962   3.0560926 101.9660638   2.4844646
  17.9894166  22.3374312  12.9058552  18.3858065  22.8371565  12.1921444
  18.0413203  22.9198496  13.6637020  93.8127041  79.7737074  66.4567375
  94.6846008  79.4037342  66.3183784  93.2416916  79.0115738  66.5533447
  54.7089767  75.1814556  54.9368143  53.8398886  75.5770874  55.0030899
  55.3107595  75.9257460  54.9258995  57.2019815  82.8246880  70.6509066
  57.0038605  81.9704151  71.0345650  56.4575291  83.0083942  70.0779581
  72.7050686  96.3815784  63.9930248  73.1627560  95.5480957  63.8832235
  72.3151302  96.3275719  64.8655319  56.8124008  62.0819855  66.9942379
  57.0673275  63.0002213  67.0841408  56.8338728  61.9186687  66.0513163
  53.6665869  77.7324200  64.8680496  53.3404779  76.9183588  65.2516985
  52.9482985  78.3549643  64.9808788  49.1044998  60.8814812  64.6406174
  49.7983885  61.1792374  64.0523243  48.8185930  60.0463533  64.2704105
  39.5586014  90.3101158  35.2984118  40.2776718  90.8106327  35.6839776
  39.6339774  90.4686451  34.3574452  38.8636355   1.5202658  23.9780426
  38.7951855   1.1173051  24.8435879  37.9635481   1.7532342  23.7504482
  64.9866724  81.1477280  58.8263178  64.7561073  81.2727642  59.7468853
  65.9042025  80.8755970  58.8440418  83.5046578  21.9997329  44.4608736
  83.7607384  21.2778205  43.8868618  84.1404820  21.9742888  45.1759338
  60.1030922  68.4226942  81.0372448  60.7204390  68.7888861  81.6705132
  60.1807356  67.4750423  81.1475182  82.3117447  51.1412907  74.9129248
  82.2548389  51.3679314  75.8411646  82.7141571  50.2728510  74.9026489
  59.8095036  87.2693348  28.7273955  60.2985525  86.4530373  28.8309908
  60.1204777  87.6311874  27.8975821  97.1652603  96.9835567  59.7888613
  97.7273750  97.5989437  59.3181610  96.4405251  97.5194550  60.1110458
  62.1728706  74.9855089  84.8384380  63.0986023  75.2275324  84.8125076
  61.7858601  75.4382372  84.0891075  65.1676035  76.6169977  86.5832996
  65.6668758  76.8853331  87.3546314  64.3462753  77.1042824  86.6481876
  81.2451839  88.5433960  31.7680573  81.9128513  87.9504681  32.1128559
  81.4923859  89.4044781  32.1052027  60.1222038  65.1867390  65.0467825
  59.2661953  65.5292320  65.3040361  59.9993610  64.8868370  64.1461182
  75.4523134  60.6228018  80.2092075  75.5200720  61.3419676  80.8372498
  75.8745432  60.9557772  79.4173193  66.1711550 104.8776436  79.4536257
  66.5091085 105.7155800  79.1375971  66.3784122 104.2569733  78.7550163
  41.3076782  89.4960976  46.0479832  40.8283615  89.3601227  46.8652964
  40.9050035  88.8861752  45.4298544  63.8659573  87.3443127  69.7431850
  64.0251732  88.2200813  70.0951862  63.5099268  87.4989414  68.8682175
  54.7671080 104.4785118  75.5911732  55.2291584 104.3821144  74.7584391
  55.4029083 104.2022800  76.2512398  50.2523088  60.1212788  59.5079660
  50.3814888  60.6267881  58.7054634  51.1379671  59.9479055  59.8270035
  81.4776802 103.3847427  67.9257965  80.6151581 103.1973743  68.2961845
  81.2940598 103.7153530  67.0464754  72.0876360  86.8899822  69.0648413
  71.5918159  87.7009296  68.9519215  72.8471947  87.1446133  69.5887327
  42.7965598  55.9400551  17.0479584  42.0520978  56.1858838  17.5971222
  43.3796076  56.6984551  17.0814037  58.6807823  81.3087559  61.2878418
  57.7413797  81.1648464  61.1736155  59.0925503  80.7033348  60.6712866
  26.9676784  15.4331988  59.0851545  26.1424354  15.8380908  59.3521261
  27.2581009  15.9530562  58.3357286  66.4432573  64.4917727  51.4503193
  65.8707094  63.8130951  51.0928011  67.2490788  64.4192123  50.9388304
  39.5896387  94.0838146  78.0761003  39.4474292  94.8900986  78.5720015
  39.8093820  93.4300327  78.7398052  60.5141783  71.6938448  78.6238289
  60.1006889  72.1655321  79.3468571  61.1248684  71.0916424  79.0488529
  78.9701414  60.4794931  39.0774703  78.5372639  59.6285534  39.0085316
  78.2538652  61.1039877  39.1922951  64.0158367  82.7955437  60.9574461
  64.4893265  82.6927567  61.7829609  64.2902899  83.6516762  60.6289005
  39.3556452  72.8894138  77.8713512  38.6327553  72.4177790  77.4575615
  39.2247677  72.7528620  78.8096809  98.3321477   1.0759467  58.1287956
  97.7925444   1.5341681  57.4845123  99.0727282   0.7388801  57.6246548
  38.0873971  33.8039963  23.0576992  38.1090741  34.4064038  22.3141479
  38.7440066  33.1400578  22.8472710  80.0036526  84.2939949  60.5606031
  80.3216839  84.9261189  59.9159956  79.3910933  83.7428284  60.0735569
  22.4643759  10.6649773   0.9677887  22.3661284   9.9732058   1.6220379
  21.7910103  11.3064091   1.1944771  61.2936974  82.9191971  79.2922401
  61.1831331  83.8545704  79.1217279  61.3301373  82.5199509  78.4230423
  68.0025816  88.3533955  55.9867144  68.7953043  87.9961300  56.3869524
  67.8354883  89.1636753  56.4681292  45.7926083  73.1452703  85.6032372
  45.8595848  72.3622799  86.1497402  46.6980362  73.3569336  85.3760147
  84.2964077  91.5682602  38.2981610  85.1944065  91.8426228  38.4840465
  84.3602848  90.6250000  38.1484604  26.9610886  57.0315163   6.7113876
  26.6284327  57.1931260   7.5942612  27.3270039  56.1479180   6.7513275
  14.8523430   5.9905808  42.8771210  14.9896149   5.4137509  43.6285591
  15.3125672   6.7976468  43.1074905  62.4652243  75.1888895  53.3432531
  62.7029705  75.0267696  52.4303341  63.0656147  75.8776855  53.6284208
  33.0079985  77.4526834  80.0841999  33.5045314  78.1289005  79.6233082
  32.4971080  77.9329109  80.7358170  58.3362198  78.8282061  82.3744011
  58.3600950  78.4584808  83.2569885  57.9212093  79.6837330  82.4842548
  42.1242623  37.7282899   3.3527279  42.3064761  37.4801438   2.4463844
  42.9824118  37.9396813   3.7203217  76.3187790  84.2239285  45.5693722
  76.5594101  84.1590118  46.4935541  75.3630304  84.2764854  45.5738449
  49.3361139  91.3031769  71.6339016  48.4876680  90.9045124  71.8273735
  49.6434259  90.8447075  70.8518553  15.1580195  31.9105809   1.9591141
  14.7656827  31.1573594   2.4006557  15.9208922  32.1309273   2.4936199
  94.0237808  85.2623749  59.1390991  93.6092377  86.0471344  59.4976139
  93.3590126  84.5792198  59.2263317  67.8605747  76.7915821  61.0557747
  68.2562399  76.6459179  61.9151115  67.3751736  75.9864092  60.8759975
  68.1859350  89.8880196  61.3960743  67.8643656  89.8089600  62.2941685
  67.7091503  89.2146492  60.9108067  72.3542595  49.0451002  90.5160522
  72.1100140  48.1763315  90.1969719  71.9589043  49.6505117  89.8888302
  59.4631577  94.6120834  69.8558569  59.8433399  95.4903889  69.8724270
  58.6852551  94.6773338  70.4097891  75.2772427  71.7781878  72.1816730
  75.6137753  71.3367510  72.9614925  75.4541636  72.7060556  72.3365784
  96.0509396  80.2042389  47.8296661  95.9357643  81.1048603  48.1327200
  96.5908146  79.7918272  48.5039663  86.2247467  56.7115402  85.6791019
  86.6587257  56.7319107  84.8261738  85.6823540  57.5001526  85.6907558
  62.6740265  71.2932777  52.7341032  62.4032116  72.0036745  52.1525288
  62.6703167  71.6843700  53.6077547  62.0474052 100.6597900  81.2739372
  62.6892614 101.1387348  80.7496548  62.1188498 101.0425568  82.1483612
  98.8404083  78.1005716  65.7247782  99.0090370  78.3486700  64.8158026
  99.3449020  77.2970057  65.8512640  80.3676892  14.7498244  90.3386307
  80.5338908  13.8902110  89.9517632  80.1147462  14.5609397  91.2422752
   8.5709766   5.5055923  48.9999580   8.7676720   4.6822852  48.5530758
   8.6541942   6.1734027  48.3192682  96.5475178  88.0713081  53.9654589
  96.0217190  88.7950516  53.6249161  97.1504402  87.8575230  53.2534075
   7.0045570  16.4999980  66.5194893   6.2322620  16.2636489  67.0332336
   6.7755321  17.3360747  66.1135864  95.7740879  69.9871826  58.2790565
  96.3119888  69.2176390  58.4653234  94.9420261  69.6287346  57.9701519
  80.4014301  91.1175632  82.2128487  81.1327457  90.8299828  81.6663074
  79.6252108  90.9651375  81.6738796  94.6254921  70.5713129  78.1469059
  94.0746212  69.9638557  78.6406326  94.2150593  71.4262819  78.2765150
  90.8518982  91.9158173  79.0168476  91.6649055  91.8571281  79.5186424
  90.7625866  92.8469086  78.8135624  53.2606173  90.9842587  59.0193367
  52.7703381  90.1924610  58.7981510  53.6573076  91.2590981  58.1926966
  70.2134609  74.0531158  89.1628075  69.6905041  73.4238434  88.6660480
  69.8253155  74.9032927  88.9559650 103.5644913  82.0173454  90.5249310
 103.7778664  81.3055325  89.9215794 103.8787746  82.8069496  90.0844955
  94.6908618   7.5120944  52.7466869  94.1230918   7.5913352  51.9801426
  95.4651738   8.0296439  52.5257492  46.5726614  81.3795090  67.0386028
  46.7133045  82.1648026  66.5096712  46.6487265  80.6554127  66.4172125
  48.5034423  37.4440758   8.6890984  48.2716326  36.5873330   8.3306408
  48.9064555  37.9093354   7.9560566  72.8622103  56.5006781  75.4741764
  72.8209734  56.3077068  74.5375395  73.3696127  57.3104191  75.5297804
  82.9361725  71.0001659  49.9691200  82.3626328  71.7483759  50.1348400
  82.3992825  70.2358484  50.1784182  64.1049814  76.3618708  90.5223465
  64.0806723  77.0936203  89.9057484  63.9013290  76.7563677  91.3703537
  68.6689663  86.5703964  73.3720970  67.7159357  86.6394424  73.3155775
  68.9171839  86.0504055  72.6077461  62.2724342  79.5373392  42.8114891
  61.9460440  79.8759651  43.6451769  63.1746435  79.2760563  42.9958296
  73.8664675  87.0928478  88.1158924  73.4422779  87.7408123  88.6784172
  73.9304686  86.3082218  88.6604023 106.6763020  83.9280891  61.8350697
 106.9871712  84.0245819  60.9349108 107.1591091  84.5917892  62.3276424
  87.1930027  68.0554008  88.0243587  87.8931236  68.6702919  87.8053474
  86.5176105  68.2169151  87.3655796  85.6540203  72.8396893  85.1473141
  86.1751366  72.5361300  85.8906364  85.5826855  73.7856245  85.2752018
  73.9349079  94.3911648  72.4187088  74.8631048  94.5633984  72.5768757
  73.6254406  93.9845467  73.2281017  79.3334150  65.1499319  62.9648256
  79.3358088  66.0856485  62.7631903  79.1384792  64.7253895  62.1293640
  64.8774242  89.4105625  51.5950155  65.0353909  88.7145805  52.2328949
  64.6632957  90.1778126  52.1257734  52.6935577  85.0441456  43.4747982
  53.3335257  84.3734741  43.2363272  51.9119120  84.8196316  42.9699659
  67.6338148  73.7955904  66.0854006  68.2485533  73.2915688  66.6185951
  67.7895308  73.4936905  65.1905060  34.2837715  78.6506367  72.0781994
  34.9597907  78.8230896  71.4228487  34.6707129  77.9906940  72.6535130
  32.3215012  13.2073681  20.1549721  31.5328936  12.9427664  19.6813488
  32.7626948  13.8172572  19.5636845  61.2284136  97.7907562  84.5363712
  62.0607138  97.7527046  84.0651321  60.6367302  98.2504749  83.9407158
  61.1721039  85.8701515  83.5821533  60.7559776  86.4322567  82.9286289
  61.5583611  86.4795494  84.2111683  60.4102993  67.8618813  74.2362642
  60.4293919  68.8144398  74.3284941  60.5475473  67.7089691  73.3013773
  68.3841991  67.7501917  77.5924301  67.5961351  67.2184801  77.7040911
  68.7554216  67.4564505  76.7604780  72.6859336  57.1213811   2.1355724
  73.1190352  57.1215336   1.2819576  72.1682219  56.3162987   2.1413326
  50.8283190  31.6888421   4.3467045  50.7552485  30.7515710   4.1666412
  51.4701609  31.7474454   5.0543976  78.9079952  78.6241722  40.5024290
  78.2391310  78.2926893  41.1015701  78.4525967  78.7235832  39.6663880
  79.2371798  73.7716913  71.0704517  80.0688362  73.8720703  71.5335989
  79.4587278  73.2690287  70.2865648  93.4188080  76.0304737  86.5206623
  94.1233540  76.5321875  86.1106300  93.3059597  75.2680683  85.9530067
  58.6093426  63.6833191  52.4421024  57.7294540  63.3785582  52.2203875
  58.7016582  63.4903097  53.3750868  62.3131466  88.2756519  58.6554766
  61.8078995  87.6419544  59.1647768  63.0650902  88.4836292  59.2100620
  36.4866881  11.4186375   1.9633675  35.9118609  11.4321177   1.1981010
  37.0311551  10.6410544   1.8402672  14.1403393   9.9048537  77.7051067
  13.3807091  10.4211349  77.4355555  14.8403744  10.1822490  77.1141529
  85.7092571  61.9731855  70.4630995  85.7448769  61.1846685  69.9216175
  85.7222748  61.6466904  71.3628006  88.1053257  96.0862732  67.7976322
  87.6502705  95.6951237  67.0518684  87.4324512  96.1662006  68.4737062
  63.1593089  58.8515561   8.9585304  62.9059844  58.7275117   8.0438328
  63.6155562  58.0432503   9.1924286  64.3160915  68.7983942  74.8341417
  64.5684862  69.2264986  75.6522226  63.3690262  68.6805630  74.9077463
 107.2802735   0.8373374  47.7679443 107.8910971   0.5153483  47.1050358
 107.8405905   1.2030429  48.4524441  62.9041052  67.4773026  57.8696299
  62.8740692  66.5208721  57.8936005  62.2745228  67.7534676  58.5356522
  67.3376465  97.4212170  57.5977373  67.6504278  97.1510696  58.4611130
  66.8417263  96.6682529  57.2762632  79.3607140  84.8679066  85.9337521
  79.1270256  84.1117859  85.3953171  80.2871799  84.7397518  86.1373997
  76.2839842  69.0755320  31.5467644  75.7718706  68.5073471  32.1222091
  77.0381021  69.3352938  32.0759702  37.0004845  89.6661091  69.1284847
  37.6221156  89.0949440  68.6772919  37.5327897  90.3949547  69.4473457
   4.9795965   3.9465255  47.7116537   4.0923313   3.6818522  47.9544306
   5.0967506   3.6063689  46.8246365  29.6461987 101.0983181  50.8311319
  30.3537941 101.1348057  51.4747190  30.0525951 100.7244110  50.0492954
  74.9958658  78.5860348  60.8464289  75.7525253  78.9657927  60.3997946
  75.3340864  78.3104753  61.6984320  27.3604512 102.5333309  50.8805656
  28.0375886 101.8568039  50.8743906  26.7653513 102.2701645  51.5825844
   3.8857178  10.8084601  55.4621220   4.8371414  10.9042758  55.4191875
   3.5805611  11.0545558  54.5888805  46.6257191  72.7873516  51.5717888
  46.3693571  73.2539368  50.7762957  46.0942793  71.9912720  51.5643215
  66.6846180  94.2297840  61.2016296  66.2285185  95.0340366  61.4493895
  65.9852600  93.6225891  60.9598827  58.2465076  78.4935188  70.8253765
  59.0664101  78.8987684  71.1077976  57.9851675  77.9424143  71.5630817
  78.8583374  60.6417131  85.5184460  78.5508966  61.4168215  85.9884548
  78.1350613  60.0183392  85.5855942  55.7201910  94.7455120  73.2352161
  55.2171803  95.5075455  73.5224819  56.6220522  95.0612545  73.1787586
  65.1971674  85.6869030  77.6385546  65.6139803  85.9951687  78.4432077
  65.1140451  84.7409630  77.7590847  76.4209461  90.3685188  66.0558796
  76.4171791  91.3219357  66.1408615  76.1284304  90.2068520  65.1589251
  18.4595302  86.6943143  19.1837597  18.6937527  85.7850669  18.9976406
  18.2345489  87.0633315  18.3296871  59.3627930  68.3660126  86.7947197
  59.1556597  68.6118889  85.8931160  58.9144325  69.0203762  87.3304558
  90.2412415  36.9793624  56.2732601  90.5395175  36.7105216  57.1421623
  89.4520617  36.4599246  56.1195993  86.7450237  65.9212255  60.3440619
  87.1726799  65.6010771  61.1383247  86.9958019  65.2927256  59.6670580
  39.7571664  75.5605786   2.7259064  39.6178345  74.6942799   3.1084538
  40.4977183  75.4433529   2.1308708  71.9267130  97.4143124  58.9113426
  71.6201019  96.5075493  58.9135695  71.9941425  97.6466179  59.8374701
  52.2421408  67.3038292  74.0407133  51.6908169  67.7871323  74.6560955
  51.8208027  66.4478731  73.9629316  70.6336117  53.4557962  56.2832403
  70.6359100  53.3192873  55.3358269  70.1632547  52.6990986  56.6331100
  13.3113244  60.1159906  41.1113691  12.9272893  60.9589100  41.3526821
  14.1669610  60.3388166  40.7446527  69.1782522  69.5198441  73.9744949
  68.6526823  69.8647213  74.6963453  69.5796299  70.2937889  73.5793591
  86.1181641  67.3086214  69.9280119  86.9864941  67.3324203  69.5259285
  85.7221317  68.1476498  69.6925974  13.1482939   6.1978667   0.3351402
  13.7047295   5.4830592   0.0258446  12.9325490   5.9604399   1.2369728
  79.8089552  94.5151234  70.5479622  79.4831991  94.2614365  69.6843863
  79.1107655  94.2610359  71.1514521  90.5683422  53.2289934  76.1238718
  89.8468876  52.6071358  76.2188482  90.8323383  53.1513596  75.2070761
  58.1906748  69.7117472  79.1505194  57.5855112  69.2219543  78.5936403
  58.7945414  69.0501213  79.4879055  75.1752281  83.1853294  78.6012745
  76.1314201  83.1472301  78.5793114  74.9783945  83.9552021  79.1349220
  91.6440249  16.6980380  63.8251019  92.4075175  16.3243121  64.2651463
  91.7567683  16.4586753  62.9051971  87.8450298  74.6263552  48.4121180
  87.2402382  75.3344584  48.1906319  88.7145615  75.0028086  48.2764244
  75.9966326 101.7427635  88.2977390  75.7241154 102.6170826  88.5761929
  76.8738127 101.8691444  87.9360580 111.7585707   9.2232150  51.2994051
 111.3004208   9.9907512  50.9570456 111.5454818   8.5224551  50.6831598
  17.5385766  56.4801877   3.3576393  17.1639399  57.2234147   2.8848743
  18.4836821  56.6287606   3.3272076  60.5044889  62.5172377  32.9371476
  60.3750944  62.2283554  32.0337987  61.4201784  62.3116636  33.1255126
 106.7759661  74.8226636   9.4030190 106.5470271  75.1004975   8.5161018
 107.6784281  75.1189416   9.5213795 109.7087003   5.9102649  37.4827981
 109.1853429   6.5983790  37.8936839 109.9912835   5.3571338  38.2111001
  31.4432196  36.7245476  10.8982658  31.8918757  37.0669835  10.1251698
  30.5372100  37.0168202  10.7984829 111.4640380  11.1390037  84.2937851
 111.5737725  11.5872878  83.4551907 111.1732007  10.2580279  84.0581703
  73.5798359  87.5648022  46.1978149  73.2062054  88.3685398  46.5592670
  73.4825706  87.6604271  45.2503824  56.0530424  77.5109863  60.4417658
  55.8235073  77.2215176  59.5587301  55.2729368  77.3261786  60.9647512
  17.4339919  28.5280602  21.5535259  18.2843833  28.9669793  21.5740871
  16.8657403  29.0816109  22.0891666  14.8726848  89.7207879  33.4248257
  14.1642956  90.0900506  33.9521503  15.1285175  90.4310630  32.8363609
  88.3226395  58.6025572  64.8552084  88.3542538  59.4637585  65.2718163
  88.4799576  58.7792540  63.9277029  76.1054802  90.0055408  89.2202473
  76.5552759  90.4504490  88.5019398  76.7581892  89.4012451  89.5738506
  75.0078798   6.6837520  70.9728813  74.3121982   6.9009990  71.5934134
  74.8627592   7.2745723  70.2338886 103.8150502   0.7954520  67.1319866
 103.4086514   0.1768798  67.7389765 103.1611443   0.9208888  66.4443064
  40.2273659   3.9904683   1.4236641  40.9364514   4.4162314   0.9418297
  40.2729325   4.3694823   2.3014450  91.4575152  51.8765347   3.8774395
  90.9009509  52.6551812   3.8639927  90.8972697  51.1878197   4.2352581
  39.4369797  44.7233956  14.4222450  39.3859582  45.6028836  14.0479183
  39.1661553  44.1439240  13.7101364  94.7790241  88.0285263  69.4356871
  94.2629433  88.4557056  68.7520170  94.4464016  88.3986378  70.2533722
  87.3608017  84.3767166  69.7182035  87.1025944  83.6632919  69.1346121
  87.3197365  83.9954948  70.5952501  49.8698330  82.5892735  79.0378523
  49.5391989  83.4771252  78.9013624  50.4703760  82.6686287  79.7789860
  10.5385351  87.8407955  55.0015593  10.9278595  87.0073223  54.7370148
  11.2766194  88.4492111  55.0375414  46.8756056  95.5170059  58.9873075
  46.8644571  94.5598698  58.9838076  45.9870720  95.7678032  58.7346506
  80.7332230  19.7953910  55.9880066  80.4405785  19.2068213  56.6838312
  80.5929614  19.3003863  55.1808310  84.1519642  69.4739628  43.2434511
  84.3518353  69.3606377  44.1726637  84.8676491  70.0142813  42.9086781
  63.5469103  67.6214552  71.0395908  63.2061720  68.3673811  71.5332747
  64.2432070  67.9913712  70.4968596  64.0565968  66.1163855  62.4917936
  64.6981001  66.7689133  62.2108841  63.5239792  66.5699244  63.1451321
  53.8419867  66.5594530  64.9282122  53.1469011  65.9023428  64.8922539
  53.7722445  67.0276499  64.0962505  89.2528057  94.8456573  83.2070923
  89.7287273  94.7062397  84.0258121  88.3517551  94.5924950  83.4077454
  51.6317081  88.3703423  59.2100859  51.2985945  87.4743462  59.1605330
  52.0321512  88.4293652  60.0774908  77.7880335  81.8312263  55.2448845
  78.4780025  82.1493435  54.6626663  77.1297789  81.4614105  54.6565247
 104.2232800  57.1451378  85.4915333 104.2850304  57.9612827  84.9952221
 104.4241047  57.3971510  86.3928604  59.5224905 103.8492298  14.1203713
  59.1173887 103.7140942  14.9770308  59.1328192 104.6613598  13.7965918
  30.3452972   4.8701495  63.0048990  29.5964245   4.4079703  63.3814812
  30.1198105   5.7969398  63.0851507  72.9194546 104.3408298  81.2693596
  72.7473021 104.4162560  82.2079277  72.5200748 103.5078049  81.0187817
  56.3581038 104.1002369  64.6977949  56.4650011 105.0020695  65.0002813
  55.7742167 103.6992741  65.3416395  64.0648937  76.7066813  58.2671785
  64.2643976  75.7820177  58.1207991  63.1986237  76.7032576  58.6743641
  40.9644799   3.3947222   4.8785591  41.3188128   4.1880124   4.4768429
  41.7168479   2.8077691   4.9538040   4.0517762  73.2980394  48.7499428
   4.8172238  72.8569698  49.1184378   3.3153203  72.9717922  49.2670679
  47.4655724  89.9004650  56.8141699  47.4365234  90.7407475  57.2716808
  47.2680521  90.1169395  55.9029341  93.1365013  54.9362755  56.6357088
  93.9310837  54.4570017  56.4008474  92.4214649  54.3475533  56.3941336
  81.4763069  76.5660477  62.3071575  81.9987106  77.0894909  61.6994333
  80.7128716  76.2968922  61.7963219  96.2790108  66.4352512  58.0299425
  95.4861832  66.9496584  58.1817484  96.3489723  66.3786316  57.0769835
 101.6497232  35.8712952   3.4966373 101.7110540  35.8265584   2.5424480
 100.7197453  35.7425206   3.6831665  83.8028622  54.4945383  51.0410643
  83.5026550  54.5260715  50.1327085  83.7335396  53.5713673  51.2843227
  61.6106129  81.9926548  76.6212320  61.9596338  82.3585796  75.8085108
  62.0529938  81.1488342  76.7133760  15.6651258  97.3286915  49.8202229
  16.1575305  96.6957664  49.2975616  14.7482538  97.0894623  49.6847582
  88.5311031 104.7068691  50.0235558  89.3322754 104.1842556  50.0585032
  88.3761597 104.9687099  50.9311152  72.1604919  90.2725410  75.0301695
  71.2832737  90.1744270  75.4004240  72.7381849  89.8549271  75.6689978
  30.0166798  88.5057640  83.4859943  30.1629591  89.3303299  83.0224037
  30.6231689  88.5361290  84.2259121  52.2029018  73.3852243  56.4980412
  51.7963266  72.8648472  55.8051205  52.4223280  74.2159939  56.0762453
  87.0054150  73.0704260  64.7428226  86.5406704  72.5180244  64.1142559
  87.8685284  73.2047224  64.3513680 101.3476086  88.7435627  77.9577494
 100.5121422  88.2822609  78.0313921 101.3718796  89.3186855  78.7225246
  77.8530645  85.0015640  72.1296120  77.4080467  85.7307243  71.6977453
  78.1600189  84.4488335  71.4109373 103.2086277  96.5346718  69.7854233
 102.3332214  96.3975716  69.4233513 103.4319687  95.6989002  70.1950979
  88.7548161  47.3329973  56.9015980  89.2144203  48.1605959  56.7599106
  88.2435417  47.4762630  57.6980305  95.0155735  46.1104250  85.2023411
  94.4574928  45.3517914  85.3733921  95.8822918  45.7382965  85.0394058
  78.9126921  73.4089279  45.9203053  78.1484175  73.7563419  45.4605055
  78.7764263  73.6588001  46.8342113  57.6378012  87.1651649  80.0144577
  57.7452755  86.6090393  79.2428350  58.4773588  87.1068859  80.4705143
  68.1090450  90.6485939  68.4128571  68.2093430  91.4949703  68.8485432
  67.3982573  90.7844639  67.7863264  45.2024317  80.2223206  57.1983862
  45.4973602  80.9898376  56.7083216  44.6930218  80.5827904  57.9241943
  94.5685863  67.2511196  53.3802986  95.5091286  67.1912575  53.2128668
  94.3965530  68.1903410  53.4473801  79.7966862 103.3986092  52.0339823
  79.7547150 103.8203526  52.8922415  80.7063103 103.1120300  51.9521713
  21.6708950   9.1150493  70.5999327  22.3631576   8.7263602  70.0652122
  21.5107826   8.4708995  71.2896204  73.2776165  69.6995211  84.4332790
  72.8089857  69.9670362  85.2238750  72.7225399  69.9985933  83.7130833
  13.3530239   7.9900855  79.8256111  13.2343773   7.0856112  79.5356464
  13.4914879   8.4844035  79.0177059  12.0979550  65.7919407  73.3014059
  11.7312291  66.6351175  73.5674763  12.6539949  65.9989071  72.5502586
  83.7133694  54.9513245  78.5568523  84.3009853  55.2057934  79.2683268
  84.1065884  54.1577721  78.1936884  49.7335434  87.3780155  88.7637329
  49.7079611  87.2466278  87.8159428  49.2448330  88.1885815  88.9064503
 102.0586825   4.3194980  48.7480927 102.2287513   3.5891933  48.1531477
 101.3779212   3.9947719  49.3374538  93.6962986  96.4338779  46.9992065
  93.1110477  95.7135963  47.2335052  94.0423489  96.1915970  46.1402655
  81.6340733  59.9443626  56.6703558  81.7199516  60.8839655  56.5090847
  80.7457352  59.7323656  56.3837576  67.7935028  70.0103378  46.7938185
  68.0261040  69.5763683  45.9729671  66.9234324  70.3756809  46.6334200
  75.1807742  34.3312638   3.6722851  74.7731833  33.9599507   2.8898430
  75.0022082  35.2697842   3.6129379  59.1307259  72.3679781  55.3804731
  58.1943941  72.1821499  55.4510689  59.3105650  72.9699183  56.1026573
  86.2320614  67.6362801  53.5376549  86.9001293  68.2865953  53.7544441
  85.5704498  68.1262064  53.0493164  46.0121874  31.6372769  35.5904388
  46.7158751  31.7060177  36.2356663  45.2641062  31.3046925  36.0864162
  83.5101414  63.7440395  71.0008907  83.5344410  64.3131161  70.2316046
  84.2822170  63.1855679  70.9101677  89.1973495  42.0749092  64.4015694
  88.6106014  42.0428371  65.1571751  89.1109943  41.2128925  63.9945078
  72.2416496  58.0535221  39.5821977  72.4898624  57.4279737  38.9015269
  73.0055046  58.0972338  40.1573896  75.5970716  58.7488937  54.6626186
  75.2794838  59.6430683  54.5368385  76.4554882  58.8550615  55.0725985
  19.9037175  40.0022118   8.1542301  19.6062998  39.5259564   7.3790169
  20.3696780  39.3470280   8.6737061  13.9949565   0.8631795   7.9892254
  13.5589509   0.2594321   7.3878765  13.2804351   1.3509648   8.3988094
 110.2084494  13.4606380  64.3779850 111.1632348  13.5175246  64.3408489
 109.9071742  14.3412417  64.1543674  91.1902714   2.6937026  72.0905304
  90.9755088   2.0492476  72.7649021  90.4795743   3.3333320  72.1355009
  20.9029412  36.4717317  68.3508396  20.5364799  35.6430268  68.0423164
  21.2102985  36.9082475  67.5563478  51.6664553  80.2004147  33.5999227
  50.9561729  80.5464840  33.0595827  52.1378088  79.6013832  33.0209422
  63.5620689  62.7173948  41.9965124  64.0506983  63.4083509  42.4437857
  64.2316771  62.0934010  41.7163610  85.2645302 103.8361454  40.4145145
  86.1583138 103.9311218  40.7436991  84.7093010 104.0273857  41.1704111
   9.0376667   1.8409938  88.1963634   8.8886932   1.4845771  87.3205853
   8.5092739   1.2888736  88.7727261  62.0322132  64.8261547  74.2943907
  62.5311136  64.9084663  73.4816456  61.5973091  65.6728649  74.3952560
  63.0249929 102.7629185  49.0337324  62.7876663 101.9367886  48.6125231
  63.7425375 102.5332546  49.6241713  50.8236504  84.6848297  63.1753302
  51.6755772  84.9668884  62.8423262  50.6535435  85.2633953  63.9186716
  78.8260126  90.7389641  35.0103188  78.3477783  90.2344799  34.3522739
  78.9344645  91.6045475  34.6163130  62.9101658  69.8995256  72.3827887
  63.4287643  69.4849014  73.0722618  62.2886038  70.4557991  72.8523111
  93.2948924   2.4460525  59.0418339  93.2538558   2.4789828  58.0860853
  92.4563409   2.0665854  59.3046427  59.4451189  81.8651295  89.7588253
  59.1974306  81.7355919  90.6743050  59.8034286  82.7522945  89.7308731
  65.7088900  95.4232502  80.4635429  65.6030846  96.1769104  79.8829937
  66.3166761  94.8472023  79.9998617  41.8864541  53.5332005  12.9863644
  40.9601788  53.5875504  12.7512264  41.9241290  53.8545125  13.8872337
  39.2126040   7.8136008  18.6509228  39.3464760   8.2288163  19.5029259
  38.3915429   8.1860011  18.3293629  94.7761154  54.5877695  70.6992245
  95.6000328  54.8098087  70.2655363  95.0039196  53.8744020  71.2954187
  31.9436268  62.2217934  20.9636211  31.1627059  62.2200101  21.5171433
  31.6580109  61.8158333  20.1451778  23.9020447  74.6135895  21.3021374
  23.8956360  74.6369259  22.2590256  24.8303752  74.6054070  21.0689640
  96.4325381   2.5367469  82.4013519  95.5004597   2.7143973  82.2752380
  96.8527270   3.3929080  82.3197269  54.6026564  87.3303795  63.8110209
  55.3980446  86.9261456  63.4643459  54.5573854  87.0299911  64.7187376
  91.7721748  87.0826721  62.2712612  92.0872307  87.9832554  62.1942568
  90.8329773  87.1705627  62.4338007  69.5983887  88.5452080  75.0507879
  69.3108463  87.8385448  74.4727039  69.7716713  88.1143951  75.8878136
  62.9091358  93.8607693  51.0944748  62.6888132  93.4288883  50.2691507
  62.0701504  94.1743469  51.4321327 100.5097580 100.8419704  47.4859142
  99.6642494 100.4004669  47.4058676 101.0728168 100.2035713  47.9236889
  74.9971437  79.6179771  71.9828939  74.8503160  79.8151016  71.0577917
  74.1875458  79.8874903  72.4166441 105.1300621  96.1961842  67.3937941
 105.4804897  95.7763004  68.1793690 105.4527283  97.0962238  67.4390936
 109.5842266  66.6577673  65.2837753 109.5063114  66.6972780  64.3305731
 109.9491978  67.5078011  65.5296898  64.7361088  65.1975870  81.0007668
  64.1474247  65.8282661  80.5861187  64.1592026  64.4997501  81.3113022
  57.4180269  86.0755825  63.3145428  57.4350119  86.0742855  62.3574972
  57.3254919  85.1533699  63.5536957  39.9345732  93.8470268  59.0726280
  39.7949290  94.4824219  58.3704805  39.8647165  92.9950142  58.6420202
  83.5799980  97.6541328  90.6448078  84.4799328  97.9518890  90.7777786
  83.4283733  97.0267582  91.3516617 100.4280759   6.6816634  62.3888111
  99.9839783   6.1604709  63.0576611 100.2191687   7.5882834  62.6138115
  73.3738899  87.3684311  56.5416670  74.1357183  87.3908424  55.9625769
  73.0674028  86.4626217  56.4993191  24.4655851  84.6571541  63.6819696
  24.4963029  83.7363529  63.4223127  24.0463021  85.1001644  62.9442883
  77.1523857  63.0796289  69.8501301  77.2673464  63.8426256  70.4165697
  77.7611113  62.4284744  70.1989651  79.9984646  70.9098244  65.7514048
  80.3041077  70.0079346  65.6544256  80.5359936  71.2703562  66.4566135
  86.1650944  75.3960991  85.4152966  86.2500954  75.6825209  84.5059204
  87.0517254  75.4598475  85.7703495  61.6498427  70.1033681   8.0422020
  61.4835601  69.8472397   8.9493752  61.4742331  69.3116181   7.5337505
  67.0977454  33.6391060  10.2549744  66.3587241  33.4406560  10.8300400
  67.8577857  33.6498826  10.8367443  73.5470963  55.0041580  46.9482231
  74.3919611  55.1977539  47.3543692  73.4787846  54.0499496  46.9806814
  82.1132278  73.2447958  60.7242632  81.2970638  72.8625011  61.0466766
  82.1298218  73.0237532  59.7930861  84.7170639  84.3420982   7.7378893
  85.2078438  84.0779400   6.9596922  84.0444565  84.9370003   7.4063659
  76.8398190  98.7844658  75.9438086  76.9968891  99.0683460  76.8443489
  75.8909702  98.6699772  75.8908176  17.6632550  86.9679642  86.4959145
  17.1691087  87.2304630  85.7192898  17.0297101  87.0193577  87.2115993
  62.2308493  82.0951462  88.6522007  63.1514740  82.3563957  88.6315060
  61.9232512  82.3699570  89.5159721   0.8682969  61.3847351  45.0413370
   0.5526784  61.5939665  44.1622257   1.7324117  61.7936945  45.0892258
  81.3815212  75.3138113  57.7880144  80.7046890  75.9292173  57.5062275
  82.2035122  75.7880735  57.6629972  91.3657570  89.4268513  58.5332108
  90.7313538  89.4836998  59.2477226  90.9395027  88.8745880  57.8778172
  84.5287991  96.9867420  70.8283424  85.4642487  97.1891975  70.8412790
  84.1287422  97.7314568  70.3793478  12.5077251   4.7958678  75.3017807
  11.7245582   4.2766971  75.1191902  12.2674087   5.3349418  76.0553598
  79.4874287  99.9251366  85.1983452  79.3690634  99.4805717  86.0377407
  79.4705248  99.2211628  84.5499897  28.0870347  69.5013993   1.6438484
  28.4692101  68.8970177   1.0075283  27.3451047  69.0225880   2.0133209
   9.3478253  76.6702890  56.6833830   8.8597825  76.0741901  56.1153030
  10.1318982  76.1791086  56.9287491  49.8579363  67.4529832   2.9247856
  49.1638236  66.8775075   2.6034355  49.4366889  68.3074467   3.0179119
  85.1223851   8.4001082  89.4550610  85.1842070   8.7519282  88.5670090
  85.7065392   8.9537353  89.9732208  72.9169226  78.4290791  49.2130756
  72.5193834  78.9112091  48.4879923  72.5175333  77.5602245  49.1705036
  67.6700783 105.6522465  90.7997322  67.1400738 104.8933411  90.5560303
  68.1677485 105.3614044  91.5639019  26.8142132  13.7946910  56.8960142
  26.7816070  14.3781775  57.6541138  26.2303642  13.0715770  57.1250439
   2.1585134   3.6385936  48.5228825   2.1065239   3.3930320  49.4465828
   1.2462810   3.6973399  48.2389545  12.5015549   2.2318191  59.9779654
  13.1109909   1.9561309  59.2932653  13.0630402   2.5577754  60.6813288
  13.2625488   3.8270682  68.2667017  14.1217808   3.5027427  68.5364485
  13.0934433   4.5689601  68.8474131  93.9055824  92.4128342  81.5475368
  93.7871265  93.0604935  82.2423267  93.8685799  91.5689945  81.9978523
  80.8270789   9.7083968  77.0693016  81.5943671  10.1568908  76.7138290
  80.0933696  10.0445098  76.5545893 104.4547749  92.4002647  65.0497532
 104.6285343  92.3767948  65.9907579 104.3217468  93.3277035  64.8538160
  63.9440918  97.8515816  74.8680496  64.1054058  98.3821774  75.6482220
  63.0918407  98.1481266  74.5487309  72.4011850  94.9797726  85.4208374
  72.4541330  94.1438770  85.8841991  72.7287054  95.6231689  86.0493279
 111.5058899 104.8560047  74.0132236 110.9628201 105.0988579  73.2633352
 112.1399879 104.2331219  73.6580181   0.7406095  88.4374714  63.3556032
   1.6948846  88.3639812  63.3419037   0.5620626  89.1175938  64.0050602
  77.3998217  48.0328744   6.9424057  76.5913825  48.0826752   6.4323330
  77.3903231  48.8220589   7.4839973  35.1362424  43.5916512   0.1884174
  34.3102317  43.5208790   0.6668854  34.8876862  43.9380162  -0.6686020
  62.2688103  60.8614969  44.1410780  62.7773046  60.0505495  44.1353941
  62.5019979  61.2961674  43.3207607  73.9298773  83.2800865  59.3086433
  73.8318491  84.2315102  59.2709589  74.4658232  83.1251431  60.0864506
  46.7267470  64.0778058  17.0949173  45.8368163  64.3233864  17.3478031
  46.6138987  63.3045666  16.5421104  23.5751538  45.8562749   5.8577251
  24.3640666  46.1193936   5.3837776  23.6815028  46.2366479   6.7296410
  24.6889595   9.3298358  72.6499605  24.9031071   9.4517440  71.7250204
  24.6150497   8.3813685  72.7557087  84.0832901  37.0849371  58.1935835
  84.1117954  36.7585325  59.0929604  84.5445824  37.9229355  58.2281780
  26.1592773  15.7657069  54.7572279  26.0514168  15.2324409  53.9696836
  26.2978271  15.1303214  55.4595995  99.8096943  69.0355778  57.5707340
  99.8361588  68.9267826  58.5213614 100.3063774  69.8373795  57.4074984
   3.1269506  68.4547377  66.6120338   2.7666238  67.5809860  66.7635536
   3.9886335  68.2950163  66.2270308  64.8251681  19.7948210   4.6709824
  64.1031222  20.0384419   4.0917206  65.0711493  18.9136212   4.3895340
   8.3300261  44.3272488   1.1574745   7.8078656  44.3276208   1.9597054
   9.2369132  44.2946808   1.4619923  20.9033780  61.5899365   5.2591896
  20.1032452  61.8436806   5.7192326  21.4020877  61.0889332   5.9045696
  91.1498642  85.0935745  70.1615906  91.1010742  84.9241066  71.1024046
  92.0417881  84.8445702  69.9193096  12.0550017  50.5588048   6.7394066
  12.3435836  49.7382634   6.3398170  12.8645758  51.0410016   6.9076347
 100.7147789  89.2124462  87.6875687 100.7912731  89.1128826  88.6364937
 101.5614796  89.5659065  87.4147987  79.6599674  87.6022530  54.2256927
  79.0348577  86.9413376  54.5234632  80.1170444  87.1872520  53.4941959
  72.7052593  96.1232948  77.2184086  73.2107401  95.7532215  76.4946842
  72.8520346  97.0670509  77.1551228  95.3406525  70.8604670  52.4697733
  95.0097561  70.4113770  51.6919231  94.5868683  70.9078455  53.0578184
   8.8793568  12.1451587  88.9033031   8.8911442  11.6374702  89.7146893
   8.6482719  11.5092391  88.2262230  82.7311469   7.2907275  80.2992630
  82.2592974   8.0881232  80.0589466  82.8007317   6.7979640  79.4815969
  30.4249911  34.8515694   0.7252979  30.0320248  34.3992894  -0.0212002
  29.6951775  35.0001900   1.3265514  30.4863171  33.4681313   4.0483093
  31.1926179  33.4045498   4.6912098  29.9278359  32.7124016   4.2305183
  80.8241463  67.9856205  17.8438675  81.2788963  67.9519463  18.6854732
  81.1263084  67.2065306  17.3770177  61.9242144 102.5235558  52.0953751
  61.8164158 102.4538231  51.1468220  61.5859556 103.3924866  52.3116350
  71.0536957  78.7705708  55.6601000  71.4252234  78.1125021  56.2475920
  70.2022076  78.4132385  55.4080868  82.4352074  95.1850700  36.0346699
  82.4433613  94.2366600  36.1638331  82.0108509  95.5301285  36.8202162
  82.4608517  98.0349922  66.7749596  81.9474602  97.2922802  67.0928192
  83.3712006  97.7542305  66.8680048  32.9427914  36.8312568  90.3942776
  32.3775295  37.5883788  90.2410507  32.9206852  36.3451308  89.5699978
  82.5300026  85.0569439  49.8398542  83.3127499  85.5322552  49.5612478
  82.0563030  84.8785019  49.0274525  79.4223452  63.4272671  45.1406813
  79.3007326  64.0095329  44.3907452  80.3390312  63.1568527  45.0877810
  13.3449225  31.2066071   5.1072884  14.0173010  31.4537137   5.7421780
  13.8078122  30.6678383   4.4656563  91.0129452  49.8205757  43.9751625
  91.1347675  49.4608927  44.8538065  91.8698597  50.1774168  43.7415075
  89.5869732  79.7617340  35.0528979  89.6151066  80.6533909  34.7059321
  89.2290592  79.2372036  34.3366551  94.3567085 102.7371025  50.5887747
  94.4444942 103.2404232  51.3982153  95.0777912 102.1083069  50.6183338
  87.7939701  79.7599554  76.0451603  87.7958584  80.2423954  75.2184343
  88.0756760  80.4013824  76.6974211  89.0765667  90.5696964  56.6867733
  89.2490196  89.7126198  56.2970161  88.4117413  90.3999233  57.3541689
  77.2466612  80.0096416  33.6297131  76.3372183  79.9776602  33.3328605
  77.3069429  79.3207550  34.2915535 104.9193668  70.8772469  71.8207407
 105.7455063  71.3563156  71.7558336 105.0137806  70.1521778  71.2030125
  77.2181082  83.3469582  74.3736935  77.4908113  83.8606644  75.1339388
  77.5561333  83.8336849  73.6219883 101.6050626  21.2995166  64.9386120
 100.6603957  21.1451358  64.9392700 101.6954757  22.2304267  64.7350073
 107.9717731  92.7687454  59.9374819 108.7078571  92.5294971  59.3742990
 108.1642437  92.3473835  60.7751226  61.7704439 104.6377945  85.8416843
  61.6140270 104.6287346  84.8973942  62.6642513 104.9678707  85.9332561
  20.1046184  32.7103251  43.5954714  20.8702186  33.1131095  43.1857681
  19.3572143  33.1028766  43.1443262 108.8355160  98.4920311  60.1442289
 109.6031570  98.7510586  60.6540108 108.3373928  99.3018246  60.0331402
  87.4028492  83.6316776  82.8044701  87.4159145  84.3363953  82.1568394
  87.9402828  82.9406357  82.4173546  95.7361031  85.9157562  40.4152346
  95.9568119  85.0326347  40.7112360  96.3061905  86.0650158  39.6609426
  68.6045313  77.7464533  34.5046711  69.2564631  78.4472084  34.5172572
  68.0929518  77.8808975  35.3024459  93.2956219 101.9472027  78.8546896
  94.2419720 102.0619297  78.7681150  93.1819916 101.5309906  79.7091389
  82.2780991  74.1758108  78.9758968  82.3947239  73.7396812  78.1318474
  81.4447784  74.6393967  78.8928366   3.3981327  18.3036250  51.5616035
   3.4529547  18.6771316  50.6819963   3.9056448  18.9032668  52.1085024
 107.2112083  75.4554081  76.4919329 106.5269089  75.1872635  75.8786917
 106.9118214  76.2989902  76.8309975  92.6693630  78.0849504  44.5309448
  92.3124886  77.4292326  45.1300335  92.5262928  78.9198017  44.9768019
   9.5865539  24.1700572  32.7878237   9.6442036  23.6557311  33.5930419
   8.8112453  24.7182483  32.9087520  86.3021469  90.0513554  77.4857092
  87.2281075  90.2929306  77.5076962  86.2693214  89.2796230  76.9203997
  49.3008761   9.9580519   7.2181511  50.1863818  10.2869790   7.3728085
  49.3631797   9.4829362   6.3895226  26.4197353  20.1173896  81.5838718
  26.4644150  19.2095107  81.8838406  27.0858292  20.1764030  80.8989906
  78.8698626  84.5523548  76.3233519  79.7005987  84.1155815  76.1353683
  78.9523506  85.4119110  75.9103346  82.0293522 103.2946205  58.4662724
  81.8904781 103.9691544  59.1310596  81.4319706 102.5885773  58.7130117
  99.9801350 104.6272182  79.2779112  99.9700737 105.0954247  80.1127243
 100.6403828 105.0828648  78.7557030  73.8534117  66.7722321  46.2398052
  73.9224815  66.6262865  45.2963209  74.2098331  67.6505518  46.3730240
  52.9635291  30.1979439   7.9302597  53.8306574  30.3645127   8.2998276
  52.4516539  29.8579686   8.6641788  10.2098087  16.0294837  58.0420017
  10.3958038  16.9578284  58.1827402   9.3457893  16.0180491  57.6302290
  86.9193412   3.1224269  65.7352448  86.1963321   2.5052279  65.8473492
  87.0371629   3.1836814  64.7873020 103.9606953  86.3147068  61.7172098
 103.9099312  85.7134247  60.9741592 104.6885395  85.9840012  62.2436285
  82.3470592  92.0994663  56.3723087  81.9105148  91.4403439  55.8326626
  81.9028378  92.9191208  56.1553717  75.2496867  39.8370545   3.9571476
  75.8999877  39.6733945   4.6401978  74.7816043  40.6173985   4.2541218
  28.8874153   0.4235381  75.4011726  28.3160595   0.7642859  74.7129345
  29.3696789   1.1893004  75.7130575  17.8216413  84.5624638  81.0231876
  17.8386548  84.0849781  81.8526173  16.8922475  84.7189140  80.8559036
  52.4972396  41.5755551  19.5405102  53.1524138  41.2465565  18.9250946
  52.8211932  42.4392121  19.7962093  70.8222198  75.4852438  59.3944454
  71.4064074  75.3711748  60.1440763  70.3889132  76.3237286  59.5538759
  97.5891877   1.4846820  85.1415443  97.3238612   1.5678996  84.2256260
  97.8874970   0.5788154  85.2231312  68.8212013  92.3375893  60.5988646
  68.6016273  91.4152813  60.7306862  68.2054710  92.8125286  61.1570215
  94.1446686  69.4629002  64.6862745  94.9494171  69.9692822  64.7966433
  94.2980766  68.6583853  65.1817036  71.1071348  89.1087246  79.9341059
  71.1344671  89.7636795  80.6316090  71.5662622  88.3518219  80.2981567
  59.3996958  15.0104134  14.1744423  58.8502268  15.0345652  14.9578476
  58.9950137  14.3445532  13.6184883  83.1887679  59.2437642   5.3233528
  82.3028903  58.9635460   5.5534172  83.0652194  60.0723546   4.8603058
  88.9597130  94.5973873  90.4196167  88.1315994  94.9415112  90.7543373
  89.0870953  93.7759972  90.8942986  63.8271713  92.9582214  57.0944786
  63.1720161  92.6374912  57.7142668  63.3175802  93.3944511  56.4116526
  62.6462698  68.5327864  52.8730774  62.1923161  68.1426620  52.1261120
  62.7522802  69.4537163  52.6345873  73.9003420  93.9941311  41.8225813
  73.6844683  93.3152199  41.1832714  74.7994041  93.7978649  42.0860195
 102.7000809  87.7107239  64.9714184 103.6216354  87.4604607  64.9056196
 102.6851177  88.6360359  64.7268820  62.8566551  94.7352505  72.1111012
  62.8913546  94.9653053  71.1826086  63.6966801  94.3101978  72.2840929
  95.7415962  73.4534359  37.6777363  96.2642193  74.1557455  37.2906113
  95.9266758  73.5061264  38.6153936  89.7629547  82.6003361  29.9049425
  90.1380825  81.7473602  30.1238775  88.8420868  82.5286007  30.1560950
 108.9779282  90.3450584  69.3284225 109.6755791  90.9977150  69.2687654
 109.4078636  89.5665741  69.6824646   7.6112274   0.6968898  77.1607113
   6.8624691   0.1103610  77.2682810   7.9617885   0.8024520  78.0451298
  82.5175476  95.7156563  75.4028893  83.2786846  96.2091446  75.7084465
  82.8685570  95.1190758  74.7417450  49.4189835  76.0530329  65.7542944
  49.0278721  76.2584019  66.6034651  48.8030481  76.4098406  65.1143360
  87.8098202  65.3430223  62.9200125  88.5965919  64.8048830  63.0072880
  87.2159004  65.0098085  63.5926676  46.2167029  67.8115647  11.7825794
  47.1306567  68.0398457  11.9523430  45.8668761  67.5700848  12.6402187
  88.2054329  51.0612106  66.5521288  88.8591003  50.7159281  67.1601772
  88.5343933  50.8220387  65.6856298 105.1671935 102.9305957   6.2897110
 105.9668017 102.9674409   6.8145943 105.0589419 103.8209365   5.9553337
  89.2070771   4.1027755  76.8371344  90.0902272   4.4137782  76.6382408
  89.1894198   3.2045383  76.5068483  49.3049908  98.2411385  89.6078968
  49.5341301  98.8773251  88.9304161  48.3524895  98.3015442  89.6808720
 107.9780055  22.1414584  49.5482779 107.8256751  21.2826270  49.1540194
 107.8768969  22.7588958  48.8238573  43.1555991  26.0705607   1.8348789
  43.5840373  26.3795846   1.0366440  42.4949793  25.4499381   1.5272427
   6.8605188 101.0262108  78.6834288   6.6048768 101.7096424  78.0639172
   6.1906770 101.0592937  79.3664026 108.3377696  14.0622443  82.7176476
 108.0789185  13.1420917  82.7682304 109.2881966  14.0502376  82.8306580
  58.8791275  66.8486547  88.9668941  59.1118383  65.9231567  88.8925266
  58.8203859  67.1543360  88.0617237  19.7730259   1.4840621  62.1752071
  19.9227528   1.0821837  63.0309534  19.5740990   2.3994559  62.3719883
  10.8287815  14.4767016  35.5471468  11.1007503  15.3556079  35.8113217
  10.9937672  14.4480723  34.6047091  39.2325473  96.1683369  79.5790434
  39.8091221  96.8907452  79.3302011  38.3899283  96.5853977  79.7587299
  73.1846762  70.2511835  41.7922974  73.9210939  69.6648788  41.6186190
  72.4955320  69.6774340  42.1271467   8.7181190   4.9219245  68.3109426
   8.6906532   5.5383986  69.0426826   9.1858200   5.3910369  67.6199770
  40.0821023  45.7471554   3.2328033  40.7267813  45.0485127   3.3446789
  40.3781895  46.2243931   2.4576759  92.5076199  84.3673992  87.8935337
  92.2865009  84.9778938  88.5968304  93.4646130  84.3498802  87.8836441
  73.9351034  89.6368980  82.8235722  74.0611649  89.9867916  83.7055683
  73.9741898  90.4047871  82.2534275  68.9613867  87.9552364  50.6914759
  68.4663248  87.1638584  50.4796314  69.2188072  87.8390694  51.6060638
 102.3737335  75.5538464  51.6235733 101.9762611  75.6113529  50.7547045
 101.7554951  75.0326157  52.1357584  57.2502899  83.3765984  63.8820171
  57.2663116  82.9880238  64.7566557  56.5525103  82.9076767  63.4243584
  29.0010218  73.3102887  35.9390831  28.6143737  73.8208382  35.2276993
  28.7852339  73.8019555  36.7315006 102.0350075  44.3809271  42.2763062
 102.2777748  43.8616848  43.0429077 102.8499794  44.8036861  42.0055103
  92.4455452  88.7349129  39.6847534  91.6547108  89.2737579  39.6635437
  92.1982098  87.9667187  40.1994801  88.1893635  92.1248245  81.2886429
  88.5331440  92.9930305  81.4990425  88.8193703  91.7622280  80.6658745
  82.0684528  94.2361641  87.6975250  82.7274704  94.8015404  87.2946835
  81.7268562  93.7124348  86.9727707  80.9712081  70.5455678  17.0343590
  81.8450026  70.6994813  17.3935699  80.8405738  69.6010678  17.1185780
 100.1469803 101.8954468  67.8903723 100.0088882 102.6635456  68.4446144
  99.5843029 101.2211227  68.2710552  57.1333270   7.4052279   4.3436718
  56.7144923   7.7642481   5.1259232  57.4520354   8.1728642   3.8689232
   1.4338545   5.4751414  64.0383625   1.8669800   5.1208133  64.8149490
   1.2995914   4.7156257  63.4714890  93.6848164  60.3014994  68.3283949
  93.5489178  60.0375843  67.4183846  94.3457985  59.6927404  68.6581659
  89.5905495 102.4111462  78.1753397  89.2404842 102.5603008  79.0536547
  88.9886379 101.7795086  77.7816820   9.1687444  77.4305344  50.1099777
   9.5945790  76.6213226  49.8270082   9.8426297  78.1030798  50.0110340
  98.3580685  79.8896074  41.3935995  98.2473660  78.9397240  41.4347363
  97.5097275  80.2168846  41.0945320  91.9279385  85.3375244  45.4483271
  91.0258579  85.0183582  45.4730988  92.2888184  84.9731350  44.6401072
 108.9659023  81.6829395  71.4516640 108.6971664  82.4024105  70.8803701
 109.4245720  81.0750866  70.8716965 102.9490089  77.5093031  66.3017607
 103.7595272  77.5818825  66.8057680 103.2258415  77.5945139  65.3894329
   7.0719674  92.7731133  56.6112185   6.9747117  92.3476410  57.4631214
   6.6405252  92.1796799  55.9964609   4.7870687  77.9648113  74.1113424
   5.5366567  78.0268621  74.7033691   4.6870282  77.0267868  73.9490652
  11.5407041  66.5064955  52.6224709  12.4330857  66.6212845  52.9491472
  11.2769273  65.6444216  52.9441500   7.7122262  83.4217644  77.1915817
   7.6592878  84.3773556  77.2085762   7.6860097  83.1640148  78.1130552
  10.7275776   1.5942782  80.6179810  11.4843754   1.2781829  81.1115170
  10.7789139   1.1342830  79.7801256  69.7384357  82.3984432  47.1595383
  70.3812265  83.0877972  46.9926643  68.8963747  82.7985096  46.9424677
  94.6242905  89.6928120  76.0604382  95.4100895  89.1475773  76.0989094
  94.9520779  90.5900383  76.1217976  99.9097729  84.6018219  72.7163506
 100.6654549  85.1876736  72.6720715  99.1871357  85.1153278  72.3553228
  58.4265375 101.2070370  75.1660156  58.3868456 100.4168797  74.6272135
  57.8986359 100.9981823  75.9366846  28.4975915  12.8653805   3.7262344
  27.6253323  13.2370274   3.8576412  28.4988122  12.0654767   4.2519569
  97.1768570  72.3532724  58.4701014  96.7192554  73.1195879  58.8159275
  96.6130924  71.6142702  58.6987400  51.0516500  78.5119247  91.1094570
  51.3438845  78.8810015  91.9428921  51.6769600  78.8468838  90.4667854
 106.2812424  59.1123533  75.3382158 106.3479614  58.2082033  75.6452894
 105.9115601  59.5906878  76.0803509  54.1055250 102.1016026  56.8177652
  54.3667698 102.9671192  57.1321774  54.7560978 101.8826962  56.1506271
   6.2580875   4.9152392  62.3863506   6.4641765   5.1293487  61.4764500
   6.1913017   3.9604587  62.3985147 101.8424750  12.5486392  61.6236973
 102.2013093  11.9672507  62.2941065 100.9535170  12.7394313  61.9229984
  69.6497297  82.5251865  86.4023685  70.4872942  82.9863739  86.3574314
  69.3205261  82.5383759  85.5036545   5.9670643  33.7788981  75.2716875
   6.2230686  34.4447726  75.9098911   5.8026508  32.9951972  75.7960987
  11.1799244   0.6094855  45.3264618  10.6254677   0.4098338  44.5721722
  11.0462097   1.5445823  45.4811859  91.5316200  88.3709526  26.4981675
  90.8254337  88.9054394  26.1350489  91.8920326  87.9054546  25.7434177
  98.4809399  66.6468287  82.8493977  98.4011078  65.8580732  83.3858013
  98.1310463  66.3922596  81.9955826  99.5155812  10.4700393  76.4829111
  99.8399640   9.9638003  75.7381105  98.7081481  10.8737582  76.1646557
  10.6110577  11.5379447  84.7497368  11.1693577  11.1804694  85.4401970
   9.9938969  12.1060390  85.2108383  75.9748554  97.3189354  70.1664782
  76.5458298  96.7546654  69.6451187  75.1838875  96.7977142  70.3040934
  76.4695120  66.0985088  65.7465744  75.5924892  66.4343691  65.5614853
  77.0392370  66.8643951  65.6754160  -0.1079985  70.2668142  31.6195035
   0.6617597  70.4575777  32.1555209  -0.3785750  69.3901348  31.8923593
  98.5377884 104.7217941  73.2884598  99.4315434 104.8635006  72.9764462
  98.6140823 104.7236252  74.2426109   6.6737130  62.6866245  66.9849348
   5.8424523  62.2208023  66.8940830   7.3377755  62.0408010  66.7437649
 101.4727402   3.3778018  40.5715132 101.9819976   3.2356566  41.3694382
 100.5857373   3.1006164  40.8009243  49.6107630  39.0295785   6.7355633
  50.4919009  39.1197865   6.3726521  49.1464667  39.8104565   6.4340878
  59.8471069  95.2578449  76.3660097  60.2429771  94.4260788  76.6261625
  60.2524137  95.4628372  75.5234289  44.4248394   2.5170249  58.0524921
  45.1550583   1.9467944  58.2930088  43.6446957   2.0378608  58.3318138
  70.8983283   9.2995064  17.3997307  70.5544524  10.1642983  17.6235867
  70.9315257   9.2952340  16.4431190  46.5715270  63.1747048   0.0904751
  46.4201502  62.5028412  -0.5742931  46.0490183  62.8913109   0.8407497
  90.1513386  98.1408310  73.5402441  89.9772072  98.9491940  74.0223837
  90.9598446  97.8020859  73.9246798  80.3742790 101.2047768  74.5372343
  79.7842407 101.0124397  75.2659941  80.6370735 100.3450584  74.2085123
   5.1843265   1.3603610  88.2954216   5.2768806   2.1472091  88.8325691
   5.5432133   1.6083926  87.4434185 100.1725864  96.7594910  81.8603134
 100.3830528  97.4673462  81.2513161 100.9262943  96.1713028  81.8135929
  47.3363070  33.0138962  24.9929237  47.3990969  33.9240830  25.2825069
  46.7156558  32.6115315  25.6004810  44.7834019  32.6038569  70.7472515
  44.9556641  33.5402602  70.8458138  44.1273788  32.4092597  71.4165735
  26.6550831   6.3388175  57.5447130  26.6314415   5.4011268  57.3539448
  26.1938862   6.4252013  58.3790255 108.0093384 102.2728062  46.1778498
 107.6494122 103.0399132  46.6230774 107.4368954 102.1443081  45.4215288
  33.3190446  37.4658387  13.0783367  32.7486376  37.1330826  12.3854160
  33.5748248  36.6870682  13.5726261  83.4484152  38.9355652   4.0026665
  82.9289870  39.6499722   3.6338329  84.3199305  39.3118088   4.1256714
 103.2175350 104.9251270  60.3898573 103.3969212 104.0995884  59.9398232
 104.0547085 105.3891373  60.3818321 105.4436112  27.4891776  84.4575691
 105.4520369  27.4726409  85.4145908 104.5440961  27.7243632  84.2300034
  63.9639716  58.5403340  13.3092690  64.1205840  57.8159421  12.7034950
  63.9038615  58.1245606  14.1693592  33.5263065  21.2900466  54.5978165
  34.1540245  20.9230346  53.9753151  33.6150268  22.2377604  54.4968128
  95.3264809   4.5251483  71.6466522  95.5322362   3.6098498  71.8366861
  94.5016671   4.4896430  71.1622429   3.2156518 104.5332813  50.8395767
   3.2939389 105.1049995  50.0758791   3.9171365 103.8911247  50.7309675
  33.2871583  95.4405975  74.0788507  33.8293222  94.7179890  74.3952894
  32.7094129  95.6462288  74.8137999  96.9824314  90.6638432  47.4115896
  97.8225040  90.3420162  47.0845699  96.4888000  89.8717594  47.6240921
  98.4915733  92.3035336  79.4491482  98.9389038  92.0998764  80.2705193
  97.6216888  91.9164944  79.5478153  81.2214375  94.0039921  53.4656763
  81.9435310  94.4332504  53.0068207  81.3105392  94.2913628  54.3743610
  97.5661182 101.8068790  75.1291084  96.7179680 102.0311832  74.7462845
  97.9749966 101.2298965  74.4840193   6.9254830 102.3474026  84.6293259
   7.5937989 102.6495838  84.0143013   7.2870973 101.5420914  84.9993801
   3.2885555   0.4921359  65.4527140   2.8544477  -0.2891808  65.7952452
   2.9647020   1.2061996  66.0017681  29.4111828   1.8464870  46.8712902
  30.0643352   2.5390357  46.7712307  29.4120888   1.6499537  47.8080988
  89.1110325  85.3567314  89.9067307  89.0365124  85.6953907  89.0145493
  89.9328041  85.7226086  90.2339458  94.8936176  76.0572958  83.5638237
  94.3578911  75.5703163  84.1899872  95.5651951  75.4337788  83.2873440
 108.6680603  86.8870544  53.4151888 107.8233528  87.2500420  53.6815357
 108.9556885  86.3717937  54.1688490  15.2052407  58.7994282  -0.0895977
  14.8865609  59.4543736   0.5314732  14.5980124  58.0654042   0.0037384
  63.5926966  69.7417920  19.7533321  64.2404322  69.0680115  19.5467186
  63.9073901  70.5237000  19.2996597 101.1191940  88.1694126  56.9732141
 101.7286873  88.3233738  57.6950455 101.0006428  87.2196960  56.9582796
  87.5908852  86.5406799  55.9636164  86.6916466  86.8678856  55.9866428
  87.7049828  86.0945129  56.8027544  28.7502197  20.4669303  74.5766020
  28.9779285  21.1777514  75.1758623  28.7530521  19.6818370  75.1241922
   5.0601056  73.0761147  74.2560244   4.5632222  72.5736618  73.6103725
   4.4337228  73.7151718  74.5958471  31.2869457   7.0621032  50.2480555
  31.3335995   6.5861243  51.0772085  32.1029953   6.8415278  49.7990179
 104.9422455  91.0990334  78.8807201 104.1339111  91.4746761  79.2295980
 104.6510029  90.5024242  78.1911707  31.9519428   2.8867454  78.1492424
  31.8993095   1.9903392  78.4807634  32.8804401   3.0165881  77.9561996
  37.0554212  81.8984032  70.4758263  37.3038247  81.2185669  69.8494577
  36.1033872  81.9597435  70.3977156  65.8046198  71.6882277  57.8080082
  66.5293407  71.1515760  58.1289625  65.1367855  71.0554790  57.5437021
  68.2376099  91.3874340  47.4320030  69.1128063  91.3033581  47.8104162
  67.8218460  90.5417347  47.5998354 101.3647366  87.3051357  67.4235010
 101.0491467  86.4106178  67.2951126 102.0155144  87.4309540  66.7329216
  39.8144917  30.7996934  19.7744370  39.8862223  31.6837208  19.4144535
  40.6391101  30.3762715  19.5358086   8.0697254   3.2772559  58.2347584
   8.4264664   4.1420859  58.0321836   8.4573368   3.0502719  59.0800190
  73.6980247  76.3448286  55.0464964  73.8318777  75.3978825  55.0865793
  73.0202961  76.5187883  55.6996822  46.8366341   6.9422645  80.8993053
  45.9112076   7.1556109  81.0188770  46.9764904   6.1684436  81.4450932
 103.4269381   9.2997569  84.1780186 103.4580613  10.2127379  84.4639301
 104.3348361   9.0846080  83.9643478  91.4985657  11.2353724  80.3848457
  90.9341479  10.4850501  80.5710506  91.4061166  11.8007583  81.1516762
  71.8885231  60.6633997  59.1023207  72.8344059  60.5696964  59.2152691
  71.5753078  60.9728575  59.9522400  99.6134090 101.0954952  27.7465868
  98.7665081 100.7311916  27.4891472 100.0969601 100.3496838  28.1017900
  25.7142166   4.7917861  64.4159222  26.4022735   4.3097133  64.8746252
  25.7797912   4.4967479  63.5076904  77.9411602  83.9794064  62.7497196
  78.6954021  83.6884403  62.2371864  78.3201504  84.4921398  63.4636593
  89.0402031 103.7598515  28.0405307  88.8160515 103.5730362  27.1288896
  88.6600494 104.6220589  28.2087970  61.2621784 101.6020775  25.0057912
  60.8827496 101.6382790  25.8838344  61.5235281 100.6878948  24.8953128
  79.1422701  94.9889565  84.4189167  78.8620472  95.8487988  84.7325611
  79.9513578  94.8110771  84.8984623  39.6639924  70.4323094  29.4614601
  39.5604186  69.5566933  29.8340416  40.1431565  70.2901070  28.6451244
  42.5129608  13.1300086  69.8823643  42.6134590  14.0340442  69.5842838
  43.2049183  13.0141849  70.5335188 107.3117162   4.3922442  77.2369003
 106.9728328   3.6139888  76.7945004 107.1222783   4.2427653  78.1631851
  95.0976372  76.4286709  77.1068239  94.6247387  77.0094824  76.5107918
  94.5117855  75.6814861  77.2281837   7.0080665   1.9585818  62.4805737
   7.0176510   1.6549605  61.5728521   6.3362984   1.4246196  62.9046488
  17.4216179   4.5063418  61.7901516  17.0836834   4.5744342  62.6831198
  18.3699898   4.4340533  61.8978262  80.2450180  94.7101593  77.1421957
  80.3497028  93.7736320  76.9743395  80.5779457  95.1339626  76.3511276
  31.5760616  19.9955768  76.1248875  31.8689064  19.7055644  76.9888115
  31.9400219  20.8759612  76.0316849  16.7845395 101.2767601  82.8131390
  17.2107556 102.0981789  82.5685024  17.3569062 100.8996582  83.4812832
 100.7229710  72.9884195  76.4809561 100.5804348  73.8558483  76.8597460
 101.6515064  72.9781246  76.2486887   7.0962719   9.1730041  64.9229622
   6.6020206   9.4575328  64.1542053   7.9526428   8.9211291  64.5773792
  87.7824879  86.5966702  72.2785997  86.9943333  87.1377468  72.2309256
  88.2683182  86.8104553  71.4820480  69.9956088  52.4555295  19.9354172
  69.9592929  51.5169232  20.1196384  69.0791373  52.7309029  19.9133396
 104.8913670 102.9145241  57.3028994 105.2323341 102.3952866  56.5746355
 103.9478207 102.9550934  57.1470165 100.8572769  79.6292448  69.9053812
 101.7713070  79.6241760  70.1895618 100.5254650  80.4837132  70.1811028
  67.9845476  86.7594719  87.2482681  68.2037401  87.6361847  86.9327354
  67.2852135  86.9023418  87.8860378 109.3763447  84.6338749  76.5573359
 110.2289009  85.0347614  76.7267084 108.7603855  85.1538467  77.0735359
  22.8635029   0.3961677  66.6614389  23.4896568   1.1022204  66.5012741
  23.3962158  -0.3990537  66.6698885 109.2269421   2.2207564  84.4007111
 109.0605641   2.2226447  85.3433323 110.1264191   1.9042987  84.3168926
  76.3318686  29.0547841  16.0285759  75.4139571  29.2889779  16.1658192
  76.3983588  28.8874238  15.0884628  81.4194393  99.9928570  56.7626381
  81.0904694 100.3211021  57.5994587  81.3195610  99.0427399  56.8220901
  96.5314055  16.4549560  77.8691435  96.1069918  15.6426066  77.5931263
  95.9417487  17.1469707  77.5697279  40.4598621  15.1988715  71.1227894
  40.0444130  15.9574431  70.7126713  39.9263863  14.4542617  70.8449411
  79.9200726  76.5749502  42.7573967  80.0245953  75.9383774  43.4645605
  79.0825367  77.0007563  42.9402924  84.0535979  51.7615216  13.5293579
  83.6016230  51.0074036  13.1508732  84.5235304  52.1533387  12.7932358
  13.4767250   7.7147883  75.9965563  13.9230064   8.3220786  76.5866852
  12.5522427   7.9545516  76.0604620 106.4266682 103.3817863  76.6378403
 106.3438034 104.2711163  76.9820166 106.1134243 103.4440327  75.7354879
 107.8185273   5.9363669  68.6653042 108.6558676   6.3552207  68.4661865
 107.9427768   5.0211448  68.4139633  88.8053417  86.9105625  63.6778450
  88.6813736  86.2000179  64.3071222  88.1396294  86.7558575  63.0076790
 108.7063218   7.3119849  78.6904144 107.8961087   6.9601649  79.0592194
 108.6543465   8.2538337  78.8530588  28.8068966  13.8779658  84.7992420
  29.5775989  13.8411445  84.2327595  28.9781097  13.2264060  85.4792309
  98.2943726  65.9205389  72.3916149  97.5037193  66.3592529  72.0775843
  98.4492493  66.2971592  73.2578754  28.6918025  66.9315522   3.5414505
  29.3836598  67.0354931   2.8881836  29.0316872  67.3691361   4.3219852
 109.4591141 100.1095581  67.8436852 109.3740177  99.1645432  67.7174473
 109.3698692 100.2339745  68.7885618   3.8556913  79.1225052  36.0911751
   3.3941415  78.8510227  36.8845892   3.4245637  78.6394787  35.3861547
  81.2920094  82.3226452  72.3352385  80.4101181  82.4548054  71.9873238
  81.2591839  81.4605522  72.7499056  17.5498108  14.4680709  84.2984962
  18.2680611  13.9052218  84.5875549  16.8682770  13.8593501  84.0135288
  72.5761890  76.8104982  73.1904793  72.3231554  77.6855946  72.8965139
  72.6710415  76.8946505  74.1392422   9.5648339  69.7005606  60.7345772
  10.1883176  70.1705694  61.2882948  10.1063016  69.1055346  60.2159309
  13.5408882  17.6701659  61.9435549  13.1062988  17.2196311  62.6677036
  13.6560348  18.5680312  62.2546816  12.6851276   1.1765975  82.4942493
  13.3547405   0.4933280  82.5255871  12.3624233   1.2371272  83.3933735
  58.5916857  54.5388215  29.3455219  57.6345305  54.5327656  29.3387795
  58.8398795  54.0183632  28.5814762  89.9993038  94.6067047  26.6798019
  89.1845894  94.3052387  27.0817852  90.6436634  93.9389610  26.9146609
  11.7599729  84.5293903  79.7242832  12.4979070  84.3156910  79.1532993
  11.0995820  84.8948097  79.1355658   6.0993245  80.1321316  79.0765333
   6.3983396  80.1178551  79.9857187   5.4678968  80.8507633  79.0433216
  11.5736488   3.3061427  50.7649422  12.1146110   2.6610297  51.2203693
  11.9972423   3.4157104  49.9135923 106.5643216  12.2695655  71.7301369
 105.6385709  12.4929160  71.8267298 106.5696669  11.3211650  71.6007757
 104.8821354  85.8601284  39.5536494 105.5452347  86.0472775  40.2181149
 104.0646076  86.1814213  39.9339700 108.5364723  66.4825439  53.2810879
 109.0995789  65.7309008  53.0962420 108.2704067  66.3639927  54.1928911
  94.0089226  91.7022038  86.5634823  93.2041359  91.6699696  86.0462570
  94.0830612  90.8278370  86.9458580   8.9227394   1.4342135  72.3723745
   9.2480091   1.8608111  71.5796328   8.3350376   2.0784301  72.7671099
  25.0611500  10.0538177  63.8145018  24.5675758   9.6910876  63.0789471
  24.4260887  10.1008243  64.5291471  11.7713407  53.0604649  60.9390211
  12.0493177  52.1513796  60.8271074  11.2358335  53.0512476  61.7323542
 110.2894355  19.7890681  70.9834194 110.3093005  20.3714770  70.2240562
 111.1006022  19.2848796  70.9198523  62.7243185  76.4319229  61.3158464
  62.3964500  75.6354666  61.7334557  63.4719181  76.6937733  61.8532085
   4.1846517  54.7998047  53.8168907   3.9129499  54.7348166  52.9013634
   4.5251992  53.9304876  54.0279484  92.8381634  81.4123440  83.2678032
  92.4480057  80.7178879  82.7370071  93.4122562  81.8822479  82.6629448
  22.6589632  41.3960552  25.8915687  22.2209644  42.2381735  25.7681751
  22.6340008  41.2493801  26.8371344  47.6049852   8.2496250  54.7816372
  47.9742336   7.7865404  55.5335951  47.6690722   7.6240188  54.0600109
   6.9934749  84.4507557  60.6861401   7.7486800  84.1638452  60.1727390
   6.4106035  83.6916047  60.6995392  26.6169715  17.2389781  32.7350950
  27.0545530  16.4238667  32.4894309  25.7046628  16.9872618  32.8784966
  82.0620301 100.5671140  47.5865841  82.1664771 101.4554786  47.9273653
  81.2889089 100.6156349  47.0243025 103.4417578  96.8253922  51.3833570
 103.5586306  97.6551121  51.8461037 102.5868984  96.5074849  51.6738415
  57.5297976   4.3222430  65.2376413  57.2641373   4.2741373  66.1559772
  56.8900633   4.9085522  64.8336411  23.7431478  99.1924321  66.0375309
  24.5038556  98.9494610  65.5097818  23.0897283  99.4775843  65.3988123
  52.9481316  20.7489014  38.2885551  52.9738188  20.2028632  37.5027966
  52.4926758  21.5443182  38.0126834  66.1700750  68.7924372  15.9927559
  66.0201669  68.2185482  15.2414894  66.4939714  69.6079551  15.6103230
  10.5186509 104.1787552  57.9565287  11.3545989 103.7429210  58.1222868
  10.0086641 104.0293938  58.7526608  10.0035810  84.9438315  28.2895947
   9.7665452  84.1355210  28.7442183  10.2345037  85.5537921  28.9902020
  21.0667992   2.1970196  52.2650957  20.1734471   1.9606650  52.5146770
  21.4572072   1.3757549  51.9661999  15.8985566  82.7398711  73.4365749
  16.1343860  82.3841268  74.2933464  16.4664792  83.5029107  73.3294868
  95.8118626  92.3133474  76.8501282  95.5535241  93.2336575  76.9003582
  96.5220042  92.2985965  76.2084818  82.3187544  84.9102837  42.1735668
  83.1560656  84.5324403  42.4425936  82.5493481  85.5451077  41.4952898
  57.9542589   6.4358383  55.0089693  57.9021263   5.7517672  54.3414640
  57.7618694   7.2461069  54.5370722  97.9539395  74.6211098  13.9864826
  98.4763671  75.4218839  14.0318680  98.2276488  74.1129612  14.7500896
  13.7646245 105.6463831  55.2327776  12.9816150 105.7402054  54.6902609
  13.7246703 104.7468179  55.5574608  80.1504257  80.8464819  44.7365236
  80.7698389  81.5156680  45.0276375  80.6735583  80.2550512  44.1954374
  79.1891389  95.8002639  52.3186064  79.9571928  95.4089552  52.7347803
  79.3706026  95.7445103  51.3804197  54.3397284  39.3799996  67.2051287
  54.7251892  39.2890024  66.3337088  53.4122276  39.1799355  67.0788383
 109.0561792  82.0229918  60.5717182 108.8618513  81.2930256  59.9838209
 109.1068693  82.7866083  59.9967813  45.8467293  11.6519904  55.6073284
  45.6640053  10.7134175  55.6511784  46.8008184  11.7080283  55.5542850
  62.0356369   5.7971901  50.6658745  62.6642323   6.3007426  51.1831141
  61.1812067   6.0474491  51.0173798  90.5719420  87.4682802  48.9419556
  91.0392555  88.2362169  49.2707729  90.1361188  87.7753490  48.1469727
  78.5817628  93.4478968  38.0155444  78.5640442  93.7910491  37.1221423
  77.6754715  93.5154015  38.3160615 100.6237122  84.6500450  19.1095698
 100.3615924  85.5597716  18.9684272 100.0014373  84.1385180  18.5925162
   3.8149451  87.8352993  13.8359034   4.6037006  87.9236883  13.3008480
   3.1869554  88.4384006  13.4382534  36.7279529  77.3156482  62.7950430
  36.7861842  77.3557144  63.7496281  37.6348733  77.3842174  62.4966717
 110.8236881  92.1853107  46.2537003 110.1530858  92.5925570  45.7053614
 111.6261145  92.6640790  46.0460329  16.4046478 104.9024381  14.8993158
  16.5269803 104.0855050  14.4156969  17.2920369 105.2322479  15.0407183
  21.1853218   9.1456157  40.0386095  21.2111878   8.6436272  40.8532047
  20.6766796   9.9271077  40.2549076  14.1002393  24.8500609  12.2226942
  14.4591260  23.9684105  12.3233235  13.5723174  24.8042154  11.4255559
  57.6357555  13.8229370  63.0138874  57.5512600  12.9121864  62.7317095
  56.7392492  14.1583490  63.0122471  22.9740739  27.0911098  52.3445606
  22.8191352  26.5563607  51.5659237  22.6863766  27.9688358  52.0934439
  96.6217180  87.5615269  74.1619778  95.8769914  87.4087268  74.7435856
  97.3878261  87.3351258  74.6892834 100.4485007  58.9106542  64.1474771
 100.8576151  59.7738725  64.2084122  99.5379730  59.0929967  63.9152622
 106.8681236 103.8012393  49.7019005 107.3712679 104.2042888  48.9943504
 106.5809938 104.5379428  50.2413988  32.7798486   3.8832405  67.7450895
  32.3462033   4.5004779  67.1558523  33.7013268   3.9136010  67.4878168
  88.4337469  83.1513649  60.0968218  88.7752553  82.2582513  60.1410437
  88.3184894  83.4092718  61.0113907  44.4174576   1.0256424  51.4148664
  44.0576792   1.8962431  51.2450218  44.8689604   0.7907410  50.6041908
  57.4136162   7.8881902  69.1875315  57.6588535   8.7302786  69.5709085
  57.5823164   7.2508669  69.8815012  34.2657161  35.7109022  30.9862614
  33.5025716  35.3654313  30.5231285  34.4305253  35.0759625  31.6833425
  45.3527737  25.6761742  21.5468287  46.0550165  25.6721187  20.8963895
  45.8064795  25.7117963  22.3889184  12.3610163  50.7714367  69.2532635
  11.7125678  50.1365471  69.5576668  12.1158445  51.5898800  69.6848583
  87.3759079  11.9682479  66.1532974  86.9851780  11.6792309  66.9779348
  87.3144054  11.2051713  65.5786991 109.8932226   3.4123746  77.9399061
 109.1112018   3.9587092  77.8612089 109.7544633   2.9097521  78.7426186
  39.1852164  34.1763306  31.6523600  39.6290946  34.6257687  32.3715329
  38.4090972  34.7092557  31.4795589  64.8425865  24.8482895  61.9908428
  65.5703449  24.7405386  62.6032114  64.7182703  25.7954860  61.9308710
   2.8816432  26.5472507  64.0632343   2.0442808  26.6195488  64.5213079
   2.9149780  25.6375718  63.7672520  20.1886224 105.2183692  34.2356730
  20.0386380 105.7573690  35.0123405  20.6261205 104.4348492  34.5687294
   6.0502672  28.1649113  62.1216154   6.7193806  28.6630082  62.5911045
   5.2279067  28.4090781  62.5462770 106.7360087  86.9337994  41.1514759
 107.2546979  86.7911273  41.9432068 107.1958729  87.6328331  40.6866026
   9.1429376 102.8018862  53.9125395   8.7274789 102.0830899  53.4361410
   9.3441629 102.4341818  54.7730827  41.3781595  14.5082784  64.4997549
  41.2536144  15.4491973  64.6238041  40.9663057  14.3213248  63.6561584
  81.3256725  88.3263594  11.8541729  81.8047049  88.2376343  11.0302269
  81.9217750  87.9769724  12.5166106  38.1022954   8.9645761  36.1103463
  37.4471188   8.7895441  36.7858744  38.3947492   8.0973631  35.8299112
  35.4696441   3.7869900  15.5317593  36.3988543   4.0116435  15.4834914
  35.4502749   2.9438806  15.9845543   2.0901880  34.5274734  46.8126678
   1.5005001  34.1818142  47.4827576   2.5007448  33.7513518  46.4314747
   2.8287688   2.8119951  29.6761680   3.7335297   2.9905972  29.9325681
   2.8799763   2.6102024  28.7418818  35.6184769  10.0243104  41.4001513
  36.0024238  10.8118284  41.7856789  35.5006218   9.4284761  42.1399641
  37.2351336  46.4805794  41.9838285  37.7253318  45.8213615  41.4925385
  36.3758564  46.0834885  42.1259356  19.7080863  35.4036140  76.0342455
  20.6012607  35.6564713  75.8007145  19.2523372  35.3321886  75.1955414
  32.6304650  41.4665318  58.4908056  32.5447893  40.6650352  57.9745770
  33.1415153  41.2046862  59.2566395  22.8297805  76.1419135  34.4248033
  22.7633476  76.8392354  35.0771546  23.2919168  76.5448290  33.6897397
  25.0511241  15.7202363  45.4403925  25.3775501  16.1194527  46.2468052
  24.8620796  14.8134077  45.6815434  17.2157657  41.7784977  49.5091915
  16.6878521  42.1958303  50.1899052  17.0285726  40.8441877  49.6000290
  82.7950478  21.1070704  67.3051834  81.9825745  20.8498192  66.8693638
  82.5099659  21.5055084  68.1275034  24.5550679 104.1011528  30.1180601
  23.7906455 104.2255427  29.5555520  24.2051791 103.6958043  30.9114718
   3.3694839  90.5012172  36.4777350   3.9629506  91.2206393  36.6932821
   2.9479026  90.7744294  35.6629634  44.1177273  16.9297564  31.7139363
  43.7477636  16.5259707  30.9288788  43.5878944  16.5852571  32.4328446
 111.2187835 105.1799666  68.9027691 112.0864864 105.2175296  68.5003901
 110.6718083 104.7400857  68.2519579  26.2059999  24.9841213  26.3464570
  26.8492794  25.6434369  26.0862160  25.3784394  25.3009820  25.9845519
  19.3493175  87.6357227  56.8438148  19.7572898  88.4869796  57.0024157
  19.1010808  87.6575631  55.9196234  32.5570464  12.9664040   5.3140289
  31.9097972  12.3158216   5.5861336  32.4766159  13.6687374   5.9593898
  60.8649064   8.1286977   2.4413109  61.6167713   8.6964010   2.2720623
  60.4759527   8.4789108   3.2427406  18.3298898   9.3987352  76.9931936
  18.1891632   9.1090709  76.0917950  17.9108596  10.2582407  77.0367479
  26.6975546   5.8408105  39.2208862  27.1756649   5.9394294  38.3975291
  27.3418260   6.0469037  39.8981380  95.0647994  94.9684900  44.8818445
  95.9819122  95.2265709  44.7894859  95.0672551  94.3250471  45.5905104
 105.1811811  80.3929931  32.6100993 104.5259424  80.8981973  32.1287870
 105.8763786  80.2328425  31.9719100  33.3839940  77.2280007  45.8324957
  33.3787727  76.3838178  46.2836695  34.0647601  77.7330237  46.2771702
  19.2821789   2.4918196  86.9459724  19.4939744   1.6082087  86.6449642
  18.4076798   2.6610619  86.5954876  66.9893694   5.3429711  76.2338352
  67.3603821   4.4639617  76.3108063  66.4302158   5.4353285  77.0052290
  54.1790819  14.2499220  29.6333766  53.7913752  15.0659883  29.9495220
  55.1107168  14.3327546  29.8369122  13.2845830  94.4151121  59.5594168
  13.5647630  93.7733465  58.9068317  13.3170270  95.2540332  59.0996456
  17.3060035 100.5493352  40.8653212  17.9407310 101.0951444  40.4011679
  17.0245122 101.0864547  41.6059303  53.0241871  23.6093688  54.5140362
  53.8057613  23.0586338  54.5594692  52.9581070  24.0036178  55.3837633
  63.4177923   3.8784993  56.6001129  63.1728983   4.2310241  57.4556732
  63.1112766   4.5345351  55.9740973  47.6672649   4.7676715  47.7883244
  48.0390978   5.3877443  48.4156036  46.7281246   4.7739986  47.9732800
  93.6060556 102.0984253  33.3928657  93.5366794 102.2970798  32.4590826
  93.3851024 101.1692962  33.4571362 106.7408630  91.3002544  70.6407261
 107.2290703  91.8755358  71.2297392 107.4122425  90.8905142  70.0952053
  72.2346463  60.9149390  73.9726830  72.8990690  61.5934354  73.8526154
  71.4999112  61.3694602  74.3847561  80.1430144  97.3683250   7.5270998
  79.3738892  96.8410557   7.7431220  80.3286227  97.1574884   6.6120428
 102.0591160  89.9659067   7.7956307 102.7467199  90.4507476   8.2520992
 101.8879171  89.2086774   8.3555645  69.1353204  88.1365806  63.6041832
  68.6717757  88.6297196  64.2810631  68.4405323  87.7575141  63.0658388
  88.4906121  47.2435122  62.3033905  89.2920860  46.8007928  62.0243359
  88.6826273  47.5504619  63.1894732  43.8977003   4.4753277  66.6957283
  43.3244991   5.2039325  66.4573908  43.7041664   4.3102723  67.6185131
 108.9225885  94.6219903  45.7424974 109.0561672  95.0108319  44.8780918
 108.4173723  93.8270443  45.5720472  77.3337841  21.6981554  47.3326731
  77.9060841  21.6692901  48.0993986  77.8130102  21.2173343  46.6578531
  71.1771393   6.9720173  59.7560692  70.7962132   7.5423741  59.0883684
  70.9133911   7.3668736  60.5871868  42.9928255  20.7559037  61.2049627
  43.5774660  20.1918840  60.6986952  42.9316902  21.5607858  60.6905079
  11.6980660  41.3852453  52.8376150  11.3495028  41.9109297  52.1176243
  12.1365619  42.0183849  53.4060240  19.9534225 104.4972461  83.6994457
  20.1997184 105.3379065  84.0852737  20.0993251 103.8606272  84.3992043
  23.7977552  20.1307845  62.9523039  24.2205787  20.6457710  63.6394978
  24.0886402  19.2330325  63.1124830  36.4432454  10.1970720  84.7356987
  35.6111789  10.6411135  84.8991871  36.8482065  10.1214910  85.5997181
  20.2121925   4.7849417   8.3448881  19.4981146   5.4090643   8.2152927
  20.5736971   5.0092608   9.2023426   7.8271794  28.2771611  55.4056263
   8.3317947  27.6486611  54.8893118   7.0940179  27.7686119  55.7521582
  42.8424406  29.6276116  53.9455986  42.0489168  29.3114877  54.3775988
  42.5993776  29.7018504  53.0227566  40.2007055  28.2574487  40.8812094
  40.7690716  28.8432646  41.3812208  40.0173855  28.7346721  40.0719595
  10.3904008 104.9757670  71.2453747   9.7668742 104.6609267  71.8998384
  10.6738900 105.8284045  71.5753365  16.7284726  90.0201744  85.5779934
  16.8239307  89.4132918  84.8439503  16.2464856  90.7626492  85.2137852
   5.5372190  98.3251768  38.4459329   4.8935031  98.9269310  38.0720925
   5.0566053  97.5066042  38.5691404  38.5998178  14.0656698  57.2266388
  39.4703746  13.6808538  57.1252680  38.4322786  14.5024097  56.3915205
  79.5350075  68.2227086   2.7885151  79.4756032  68.4614311   3.7135696
  79.1166783  67.3633896   2.7355766  16.6976451  90.0075394  90.3787136
  15.7986259  89.7542566  90.1693153  17.1813726  89.8689157  89.5644569
  59.7567272  21.8695331  43.6044836  60.4629469  21.3389349  43.2357693
  60.1615191  22.7192211  43.7788534  25.1833844  14.6497214  70.6492472
  24.6036100  15.4069078  70.5670118  24.5926738  13.8967955  70.6691313
  21.5125417  90.8157509  15.5736470  21.8603372  90.8315879  14.6820080
  21.9034051  91.5802067  15.9968090  10.9870994  12.6338160  21.3720822
  11.8731737  12.7907383  21.6983938  10.6915045  11.8564701  21.8459916
  47.7693796   4.1499880  79.6172333  48.2664013   4.9661124  79.5611668
  46.9984245   4.3010193  79.0703821  52.9732609   8.5242009  65.8644819
  53.3030939   9.4029528  65.6767702  52.9647779   8.4706324  66.8201447
 106.8620399   1.8395813  89.4980621 106.0918459   1.3739410  89.8239613
 107.5821674   1.5221713  90.0429440  40.3812265  23.5898948  85.1904964
  40.6565285  23.6179638  84.2741680  40.3873968  22.6591849  85.4140282
   8.3868312 100.2794516  51.5337229   7.4713802 100.5224129  51.6720963
   8.6246061 100.7018420  50.7083225  68.3388329  73.6738394   6.1881828
  68.2164551  72.7266906   6.1236668  68.0668927  73.8902806   7.0800495
  41.9739676  24.5049572  55.8768177  42.6634645  24.5596623  55.2151251
  41.3692713  25.2119732  55.6516409  54.0745163   6.7629856  68.2255840
  54.0079498   6.1435980  68.9523268  53.4320307   7.4423563  68.4302855
  69.5312382  48.3691432  12.9373932  69.8407985  49.2703928  12.8470993
  69.3606210  48.0834480  12.0398903  34.3039036  11.2131429  39.2140579
  35.1378798  11.4129806  38.7888718  34.5454001  10.7031357  39.9872351
  88.1328043  96.3940680  74.3376780  89.0388199  96.6594320  74.1797304
  87.6471945  96.7432952  73.5903788  74.1309309  24.4534278  64.9439526
  74.7856140  24.1317797  64.3241453  73.4713697  24.8791409  64.3962479
  17.3831189  29.5998001  75.5027199  18.0198443  29.0553498  75.9657383
  17.9156494  30.1942086  74.9742079  49.8662567   4.3351918  46.2045383
  48.9710474   4.4726402  46.5142822  49.7948885   3.6155140  45.5774784
 103.2224580  99.8800778  40.1957035 103.8208815  99.3972581  39.6256065
 103.7407037 100.0754255  40.9764004 107.2310158  71.5071851  67.3060751
 107.9185125  71.0479432  67.7884436 107.0119806  70.9192210  66.5831995
  35.3498578  34.6085119  75.5343962  35.7421422  35.3864884  75.1380444
  35.0050569  34.1101885  74.7934389  86.6877747  41.0689853  15.7480907
  86.6693211  40.9354519  14.8004341  85.9988642  40.4956971  16.0842133
  50.0623322  11.6774654  37.9585457  50.7799196  12.1337235  38.3980060
  50.4626465  11.2996459  37.1754527  40.6417036  16.4998662  61.8579102
  40.5628729  16.1181998  60.9836388  41.5798044  16.6552246  61.9677305
  38.4227419  19.6389687  48.3230162  38.8487697  19.5841014  47.4676085
  37.6641512  20.2041602  48.1769657 110.3640696  67.0931083  62.5039625
 111.1956473  67.5619966  62.5736475 110.3768178  66.7120343  61.6259813
  55.1921844  18.9787757  27.6288486  54.5106459  18.7312484  27.0039701
  55.0173044  19.8999166  27.8215861  97.9513188 100.8874264  55.9406233
  98.2887288 100.1561963  55.4232407  97.3958799 100.4761019  56.6028452
  43.4222698  38.2366085  67.5285339  42.4844837  38.3764696  67.3972702
  43.4884453  37.8677368  68.4093189 103.6970683  74.2037087  67.0028639
 103.6419030  74.5993787  66.1330175 104.6173473  74.2952710  67.2497129
  83.4666761  95.2152580  46.5324450  84.1355159  95.3578549  45.8627033
  83.4341278  96.0396516  47.0177794   8.6107587  98.9657253  63.5075617
   8.2620572  98.8522309  64.3917322   7.9504537  98.5719692  62.9373121
  52.5379324  31.5742254  61.0495567  52.0506144  30.8413267  60.6732416
  52.4110126  32.2907400  60.4276800 109.1112193  18.7970614  90.9513283
 109.3226872  19.3998027  90.2384281 109.2604735  17.9269052  90.5814838
  38.2754087  36.3263011  29.8946381  39.0532017  35.9777331  29.4590116
  37.5685811  36.1971831  29.2622209  98.5146066  96.1530304  53.9677238
  99.0792819  95.6064725  54.5142078  97.6759621  96.1671924  54.4289255
  66.0299921   0.7966892  80.6944561  65.5633116   1.5318555  80.2969933
  65.3992701   0.0768144  80.6803131  56.4115572   1.6843756  41.6978788
  57.3371792   1.8762754  41.5474367  56.2779665   1.8636964  42.6285934
  56.4874458   7.5710624  89.9067020  56.7344379   6.7589635  90.3491116
  57.2246790   7.7616280  89.3267059   6.0086757  47.7891397  36.2779284
   5.2093107  47.5654173  35.8012795   5.7064241  48.3127022  37.0200610
  21.4738202  22.8245831  90.8170605  20.6395316  22.4520445  91.1023808
  21.2336159  23.4652066  90.1476288 111.3834072  35.8538079  71.6955471
 111.7795609  35.3098774  72.3763084 110.4484066  35.6545925  71.7437077
  25.1120757 102.0299595  65.5042362  25.0393581 101.1104944  65.2482510
  25.2575254 102.0044985  66.4499760  52.5627518  17.1503282  54.1771650
  51.6880608  17.4906576  53.9892149  52.4347019  16.5557873  54.9163246
  53.3121204  38.6132789  51.9204950  52.6771784  38.3612943  52.5910091
  54.1617680  38.3839369  52.2969627   5.1464099   8.1677485  68.1224203
   4.9143761   7.3676777  68.5938835   5.0318247   7.9433644  67.1989727
  14.2414664  95.5386054  71.8353844  14.0856313  95.0271421  71.0414362
  14.0136384  94.9452501  72.5511026  78.6965363  97.9487437  81.1803627
  79.2742538  98.2856774  80.4955673  79.1096985  97.1325737  81.4621353
  59.2407274   2.1193007  26.4737749  58.7219954   1.4164475  26.0824370
  58.6788607   2.8921169  26.4163899  17.6624274   4.5962292  33.4113550
  17.1226346   4.2924386  34.1411257  18.2277083   3.8517332  33.2054043
 111.4447924  87.1254688  57.7212524 111.5556284  87.0193594  58.6660767
 112.2590467  86.7907661  57.3454952  67.4190903  18.5258126  52.6677418
  67.6980400  19.1394699  53.3473349  66.7949152  19.0221977  52.1383667
  89.6413740 100.3364354  47.7169561  88.8488372 100.5413016  47.2208261
  90.2239963  99.9251288  47.0785141  37.8856778  12.4247611  49.5073557
  38.7644219  12.8042865  49.5062780  38.0327845  11.4799547  49.4633961
  30.8875489  42.3859501  40.9635162  31.1438608  41.9671440  41.7851877
  30.9761310  41.6965055  40.3054523  16.7288923  99.1018843  32.5614142
  16.0662078  99.7373944  32.8319836  17.0227527  99.4122088  31.7049217
  85.9164377  70.9278388  90.2069146  86.4284082  70.2075906  90.5748278
  85.1914974  70.4986961  89.7524576  47.5590849  18.4149241  51.0776234
  48.0047941  19.2036855  50.7687044  47.6556492  17.7887058  50.3601599
  39.8214912  21.5609956   0.5950805  39.0457869  21.9923091   0.2366353
  39.8829794  20.7376122   0.1108401  37.9568195  15.1615846  54.8793745
  37.9226708  14.2583096  54.5644808  38.0144000  15.6905961  54.0837240
  28.8618827   8.1390613  58.1538296  28.4893847   8.9096993  57.7253532
  28.2972097   7.4163258  57.8799105  14.0566480  14.5427251  32.4625444
  14.0608788  15.1258147  33.2216358  14.9252713  14.1405797  32.4645877
  48.0948019  10.9998024  49.2917585  48.5870361  10.3981543  49.8502922
  48.7534952  11.3805103  48.7108803  49.1846895  31.4988971  58.3971024
  49.9938440  31.9328856  58.6675787  49.4536877  30.9068680  57.6946974
  30.6682968  17.2208858  43.2502317  30.7841706  17.2605264  42.3008966
  30.7770538  16.2947631  43.4663296  29.7420382  44.7019482  62.8050852
  30.1628304  45.2749014  62.1640825  29.8528171  43.8208294  62.4478865
 100.7561942 103.4521594  52.4885798 101.1166450 103.0602543  51.6931438
 101.2990996 103.1024560  53.1951141  54.4366693   2.3341937  44.6668482
  54.4725418   3.1306028  44.1370583  55.3537941   2.1062842  44.8190784
   8.9397668 104.9338303  60.2673483   9.0845536 105.2907355  61.1436415
   8.1507110 104.3989323  60.3539515  45.7164526  30.2958775  51.1608458
  45.8657742  29.6926308  51.8888760  45.7944250  31.1663651  51.5512323
  11.1248397  92.4557310  65.8596420  11.1350106  91.8670493  65.1049328
  10.4369926  92.1066540  66.4264297  92.5556755   2.2445950  76.7563534
  92.8457069   2.0222628  77.6410484  91.7639732   1.7227259  76.6256094
  72.9340983  71.9647561  24.3989563  72.1301199  72.4770974  24.4847298
  73.5532070  72.3893832  24.9927807  34.7248315  87.5897521  63.7349796
  34.9739980  88.2795363  63.1198788  35.3949546  87.6240486  64.4176149
  85.5804825   4.3430465  57.9823637  86.0651112   4.4275030  58.8034868
  86.1549759   3.8265023  57.4172306  37.3276544  29.3259883  19.2819023
  37.9378819  30.0303173  19.5004690  37.7692318  28.8323545  18.5908401
  53.4581614  12.5496423  56.0135937  53.5141516  12.5841522  55.0586557
  53.8344479  11.7004859  56.2450504  30.4868150  10.5654645  74.2879677
  30.2022219   9.6700978  74.1047764  29.7432590  10.9656191  74.7387791
  69.7060442  19.7101474  70.5326414  69.1290951  20.4728079  70.5740452
  69.3536329  19.1074002  71.1874199  66.8902636  17.3520339  68.4474754
  66.8432236  16.6409409  67.8084373  66.0559988  17.8122306  68.3555603
  21.3908744  14.2150402  89.4736862  21.0225224  15.0110555  89.0903950
  22.3352480  14.3013656  89.3435383  92.0549488  12.0205092  72.9157400
  92.5138187  11.1834228  72.8453112  91.5107632  12.0622432  72.1293879
  44.2512274   5.1299572  58.5508251  44.1503382   4.1873145  58.4186172
  44.4945240   5.2178776  59.4724035  48.2526016  20.6043124  59.2100048
  49.0373802  21.0938549  58.9636326  47.8196526  20.4115129  58.3783722
  24.5285177  24.0128779  53.3631754  24.5176339  23.2360268  52.8040552
  24.4739485  24.7481251  52.7527094   6.1387920  98.8646251  54.8159742
   5.2126264  98.8747555  55.0575352   6.2419128  99.6150672  54.2307949
  29.4840884  26.4710045  52.1006203  30.3569794  26.2400532  51.7828941
  29.3128181  25.8465409  52.8055620  32.7197480  41.8436575  37.1820402
  33.3765554  42.5366306  37.1140599  31.9138527  42.3003197  37.4233246
  76.0231972  23.2289457  41.5779638  76.4038754  22.4904299  42.0532608
  76.0333347  23.9498329  42.2076082  57.1496153  22.3853278  69.2615461
  57.8318691  22.3841357  68.5901546  57.3980236  21.6779971  69.8567009
  63.3395290  15.1263142  23.9683270  63.8900852  15.8101130  23.5868287
  62.5465441  15.1304209  23.4322453  30.7172489  30.4496908  35.4782176
  29.8991990  30.8589005  35.1961279  30.4555082  29.5858812  35.7969022
 104.3937179  91.4618975  53.0985355 105.1368543  91.3408977  52.5074863
 104.1861101  92.3941189  53.0345535  30.1871204   7.2380453  39.8063493
  30.7238770   7.5057477  40.5523109  29.6159697   7.9881209  39.6408057
  33.8266993  17.6921332  74.2606354  33.2886410  17.0285869  74.6924114
  33.2016063  18.2240331  73.7681198  53.8635683   9.9824321  62.6084137
  53.1847191   9.3102241  62.6678610  53.8565779  10.4064405  63.4665489
  58.1176853  30.8713722  14.3062568  58.2007504  31.7687082  14.6289337
  58.9730310  30.4761171  14.4747341  26.3946486  52.8428030  81.4086723
  25.8743095  53.5786867  81.7310905  27.2862625  53.0342770  81.6995144
  48.8660336   5.1217675  50.8997345  48.6465883   5.9333473  50.4421186
  49.6811867   4.8296607  50.4917765  23.1439996  33.2042313  55.2753544
  22.2545505  33.5398960  55.3869057  23.4216666  33.5402060  54.4231510
  32.2640681  24.2732096  64.6992207  32.0596337  24.8969364  64.0025091
  31.6348195  24.4734430  65.3921747  10.3100383   3.4783095  44.9438429
  11.2033701   3.6724538  44.6601200   9.7540301   3.9538711  44.3266487
   7.0472485   3.6495221  22.9106760   7.9967701   3.5672784  22.8219318
   6.7946070   2.9157174  23.4709740  51.9330406  21.7026234  66.5955925
  52.7761698  21.9713712  66.2307072  51.2842655  22.1675491  66.0672331
  63.6023331  26.0420656  73.7519884  63.3243704  26.8121862  73.2561207
  62.8353548  25.8024669  74.2721558  15.8250188  95.4046935  29.7117710
  16.4342689  95.0069672  29.0897918  15.1735877  95.8414161  29.1630077
  22.5155377   7.0260561  38.6172938  22.3241711   7.8881097  38.9867187
  23.1979680   6.6682416  39.1851783  38.8737130   9.1056448  87.3148537
  38.8476086   8.2108307  86.9759464  38.4636855   9.0469825  88.1777954
  11.9557214   8.1621522  49.7765446  12.0973778   7.7895695  48.9062881
  11.2432945   8.7898278  49.6552944  24.3617725  36.4757133  18.2867122
  23.6260819  36.7035127  18.8551319  24.8297143  37.3008132  18.1583631
  40.6392002  35.6266046  33.6856413  41.4548826  36.1257792  33.7271190
  40.8250761  34.8232126  34.1716909  62.7310277  71.1952733  25.5589676
  63.0650903  70.3904937  25.1627827  63.2894731  71.8868075  25.2038002
  99.3092725  25.2562833  49.9812317  98.5797068  24.8346019  49.5271921
  99.2431828  24.9430227  50.8833027   2.0271849  85.5764931  18.5740292
   1.7109608  86.4650184  18.4104526   1.2318086  85.0494176  18.6501849
 106.3347932  98.2887584  64.4948339 106.0497542  98.8771873  65.1939297
 107.2580405  98.5038703  64.3622637  30.2646470  24.3196988  68.9198685
  31.1997962  24.2078018  69.0907669  30.1113605  25.2579308  69.0314627
   9.3158525   6.3431609  16.9883621   9.8615611   5.7445377  16.4783776
   9.9405992   6.8855935  17.4697053  60.0718451   2.2425178  61.9320345
  60.3294802   2.6085293  62.7781391  59.1302967   2.4059173  61.8770838
   6.2082528  90.9832114  68.0389833   6.6791534  90.2566844  67.6307678
   6.1774301  90.7565456  68.9684486  38.9847040  24.2231154  75.3510189
  38.8196135  25.1187396  75.6456995  38.4160638  23.6820650  75.8988714
  35.4269695  13.4632969  32.2105289  36.2897444  13.0683672  32.3365498
  35.0431561  13.4850419  33.0871391  60.7957029  24.0485120  58.1357050
  61.5768528  23.6289811  57.7751064  60.6491518  23.6042953  58.9708233
  24.7526383   1.0162832  70.4396963  25.2494216   1.3728695  71.1760950
  24.5233774   1.7815828  69.9124527  48.9288568  43.8542557  39.3292689
  48.9484310  43.1619072  39.9899507  48.2399607  44.4489622  39.6258807
  32.3911905  26.1519718  67.8453827  31.6003966  26.1691856  67.3063326
  32.8989124  26.9077444  67.5499868  93.4764513  15.1506126  65.3406096
  93.2112893  15.4403102  66.2135363  93.5892293  14.2039585  65.4263973
  75.0584698  26.2883973  69.0739346  74.2168570  26.3665533  69.5231771
  74.9171305  25.6062269  68.4175062  78.6732292  26.1719704  42.8073645
  77.7732658  26.0275650  43.0996752  79.0638161  26.7135859  43.4931707
   2.2092023  15.3956437  61.8377972   2.9043490  15.0069904  62.3687887
   1.8147257  16.0568881  62.4064589  15.9834193  90.4235226  55.1648712
  15.1800966  90.8393091  54.8517704  15.7344388  89.5137340  55.3277397
  31.2614560  29.3086672  20.9008312  31.5843940  28.4088111  20.9477806
  30.3191590  29.2331171  21.0511613  53.4925461  25.6899047  36.2024879
  54.2157936  25.9061503  36.7910314  52.7773094  26.2613845  36.4819145
  83.0931140  88.2447885  19.9654865  82.7027035  88.9997505  19.5252132
  82.3586655  87.8194045  20.4080582  95.3590474  35.9318995  64.3490839
  95.8506379  35.1111150  64.3788147  96.0305628  36.6111350  64.2863464
  66.6093111  16.0474670  43.9446688  67.4791813  16.0970378  43.5483074
  66.7747688  15.8060086  44.8560143  35.6202173  42.6299620  37.1794868
  36.2226248  41.8896341  37.2519565  35.7108378  42.9246712  36.2733054
  28.5078000  91.7071086  47.5488091  28.4175348  90.7591682  47.6462460
  27.8799772  91.9383830  46.8642807   6.2068564  10.2489316  72.6640797
   6.9539875   9.7641879  72.3132944   5.7664889  10.6024420  71.8912029
  74.7909546   0.4611798  61.0201073  73.9306450   0.8412714  61.1979437
  75.3252888   1.2016995  60.7331371  50.1271534   1.8337767  41.8860626
  49.8162460   2.2856191  41.1015844  49.7296143   0.9645214  41.8351936
  20.3468966   2.7667245  46.0630894  20.7401633   3.5355741  46.4759398
  19.4082379   2.8619331  46.2246037  59.8019266  10.5820751  49.7883797
  59.8515844  11.5353394  49.8594713  58.9553118  10.4166150  49.3735266
  58.3384609  41.1643839  76.8752050  57.4822044  41.0740757  77.2934246
  58.4343529  40.3688669  76.3515759  41.5254068  -0.0694396  68.8462639
  41.1529970   0.2337143  69.6742964  41.6791630   0.7315659  68.3452845
  36.1702514  11.6279054  72.3518467  36.1548948  11.3804102  71.4273214
  37.0442414  11.9939983  72.4873066  49.2046738  31.9022584  84.4602871
  48.7794590  31.1647749  84.0226269  49.5448923  32.4409103  83.7459087
   8.9369964  91.0706144  73.2715273   9.8136186  90.7412511  73.4697342
   8.9915370  91.3646573  72.3622465  34.7101307  22.2727704  58.4661293
  34.9655247  22.2086692  59.3864012  34.0130329  21.6245985  58.3653164
  30.1234149  86.8121928  71.4405394  29.6314954  86.4497894  72.1773624
  29.6340751  87.5950521  71.1877441  45.1295471  10.1979220  66.6192341
  45.3500652   9.3712229  67.0483875  45.8675241  10.7746363  66.8167686
  49.9427652   1.3949120  49.2531109  50.5009365   2.1725097  49.2491198
  49.9444103   1.1035742  50.1648951  10.3386867   3.2899025  75.8137274
   9.5737994   3.6276793  76.2796545  10.0839925   2.4078107  75.5430317
  26.9129729  44.8008156  32.8696346  26.2375116  44.3806601  33.4020352
  26.4255595  45.3295183  32.2378612  29.8199415   3.6517215  37.6803708
  30.6071997   4.1853839  37.7883554  30.1482272   2.7582577  37.5794578
   0.6171369  91.2602716  62.1042156   0.8482384  90.6725877  62.8235531
   1.2468313  91.9782012  62.1697378  15.9318494  93.9594227  86.7009735
  15.6027269  94.6797031  86.1632919  15.2379941  93.3007711  86.6697502
  13.8505960   1.0812038  47.9954910  13.8670647   0.4873184  48.7459993
  14.0362871   0.5205043  47.2422552  42.4534035  15.8893728  33.7585425
  41.5600872  16.2262356  33.6896586  42.3631907  14.9444091  33.6355066
  28.0334306   5.3172910  19.7418761  27.9143190   4.8317218  20.5581284
  28.7520504   5.9222716  19.9257600  61.9521738  25.2903412   0.2022839
  62.1758056  24.9378990   1.0636806  61.2274600  25.8925580   0.3706837
  20.1169491  49.2215919  49.8589945  20.9263158  49.7324276  49.8446989
  19.7194088  49.3786907  49.0025425  13.2629108  87.5752252  79.3326664
  13.1940078  87.4482852  78.3864260  13.9617872  86.9800526  79.6039057
  23.9174414  10.8137012  66.2473822  24.0255380  10.0493205  66.8133068
  23.9153719  11.5584922  66.8486452  94.4376143 102.0301437  68.6406565
  94.1839429 101.1318063  68.4288263  94.2077252 102.1324935  69.5641851
  92.0162912 103.0104993  59.4054270  92.6016029 103.1818463  60.1431799
  91.4475723 102.3034173  59.7100973  91.5740868  91.5444892  85.1118374
  91.3321420  90.7605940  85.6050014  91.8063315  91.2183076  84.2424202
  75.2228947  48.4482087  87.0541382  75.3086825  49.1722937  86.4339989
  75.6223507  47.7017535  86.6075176  55.8181334  20.7159638  83.2859802
  55.2717352  19.9365592  83.1849289  55.3763247  21.3872576  82.7659798
  72.3270893   8.3464497  32.3576212  73.2565832   8.1221741  32.3131657
  71.9867706   8.1303334  31.4894581  19.9341106  91.8317646  30.0715518
  19.6276855  91.1769658  30.6989074  20.1888513  92.5799745  30.6114793
  25.3142214  25.5060077  72.7811956  25.9743929  25.6955147  73.4478998
  25.0981569  26.3607121  72.4083281  64.0900112  66.0857462   0.9809017
  64.4564939  66.6888867   0.3342628  64.3638302  66.4443372   1.8251038
  65.4536343  48.4798241  14.0169680  66.0691881  48.9688206  14.5630515
  65.6202793  48.7937355  13.1281948 104.5410252  69.4515477   8.6950111
 104.4689656  69.7746502   7.7968788 105.2783728  69.9365460   9.0655899
  35.9895468  32.2320938  42.0563316  35.6765652  32.1891475  41.1527634
  35.6890512  31.4144278  42.4530125  60.7062960  16.0470235  48.4236765
  60.5726862  16.9853699  48.2899475  59.8321676  15.6662107  48.3393431
  36.7467736 101.9044950  65.5850458  37.1228122 101.1233127  65.1793575
  36.1517381 102.2555899  64.9225521   2.6583485  72.8753804   0.0283051
   2.3650841  71.9882821  -0.1797390   2.2314886  73.0798124   0.8603096
   8.3587217  83.3090836  12.4149156   9.0432834  82.8065020  12.8565252
   8.6826467  84.2097980  12.4187040 111.3164893  29.2942023  64.7391605
 111.2334567  29.9551034  65.4265785 111.7553389  28.5584092  65.1660681
  36.4054418  13.7734485  65.9545135  36.3838601  14.4513834  65.2791119
  36.7436099  14.2195714  66.7309475  13.4827363  25.8065295  43.3061409
  12.7776468  26.3613939  42.9726648  13.2025886  25.5685139  44.1899347
  51.3967800   5.1908928  43.9487362  50.6251240   5.2662706  43.3873987
  51.0822296   5.4273355  44.8213100  32.2434115  28.0382252  61.7262220
  32.1625280  28.7869120  61.1353254  32.4152374  28.4273410  62.5837135
  27.6606917  15.9490693  81.3393974  27.9106641  16.8702960  81.2680817
  28.1961751  15.5040503  80.6825542  15.6616509   7.4163145  54.5879126
  15.0546467   6.7233181  54.3280411  16.4477611   7.2541392  54.0664101
  97.1395846 103.5406600  84.4306278  96.3915416 103.4235327  83.8450146
  96.8678447 103.1298759  85.2513885 102.8517386 103.2924759  66.0712767
 102.1574017 102.6816410  65.8242750 102.9568382 103.1669765  67.0143747
  95.9767723  12.0896101  57.9380989  96.5297127  11.6063738  57.3241186
  96.1177731  11.6560161  58.7797356  28.1463838  55.5813169  27.9542589
  28.8362694  56.0520792  28.4218836  28.6156392  54.9628878  27.3942780
  92.3454995  88.9958842  88.6231917  92.0149227  88.4740884  87.8919721
  93.2075544  89.2947276  88.3337441  55.8146572   9.1560966  44.8867416
  55.4928589  10.0544548  44.8116970  55.0789642   8.6136347  44.6026230
 110.1338144  94.7929829  65.8313894 109.7181674  94.2877120  66.5300846
 109.4823667  94.8132366  65.1303673  94.6604510  80.4951435  58.8236809
  93.8640603  80.7436973  58.3544111  94.3495186  79.9737078  59.5637226
   9.6667176  37.8072476  58.3472252   9.5814556  38.4264016  59.0722179
   8.7672782  37.5492072  58.1455946  12.0517539 102.2610339  52.6113367
  11.1350726 102.4958256  52.7555704  12.3935556 102.0810696  53.4871340
  47.1692610  20.8644485  84.4419098  46.3246679  21.0423326  84.0280724
  47.8151798  21.2129712  83.8274574  11.6167378   3.6420831  33.4033656
  11.0597861   2.8707358  33.5085368  12.5089824   3.3072880  33.4930539
  43.5933853 105.0128912  18.6888695  44.2497355 105.5303262  19.1554546
  42.7582217 105.2884458  19.0667629  30.1868439   7.9512471  62.7051783
  30.4443741   7.6964867  61.8191719  29.6671653   8.7459618  62.5843763
  30.4913473  42.9189062  60.9264326  30.6679487  41.9927692  60.7611513
  29.9390912  43.1918859  60.1938152  57.9044771  13.9197457  72.3783016
  58.2320881  14.6917462  71.9168711  58.4815359  13.2097495  72.0969915
   7.9342221  68.6190301  42.0308876   8.7075328  68.9694434  41.5888119
   7.7668237  67.7836877  41.5945244  27.6188993  21.0002637  48.2646227
  26.7216921  20.6966019  48.4026051  28.0739474  20.2431870  47.8958416
  81.4686871  11.1255658  56.5928936  81.6181755  10.3469765  57.1292543
  80.6023598  11.4354968  56.8567991  40.5489254  47.3693275  39.5533395
  40.8749676  48.2679462  39.5042467  41.0197496  46.9055462  38.8609076
  42.8383303  20.5843067  48.3474636  41.9815016  20.1846623  48.4970093
  43.4035158  20.1961637  49.0153980  22.3398924  69.8148346  49.6919346
  21.6655636  69.9694014  50.3534651  23.1146359  69.5622301  50.1941299
   4.3605994 102.7883246  84.0921974   3.9025640 102.6388222  84.9192905
   5.2888965 102.7346322  84.3193817  52.4511814  32.8016806  51.4006996
  51.8596888  32.1331310  51.7462540  52.3371744  33.5489726  51.9878912
  29.2318702  57.2902679  83.4664249  30.0898957  57.7130175  83.4302711
  29.2209673  56.7052841  82.7088642  49.8889208  22.9926372  57.8791952
  49.2087555  23.3445048  57.3049164  49.9825191  22.0794344  57.6080275
  32.2048593  58.1464720  46.4981651  33.0994201  58.3397532  46.7785788
  31.7221880  58.0111885  47.3136139   9.2237926  26.0517335  86.5943432
   8.3588684  26.0741901  86.1849117   9.8371202  26.0714889  85.8597279
  39.0612698  49.5454931  69.7009611  38.1962371  49.3975878  69.3187618
  39.4402289  50.2471781  69.1715670  46.1413765  29.1452289  70.8935165
  46.1604643  28.9345264  69.9599934  46.8146181  28.5847831  71.2793684
  29.0195560  16.1357987  16.2853348  28.7787080  15.4870057  15.6240547
  28.7665486  16.9750452  15.9007776  37.0835567  38.2955122  45.9106827
  37.1810937  37.6288176  45.2308035  36.6196489  39.0124798  45.4782724
  48.7110186  25.1378107  51.7984009  48.9500952  24.8973846  50.9032631
  49.2772245  24.5985961  52.3505688  22.7822303  98.2334697  29.7134542
  22.2917127  97.5179451  30.1179910  22.3260926  98.4002375  28.8886142
  66.9708061  15.9246957  66.0491848  67.2938681  15.0725603  65.7563925
  66.4159393  16.2299883  65.3314447  18.5362446  54.4109488  45.8582211
  17.8196383  54.6431780  46.4487934  19.3262899  54.6993446  46.3152599
  13.7320197   9.7216588  50.9970236  13.1334591   9.1766793  50.4861832
  13.4295797  10.6170082  50.8450031  29.7726154  24.2975807  46.4400625
  28.9658093  23.8175559  46.6268015  30.0972843  23.9127946  45.6259632
  26.3550042  96.6533923  45.1610565  26.7121028  95.8024329  44.9069309
  27.0547818  97.2756743  44.9627876  45.7964087  16.0688698  16.2043083
  45.9775543  16.9939625  16.3705039  46.2236309  15.8877969  15.3670955
  27.3781323   6.6175741  74.2033052  28.2708097   6.8978035  74.0012407
  27.0620441   7.2625804  74.8359871  60.4038668  31.6094112  44.2083788
  60.7262850  30.7226253  44.3692923  61.0713768  32.1798062  44.5895720
  23.7039804  14.4061351  60.5461931  22.9510427  14.3013728  61.1278629
  23.8800883  15.3469896  60.5494642  24.5280123  39.5022535  41.1902475
  25.1118684  38.9188194  40.7055330  24.8685932  40.3798962  41.0170889
  27.3397493  24.7077298  43.5172844  27.7834558  24.3810678  42.7345657
  27.4529386  24.0118861  44.1647577  40.7429504  29.7921038  55.6174946
  41.1133671  30.4546261  56.2006664  39.8242331  29.7296858  55.8788252
  50.7461023   7.3131055  55.3420401  50.9311867   6.3844514  55.4819584
  50.4271317   7.6240593  56.1892653  62.4336576  16.4613688  78.7146997
  63.3431244  16.2453353  78.9206886  62.3903179  16.4289165  77.7590322
  97.4479294   5.6450588  34.7458363  97.3761940   4.7701579  35.1274562
  98.2532310   6.0037369  35.1187658  55.7507181  53.4428883  28.5834575
  55.3603840  53.5417032  27.7150631  55.1355553  53.8783550  29.1735244
  39.1087103  31.1789250  59.2415047  39.3298817  30.2488303  59.2888451
  38.6679387  31.3628268  60.0710392  32.7038598  22.9965901  35.3850293
  32.3508716  22.3635173  36.0102105  32.1271873  23.7566543  35.4623795
  72.7627325  26.7816043  12.2814035  72.3775530  27.5902176  11.9437432
  72.7183199  26.1700106  11.5464115  63.7039661  48.3337688  23.2154989
  64.3800640  47.7649736  23.5837269  63.2635403  47.7903271  22.5621033
  32.6736331  15.8024812  65.9842920  33.2450819  15.9437871  65.2295017
  32.3629165  16.6775322  66.2166119  41.8336916  20.9030032  37.7773738
  42.6050472  20.3563237  37.6277566  41.8887806  21.1472511  38.7012458
  62.7393723  35.7308030  60.0146103  63.4683228  35.6978846  60.6341076
  62.0637608  36.2364578  60.4663849  59.0118361  26.8351197  50.7591009
  58.9702320  26.8769503  51.7144823  59.9261141  26.6257167  50.5681133
  56.1766577  32.6155758  85.4672623  56.2550783  32.4753904  86.4108849
  56.4485025  33.5240245  85.3366756  40.2047920  53.3079243  87.1067905
  39.7045422  52.9949331  86.3531208  39.6273518  53.1599379  87.8557205
  46.4025593  23.2605267  19.1863215  45.7395601  22.6083517  19.4128788
  45.9616375  23.8466382  18.5712636  52.1698523  41.0345030  56.6003609
  52.6447964  40.2587509  56.3022614  51.4709091  41.1495161  55.9565544
  58.2686568  65.9596215   1.9518089  57.7851821  66.6797100   1.5468979
  59.1614748  66.2923072   2.0436001  29.5649575  92.2799843  55.6952047
  29.9349736  91.4598566  55.3685379  28.7986707  92.4339002  55.1426220
  25.5614519  27.7768350  30.9944010  24.6807432  27.4875140  30.7559133
  25.9394479  28.0945420  30.1743913  24.9535584  27.2190237  54.2812157
  25.5856037  27.8551960  53.9464998  24.2978954  27.1451998  53.5877514
  15.2001861  95.7235216  13.1627846  14.9712280  95.9508918  14.0639591
  15.7521156  94.9457906  13.2448292  53.3921814  46.9397020  57.5590229
  53.1128931  46.8472719  58.4698963  54.0981245  47.5854254  57.5893068
  66.8589401  20.7599568  14.9679995  67.3823929  21.0594916  15.7113063
  67.4743986  20.2681661  14.4243240  50.1634502  41.5829372  54.8688364
  50.6549740  41.0336161  54.2581940  50.3201103  42.4772978  54.5658302
  43.5409498  20.9029841  72.2737598  43.0081749  20.8829689  73.0687332
  43.0092621  20.4522920  71.6176987  86.9252682  39.2733645  65.6223917
  87.0118237  40.1712418  65.9426355  86.0160351  39.0392351  65.8086777
  51.7314625  16.9029438  70.2012777  52.2620773  16.2651742  69.7238588
  50.8823395  16.8864810  69.7597504  30.0595188  40.2879381  29.9229598
  29.3737078  39.6309495  29.8035431  29.8535538  40.6993246  30.7623482
  83.1099129  18.9639795  46.2851572  83.6803722  19.0638971  45.5230379
  82.5842857  19.7638512  46.2973976  21.6467285  17.0552123  77.3396254
  20.9596252  17.5247014  76.8666506  22.2097850  17.7449358  77.6910210
  23.7200737   6.8321449  72.5065374  24.3596292   6.2525898  72.0926332
  22.8756809   6.5428156  72.1608210  63.5483265  31.3640475  57.5047445
  64.1153860  31.2817693  56.7379904  64.0123940  31.9705129  58.0818701
  63.4019232  11.3744712  39.7387218  63.6555529  11.8065846  38.9231348
  62.4780178  11.1559522  39.6167326  61.9047499  28.5702085  83.6350346
  62.5388813  28.9340186  84.2529011  62.4302387  28.3075547  82.8793144
  43.9009809  26.1362338  68.5816240  43.7298918  26.8512750  69.1945457
  43.3265543  26.3161230  67.8373718  51.5765810   6.6213685  61.8231344
  52.3680878   6.9538313  61.3997984  50.8933067   6.7128938  61.1590624
 104.7262669  88.0302189  19.9304008 104.9643708  88.6519455  20.6181431
 104.6788789  87.1851371  20.3774166  17.8092062  27.8938913  40.2557945
  17.1729243  27.1919012  40.1194668  17.4558437  28.3984852  40.9884262
  47.2365856  10.8245122  75.6161833  46.7275953  11.3402998  76.2415791
  46.5869331  10.4859078  75.0001240  26.1058331   6.1123407  24.9815750
  26.9992709   6.3110369  25.2617860  26.0565639   5.1565552  24.9982405
  23.1125355  19.5322931  77.8072453  22.3765731  20.1419759  77.7536106
  23.5229445  19.7258198  78.6500645  33.8625169  18.4472728  89.1677475
  34.7026920  17.9887819  89.1789722  33.2719660  17.8537798  88.7038040
  30.6106210  16.7016578  54.6785069  30.4136848  16.5288687  55.5991507
  30.8248711  15.8428454  54.3141317  47.3022318  26.3398647  62.8075409
  46.6798735  26.6089416  63.4831905  46.7667055  25.8898067  62.1541739
  71.9980240  23.8741899  39.0082121  72.6854277  23.3522487  39.4220757
  72.4133205  24.7175908  38.8281202 107.7620574  86.5107232  80.6630421
 107.5665542  87.4273592  80.4686451 108.2166358  86.5361315  81.5050316
  58.8149977  19.7544599  55.3365517  59.1849947  19.1294360  55.9599972
  59.5069504  19.8839200  54.6879578  43.2799435  40.7673979  60.5326605
  42.6520824  41.3959455  60.8889675  43.2876301  40.0506926  61.1670923
  51.5486717  60.2049446  31.1406851  51.6685343  60.5802584  32.0130420
  50.6768894  60.4954576  30.8726740 101.2644549 105.6224644  66.0503340
 101.9295355 104.9797253  65.8037901 100.5246874 105.0968694  66.3548422
  58.1539583  35.4097486  59.7912979  57.9663324  35.7024288  60.6831312
  58.3276033  34.4724655  59.8783588  69.9528646  21.3359499  61.3674498
  70.1865578  22.2022462  61.7008495  70.6577349  20.7641530  61.6714764
  43.7549019  13.1296170  90.4363918  44.5868683  13.2037199  89.9688721
  43.7461233  13.8803577  91.0301399  34.8788929  40.1706457  64.8618507
  35.5156302  39.4574308  64.8157740  34.8982382  40.4502296  65.7771063
  62.5942755  11.6620779  51.2027168  62.1241331  10.8857977  51.5069962
  63.5171938  11.4572453  51.3526917  69.2126179  23.5178638  43.5763550
  69.1083527  23.0283761  42.7604103  68.3226109  23.6081386  43.9169025
  36.0746312  25.0830054  73.2226324  36.0239410  25.0842190  74.1784906
  35.1624250  25.0504351  72.9344511  28.8666916  18.6177731  81.8901730
  29.3216300  19.1168046  82.5685787  28.7777448  19.2311203  81.1607075
  36.2595462  94.2937225  14.1245782  36.7019891  94.0151971  14.9263883
  36.3870620  95.2420109  14.0976942  40.7155991  37.1730852  48.6553049
  41.4985609  36.7026091  48.9414072  40.7776642  37.1828485  47.7001715
  59.3701315  24.8259449  39.2791963  60.1819468  24.4446421  39.6135473
  59.5430517  24.9811172  38.3506203  93.6593199  53.5175509   2.8798771
  92.9416896  53.0600218   3.3179474  94.3906594  53.4602896   3.4947777
  52.7156067  43.8132763  59.2777967  53.0957985  43.7170124  58.4046316
  52.0915031  44.5336103  59.1891956  32.5454140  40.6368160  81.2022114
  32.5382829  40.5311728  82.1535397  31.6811013  40.9916449  80.9941387
  52.4443722  41.2003756  53.0842972  53.1659079  41.7646360  53.3621979
  52.8272057  40.6348658  52.4135733  82.9541302  19.0387177  59.6710968
  82.1949291  18.8397336  60.2190447  83.1515884  19.9561942  59.8594570
  63.4388733  20.2506661  59.1945696  64.0836906  19.6628475  59.5881605
  63.6678839  21.1170864  59.5308781  27.3458123  35.0587964  47.1569204
  26.6400051  35.0275397  46.5110970  26.9331908  34.7850990  47.9761076
  48.6763334  46.4399385  61.0489178  48.7872124  45.7388783  61.6911411
  48.2109928  46.0269737  60.3214884  51.1827040  37.3073244  53.5093451
  50.3253746  37.1111369  53.8871479  51.5470552  36.4511538  53.2847261
  56.3008547  44.9271584  27.5332689  55.8832026  45.0252724  28.3889389
  56.5012264  45.8225155  27.2604752  52.7564144  19.8150802  61.2712717
  52.9256153  20.7571959  61.2664700  53.5112524  19.4338799  60.8227825
  46.7299080  36.7136598  55.8953381  47.1898222  37.5040126  56.1782742
  45.9408760  36.6889358  56.4366722  64.2082525  65.0021111   5.5065060
  63.6375285  65.6066977   5.0321865  64.2416931  64.2211019   4.9541092
  28.3375359  48.7928152  79.7978210  28.1452489  48.6128092  78.8775730
  28.0328298  49.6897650  79.9351692  60.3379726  17.9536164  75.5263758
  60.9012699  17.2445726  75.8365154  59.6912479  17.5197387  74.9698448
  47.7858019  37.0816469  36.7105794  47.4762726  37.9620171  36.4975691
  47.1388865  36.4979172  36.3143611  58.5535240  18.9905536  28.8711524
  58.5623932  19.8779678  29.2298293  59.0022612  18.4612393  29.5304632
  34.4275928  56.1482573  67.8072834  34.7140932  57.0588827  67.7372360
  33.9490294  55.9845448  66.9946289  50.8814716  45.7172298  59.2565489
  51.2447119  46.5998077  59.3296719  49.9353981  45.8514881  59.2004299
  25.3780555 104.3906081  56.8633032  25.0516128 103.5463384  56.5520525
  25.3898858 104.3061061  57.8166914  30.0083208  25.1437640  39.6054959
  29.9873757  25.8736491  40.2244139  30.9276295  25.0743556  39.3480396
  14.6443366  78.1467515  56.1946774  14.1194247  77.3770457  55.9750128
  14.6521854  78.6683017  55.3920841  12.2681928  45.1074791  59.0052557
  12.7954257  45.8358431  59.3334961  12.1360111  44.5446157  59.7681093
  41.1249876  25.7074618  62.7044058  41.5034962  25.7423997  61.8259192
  40.9009981  26.6162086  62.9050112  19.1859925  24.5952010  70.4663372
  19.4421482  25.1192379  71.2252855  20.0044823  24.2089343  70.1547194
  53.5082150  30.5920362  38.9460516  53.7421083  31.1927938  39.6535945
  54.1607618  29.8937583  38.9992046  56.2438440  25.4525208  51.0408974
  55.4506826  25.9031343  51.3308573  56.9097137  26.1391997  51.0045290
  80.5170059  10.7108128  83.3993530  80.0457764  10.7952011  84.2282391
  80.4522324  11.5772629  82.9977322  34.3538570  64.1572618  73.3756351
  34.9282622  63.4288406  73.6116266  34.8090506  64.9352837  73.6976767
  98.4893151  87.9510039  57.8054142  99.3658038  88.1691116  57.4885082
  97.8975745  88.3659357  57.1777964  64.6873713  10.4058480  41.9844198
  64.3396521  10.6085801  41.1159563  64.4885063  11.1813700  42.5090647
  24.1983962  46.6139889  76.5861988  24.2873359  46.0114241  75.8477974
  24.9655271  47.1831560  76.5246201  28.1277633  35.6546164  38.8822722
  28.2502222  35.3076291  37.9986238  28.5192561  36.5276098  38.8531733
  86.3840961  21.3597512  63.1711769  85.6094933  21.2571764  63.7240744
  87.0518684  21.7147636  63.7579250  42.1921921  23.1210303  50.6168938
  41.5598822  23.7520409  50.2730274  41.7515612  22.2746944  50.5407858
  23.9225364   8.3904773  67.7173519  22.9957128   8.2189882  67.8841448
  24.1033745   7.9449856  66.8896627  44.7619534  25.0847292  73.1556988
  44.7340298  24.2330742  72.7196550  43.9642525  25.5279732  72.8668451
  25.1194524  99.5979500  85.1244164  24.6197604 100.0732201  84.4605923
  25.1985502 100.2149176  85.8519650  65.3245354  33.8487482  79.1145039
  64.9528074  33.7582064  78.2370901  64.7017622  33.3995438  79.6859932
  42.8140926  20.1141667  67.3727274  42.6976347  21.0619235  67.3061943
  43.3888292  19.8914790  66.6403961  42.0551157  33.6729264  47.5506735
  42.1592426  34.1628456  48.3663750  41.4174557  34.1789269  47.0471001
  49.3487358  19.1632593  35.7326674  50.0870228  19.4517875  35.1960874
  48.6981344  18.8577831  35.1005030  40.5058289  33.0235505  51.3916159
  40.1395273  32.8861165  52.2652102  39.7980213  32.7816796  50.7943439
  48.6430883   0.9527045  53.7909174  48.2430267   1.0067423  54.6588278
  48.0963850   1.5128030  53.2398891  16.2703704  99.4398480  38.7871432
  15.5169915 100.0250822  38.7087083  16.6744851  99.6800774  39.6209383
  66.0316706  30.5719876  24.3371177  65.3097391  30.1676965  24.8183656
  65.6267071  30.9128356  23.5395837  40.6991673  28.2685208  75.1657248
  41.5111446  28.1168389  74.6820736  40.9300137  28.1017876  76.0795832
  60.3621149  43.9559603  34.9777699  61.0056353  43.2658339  35.1385188
  59.5286274  43.4922266  34.8973131  12.5875186  70.6600767  79.6068096
  11.7190456  70.9719807  79.3524361  13.1944083  71.2205106  79.1232538
  42.3297977   8.9304340  73.7242222  43.0310106   9.1630143  74.3328571
  41.5432024   8.8923699  74.2683315  33.5421348  33.2929111  35.1221895
  32.6847577  33.0856013  35.4938841  33.5976815  34.2474961  35.1659322
  32.4506879  28.8288975  57.6275778  32.8870177  29.2783260  56.9037914
  32.1257019  28.0148530  57.2429371  45.7272196   8.5523432  51.6385889
  46.4991522   9.1120052  51.7230082  45.3339863   8.5534513  52.5112867
  53.3815622  26.5933371  55.8069706  53.7072277  27.3144984  55.2683592
  54.1253090  25.9954453  55.8817863  55.2822924   7.1526468  73.6188173
  55.5717945   7.5718349  74.4291878  55.0202990   6.2714243  73.8853455
  77.5076675  20.8893800  38.4903812  78.2718754  21.3813281  38.7907171
  77.1776295  20.4556489  39.2772651  51.1701870  46.2849379  55.3762865
  51.7605162  45.9359503  56.0440826  50.5662060  46.8475771  55.8609247
  43.5916185  32.3772788  55.1420689  43.4574270  31.8001962  54.3902683
  43.8092327  31.7856050  55.8623457  42.8898001  25.9288144  22.7659464
  42.1634293  26.1285830  22.1754265  43.6750460  26.1172009  22.2520137
  19.6586608 101.0659313  58.5712624  19.7222852 101.4384264  59.4507122
  19.4200610 101.8067574  58.0140543 103.6680814  88.1900137  58.0592489
 103.8623186  89.1017729  58.2765055 103.6296579  87.7450210  58.9058542
  38.6594486  31.8997002  68.3443594  37.9715633  32.5559330  68.4557343
  39.3061090  32.1140718  69.0167475  49.2647791  38.5841155  61.4623213
  48.8338232  37.7970028  61.1292171  50.0869703  38.2670450  61.8360901
  35.1893282  21.5852571  71.7682409  34.5099735  21.8264580  71.1385345
  35.0981736  20.6376100  71.8676758  48.4167099  29.0285802  54.3824959
  47.8307104  29.7063708  54.0456915  48.5962057  29.2937636  55.2845430
  31.3749886   7.0497501  72.1046543  31.3741875   6.6298199  71.2444878
  32.1869278   7.5563556  72.1231079  39.6909332 100.1880198  76.6820049
  39.1710471 100.8513355  77.1358347  40.1738357 100.6768241  76.0155916
  50.9957695  22.4344993  91.4243126  50.9052515  23.3786249  91.2952042
  50.4505205  22.0458555  90.7402897  25.3714418  98.7988329  88.3392239
  25.3464603  99.7459614  88.2030010  24.4517707  98.5335344  88.3463192
  61.2282419  29.8625183  57.4626541  61.7129612  30.6686640  57.6398706
  61.4586020  29.6377921  56.5611744  47.8968906   8.5404485  28.7003541
  47.6541853   9.4042546  29.0337706  47.0890093   8.1944442  28.3210826
  57.9417562   4.5150280  38.8581753  57.4534273   5.0846940  39.4525194
  57.2742462   4.1391397  38.2842708  68.2188845   3.5113189  64.1155672
  68.3240557   2.7146190  63.5955286  69.0233755   3.5688081  64.6310472
  47.7635336  23.5207009  63.7216473  47.8026581  23.0198717  62.9068661
  47.7488470  24.4354272  63.4400558 106.2209655  91.1769603   8.0807304
 105.3754950  91.0009454   8.4935665 106.6112042  90.3119014   7.9557705
  61.6175175  23.3518720  40.3926086  61.7271805  22.5088072  39.9527812
  62.1097803  23.2621336  41.2086058  78.0018234   9.1560900  60.2770758
  78.3832121   8.3363265  60.5913401  78.6654806   9.8183990  60.4697990
  93.8867744 102.5235992  38.1018615  94.1462430 101.9734657  38.8409567
  92.9526898 102.6824414  38.2378244  50.3051329  35.1025510  61.0903645
  51.1378670  35.1952362  60.6275558  49.6822977  34.8401761  60.4125214
  60.2226067  10.2205539  62.5420332  59.3636465   9.8671007  62.3107576
  60.4665136  10.7658362  61.7940950  35.4603577  27.3834610  45.0802946
  35.3987503  27.8772497  45.8979797  35.2219987  28.0143094  44.4009972
  56.8842316  32.2010851  59.9965096  56.3722229  31.9393063  60.7617235
  57.3940372  31.4227462  59.7717524  66.2673140  16.1397946  51.2353230
  65.3448248  16.0485530  51.4739037  66.5297508  16.9803560  51.6105747
  78.8017654  15.1995122  14.1655672  79.4080877  14.4626641  14.2408216
  78.2882690  15.1705635  14.9728549  40.7792139  44.6966696  78.8092756
  40.2035379  44.7449398  79.5724916  40.1929998  44.4972801  78.0793285
  33.5093117  28.3467078  64.1199112  34.1537833  28.5058284  64.8095274
  32.6695013  28.3201170  64.5784378  50.0541925  93.5706299  88.5396004
  50.1370286  93.3589488  89.4694233  50.4865693  92.8450125  88.0893230
  32.0278931  21.3183284  45.6158733  32.2747684  20.8874154  46.4341640
  31.5428734  20.6508994  45.1305628  41.1408854   3.5541981  30.5210924
  40.8730936   3.0539408  29.7502112  40.7062721   4.4010207  30.4199362
   8.9386970   8.3736169  40.2317429   8.3820719   8.3287525  39.4543219
   8.9979482   7.4681544  40.5364752  45.0426579  22.2681212  11.3282347
  45.1767635  23.0477238  11.8671858  44.1469622  21.9929361  11.5237832
 103.9737984 104.2377592  40.1386023 103.5944005 103.4696150  40.5655003
 103.8624617 104.9445672  40.7744169  50.7865381  92.7702290  67.8404427
  50.8882093  92.6465660  66.8967247  50.9360360  93.7057858  67.9768848
  31.7701840  35.0603700  62.3103714  31.1969709  34.3277454  62.0847130
  31.1754942  35.7425809  62.6220846  24.6814847   5.0326204  86.2795544
  23.8860607   5.2047014  85.7756519  24.5430446   4.1636398  86.6563034
  50.7839060  19.3194568  68.6361933  51.6091442  19.5427954  68.2056904
  50.5897903  18.4315205  68.3359957  26.5712357  23.9211011  75.2015257
  27.0995522  23.8370228  75.9952784  25.7053399  23.6015463  75.4551792
  56.5963888  37.4590516  50.3207254  57.1307421  37.7834773  51.0455990
  56.4063263  36.5497446  50.5515242   4.5789718  88.1206327  68.6039829
   4.7923326  88.2524758  69.5277405   3.6294603  88.2330698  68.5590601
  30.7489085  35.1339626  69.4595337  30.6555200  35.6759429  68.6760998
  31.6674304  34.8646331  69.4563532  12.5468051  30.1687431  58.0522490
  13.4826899  30.0553966  58.2180977  12.1428347  30.1239038  58.9188719
  55.5408907  41.4761496  37.9542041  56.2944221  40.8925247  38.0425525
  55.9022379  42.3540354  38.0765581  69.6018839  29.4564080  38.6349702
  70.4472923  29.2817163  39.0484834  69.5633841  28.8438272  37.9004669
  22.5604343 101.2061631  58.1576443  22.4896001 100.8340126  59.0366840
  21.6542720 101.3035848  57.8650570  62.3656797  27.6539350  40.5636263
  62.8034830  27.2999525  41.3377428  61.8535757  28.3918357  40.8945131
  49.6743965  40.5313587  74.1712475  48.7997580  40.9015846  74.0521717
  50.2555132  41.2916899  74.1921329  63.2961178  16.6694796  51.4331961
  62.4326563  17.0741725  51.3502264  63.1192493  15.7984471  51.7885160
  41.4922428   0.4755151  71.9028950  40.7008696   0.8888233  72.2480583
  41.7820406   1.0603914  71.2027740  40.7615471  26.5757895  44.5721912
  39.9368191  26.3708830  45.0127220  41.0147333  27.4296665  44.9229383
  36.9982553  13.7434375  83.8355923  36.7652798  14.1906762  84.6491814
  36.3523579  14.0511453  83.1996918  34.5459318  38.2782507  43.1841421
  35.1912189  37.9997778  42.5343037  33.8885617  37.5824833  43.1823254
  27.0824146  43.6858797  66.7851925  27.6049948  44.3109989  66.2828302
  27.2545457  43.9101505  67.6996899  51.3387060  43.4963226  50.9867334
  51.6646481  43.2575560  51.8544817  51.0774899  42.6644659  50.5917549
  12.4823903  94.7184294  53.8092375  12.7507209  94.8213213  54.7222757
  11.6268110  95.1449758  53.7615156  59.9527216   9.1052336  84.4643974
  60.6158495   8.4517610  84.2419815  60.2071905   9.4189364  85.3321934
  25.8836412 102.2359800  40.3353071  26.5771579 102.3163005  39.6804667
  25.0897788 102.5146210  39.8788357  61.7399120  26.9511175  50.0537729
  62.2112656  26.8205380  49.2309713  61.9136000  27.8630304  50.2871847
  57.1190548  36.1357522  57.4366903  57.5316572  35.9281278  58.2750702
  56.7250538  35.3108668  57.1528530  31.1595368  20.3211522  61.9932365
  31.6284704  20.2475572  61.1620235  30.9516835  21.2524080  62.0693350
  63.3071947  34.9959803  57.2115421  62.6624393  35.2558398  57.8695679
  63.9956331  34.5569372  57.7110720  61.6523600  26.7022443  76.9513226
  60.8494139  26.3368964  77.3228502  62.1642923  25.9373498  76.6884613
  55.4291916  34.2912865  35.8670449  55.5803871  33.3943987  36.1653161
  55.5483723  34.8276567  36.6508389  47.8956223   9.6620512  60.0596285
  48.2712984  10.5234575  60.2414989  48.3427382   9.0726650  60.6670332
  28.5034990  60.0919867  77.0410681  29.3412948  59.6405745  76.9383192
  28.6950970  61.0046101  76.8250942  51.6535568  44.3787479  53.4920120
  52.4607944  44.1080284  53.9294004  51.5322399  45.2907276  53.7562180
  56.4051533  23.0962539  43.2991791  56.8348455  22.7089739  42.5365448
  55.5133247  22.7495503  43.2733727  36.8260908  29.0188932  76.7656326
  36.0275984  28.8637233  77.2701788  36.5353942  29.5246434  76.0067225
 103.8980529  29.5086288  44.0331364 103.8793352  28.9408016  43.2627773
 104.2960700  30.3215909  43.7218380  48.6512566  36.7012048  53.8324547
  47.9629803  36.5442061  54.4788742  48.2859993  37.3679256  53.2508135
  57.4776363  30.2339435  47.1153879  56.6370726  29.8883200  47.4157715
  58.1297588  29.7591376  47.6306820  42.8312254  22.7978611  59.6370459
  42.6665306  22.4425578  58.7636232  43.6478138  23.2888699  59.5458174
  49.3755341  26.2870860  65.6778002  48.8150120  25.5392528  65.8846569
  49.9566031  25.9672284  64.9876642  70.1071215  17.4697101  53.0089855
  70.0406218  16.5437591  52.7756929  69.2820358  17.8518939  52.7099895
  64.5544434  28.2095480  56.4876127  64.3403816  29.1191649  56.2802267
  65.0116777  28.2565331  57.3272276  29.7130060  18.6966276  50.2902365
  28.9261413  19.2366338  50.2162933  29.8131108  18.5466647  51.2303019
  56.6836166  37.6458883  39.8581219  56.9365454  38.5646176  39.9486446
  57.1055412  37.3600245  39.0478802  31.8563128   1.3892530  41.3959026
  31.0212588   1.5413029  41.8383932  31.7214298   0.5811452  40.9009266
  70.3318596  25.3644371  47.1548319  70.0233412  24.4847012  46.9377804
  70.8591843  25.6263137  46.4001274  59.7242308  57.1837616  31.6990590
  60.0400591  57.9572535  32.1661758  60.3584242  57.0542812  30.9938860
  74.5215464  51.6244364  49.0915203  74.4406080  52.4352503  49.5937777
  74.2747641  50.9351110  49.7080946  99.4400024  53.1200314  64.5900726
  98.9395046  52.8846216  63.8088417  98.9188862  52.7831650  65.3188992
  90.1464558  64.8510838  56.5741110  90.8187008  64.3785095  56.0832071
  89.9161434  65.5915356  56.0129309  75.6145859  47.1895361  58.7149668
  74.8094893  47.5871372  58.3833551  76.1106110  47.9221010  59.0804052
  69.9806976  51.0753345  51.4085960  70.4480886  51.4719582  50.6734276
  70.6724977  50.7652760  51.9929838  80.9670925  80.2590179  34.4212294
  81.0950089  80.9568214  33.7786269  81.3103390  79.4741869  33.9940763
  64.6042252  78.2011080  38.8695526  63.9021778  77.6657677  38.4997225
  65.0153637  77.6374531  39.5249057  52.6161098  84.9234200  50.4981947
  51.6760206  85.0878429  50.5719233  52.8778172  85.3831005  49.7004318
  71.3016272  49.0863514  55.4854822  71.9399548  49.7813988  55.3252363
  70.5554581  49.5337915  55.8845615  80.5441189  52.9477787  38.5040879
  80.6414795  52.0988131  38.0728030  81.3028145  53.4531355  38.2121563
  91.9327927  73.6501789  21.7373395  91.3204384  74.3558788  21.9453049
  91.5298748  73.1932831  20.9990025  56.0780573  91.1999130  63.9609194
  55.3264999  90.9796047  63.4105968  55.7457542  91.1373043  64.8564005
 106.8734646  46.8133640  42.2761011 106.2091827  47.3555183  41.8506193
 107.7025032  47.1144915  41.9042921  70.4276276  53.0342484  46.1588764
  71.1490059  52.4051571  46.1687708  69.8313951  52.7044058  45.4866123
  74.0167761  49.7269440  51.0116434  74.7911882  49.2146349  50.7791471
  73.4488535  49.1078138  51.4703131  89.6837902  54.8043489  38.9247489
  90.4868793  54.7683859  39.4443488  89.8037529  55.5606747  38.3504558
  76.9828415  54.6387959  54.1413641  76.7180681  54.3031597  54.9977970
  77.3478460  55.5042601  54.3256903  76.5119505  52.5475693  52.2155905
  76.8215084  53.0512094  52.9684210  77.3112106  52.2724771  51.7664433
  18.5210565  33.0219269  64.8631716  17.6959375  32.5419450  64.7923326
  18.7157586  33.2970881  63.9672852  61.1069107  65.7107115  52.3825216
  60.4853916  64.9880981  52.4706888  60.5785465  66.4982510  52.5123215
  99.1025352  38.0451894  79.8702431  98.7067890  37.4880743  79.1999912
  99.1700745  38.9059305  79.4569683  84.3834114  73.7393475  43.9464712
  84.5050430  73.6090422  44.8869276  83.6539078  73.1635666  43.7172699
 107.2639561  90.4697704  18.8247097 106.6372967  89.8088932  18.5301435
 106.7531490  91.2775707  18.8773596  24.6038489  29.8692029  12.7522373
  23.9223532  29.3716328  12.3003387  25.3288417  29.2513554  12.8465080
 106.9466019  78.3966684  61.4411879 106.4495945  79.1030169  61.8538523
 107.8591537  78.6793709  61.5007877  55.2517700  65.2079916  57.8684664
  54.4348431  64.9614525  57.4347878  55.4086828  64.5063686  58.5003996
  76.8439341  83.5542202  57.2262001  75.8918190  83.4568024  57.2409391
  77.1137953  83.1456089  56.4037371  50.1732302  94.1632366  28.3133626
  50.9603357  94.7065830  28.3516741  49.9269199  94.1633320  27.3883963
  83.9688873  90.1926422  59.3382502  84.3692684  89.3362522  59.1882038
  84.1195297  90.6733799  58.5243464  95.4851341  69.8553038  44.0806961
  94.5568657  69.8378897  43.8477755  95.4915524  69.9734211  45.0305605
  60.6496286  91.0244656  22.0348573  60.2053881  90.1899433  21.8850279
  61.3264084  91.0602760  21.3589025 101.7831612  80.7789612  56.0210419
 102.4024296  80.9263706  55.3061962 102.1984386  80.1082611  56.5632010
  79.1922379  65.2379560  57.6798916  79.4164133  66.0671949  58.1021976
  78.2517338  65.3005886  57.5132751  77.7851152  88.9153099  56.2361431
  77.2805548  89.6788692  55.9557152  78.5906553  88.9581299  55.7208776
  66.3194990  66.9295454  74.0494776  65.5637693  67.4886799  74.2296886
  66.5682173  67.1453619  73.1507015  75.3046656  55.0068808  49.3791914
  75.7025719  55.5404949  50.0670528  75.9839058  54.9352074  48.7085772
  90.3560925  61.4583158  48.3072853  89.9705982  62.2325134  47.8971148
  91.1149597  61.7931604  48.7850332  63.6857652   4.5531203  74.1197991
  63.9499521   4.9823977  74.9335313  64.4777726   4.1108729  73.8142347
  72.1645832  84.3946552  62.9400921  72.6910019  83.7592506  63.4252501
  71.3086557  83.9761353  62.8481293  95.7530499  55.9520006  44.3055487
  95.3783894  55.2376127  43.7902641  95.0944328  56.1350346  44.9755859
  84.5437336  98.7267876  41.2285471  84.6007061  99.6689701  41.0695219
  85.0056267  98.5952854  42.0565557 108.4150219  52.0009899  58.4236383
 108.4001350  51.9739580  57.4669361 107.4949169  52.0802402  58.6753511
  94.7499943  86.7448044  49.5415640  94.4393253  86.7719555  50.4465389
  94.0887928  86.2320900  49.0766239  50.1650238  98.2802773  47.8420925
  49.8663330  99.0394878  48.3427048  51.0841227  98.4664440  47.6501703
  92.7727318  74.9658680  15.9278679  92.5463200  75.1297426  15.0123823
  93.2947731  75.7257891  16.1852109   2.7294114  55.1505375   7.9501635
   3.3473542  54.7698832   8.5742480   2.6822332  54.5110559   7.2394812
  95.1677513  71.3090897  61.2746620  94.8555565  70.4045582  61.2503958
  96.1178780  71.2370586  61.1835957   2.5597814  92.0922947  55.9530544
   2.4331525  92.1533871  56.8998718   2.7027753  91.1599541  55.7902002
 100.4469681  51.7995548  79.3797064 101.3636589  51.6015816  79.1880798
 100.4479694  52.0748234  80.2964687  70.3504944  91.4550972  56.8115807
  70.6652212  90.9010792  56.0972738  70.6436872  92.3359776  56.5784979
  59.4160271  83.1767368  42.6365185  59.6269369  83.2307625  41.7044115
  59.1776514  82.2601509  42.7754068  72.2577381  72.1925354  58.3128071
  71.4469099  72.4020624  57.8492546  72.9505157  72.3744678  57.6778364
  95.8487034 104.2598820  69.7534513  95.4954910 103.4104347  69.4890404
  96.7966175 104.1287613  69.7754908  78.1564426  57.5272465  39.3433070
  78.6676884  56.7246675  39.4469070  77.7056551  57.6338720  40.1809549
  19.0135197  16.2712592  66.6800642  19.7850136  16.0949344  67.2185135
  18.9886860  17.2249621  66.6021776  74.2910862  75.8196163  13.2960463
  75.2195835  76.0217381  13.4112489  74.2806244  74.9205971  12.9675949
  94.7431946  49.7561932  60.0279713  95.4306126  50.1906729  59.5230818
  94.5189476  48.9824915  59.5109272  60.8270121  70.6201315  74.0881300
  60.3238297  71.1464882  73.4668493  60.6043196  70.9833956  74.9452639
  79.8206568  95.9798717  64.0901136  79.3983221  95.1223183  64.1397715
  80.7569885  95.7893848  64.1469288 105.4562283  54.6089077  45.6499338
 106.3713932  54.7310686  45.3973866 105.1533318  55.4861212  45.8844233
  73.3244514  84.4010830  40.7588911  73.5596514  83.7435532  41.4135408
  74.1485643  84.8446751  40.5581427  58.2724905  63.9211702  55.1757574
  59.0904760  64.3614388  55.4065990  57.8320408  63.7794113  56.0136986
   3.9797357  61.4616442  65.7656097   3.3887628  60.9048462  66.2725210
   4.2096379  60.9334326  65.0011683  57.1424818  88.3000851  51.5180874
  57.2683907  88.9179134  52.2382689  56.3755751  88.6306000  51.0502768
  89.8648071 100.5528164  41.0406923  90.0799274 101.4372730  41.3368320
  90.7053947 100.1764679  40.7799292  15.1412968  31.5921134  42.3111153
  15.9346107  31.1097259  42.5438690  14.4489006  30.9312076  42.3163319
   4.3093637  23.7858534  74.4527531   4.2768434  23.3560181  75.3073978
   4.5929292  24.6796823  74.6448326  66.9973707  65.3252411  64.9313736
  67.8270626  65.3032112  65.4081917  67.0115948  66.1606884  64.4644070
  99.6288586  74.5699310  71.1397076  99.7103977  75.4178143  70.7030392
 100.1647472  74.6541643  71.9283485  76.9586897  77.7560282  69.6446800
  77.8279543  77.3558569  69.6664381  77.0784950  78.5618591  69.1421700
  98.8729572  96.4870834  38.8894057  98.0524921  95.9961128  38.8445044
  98.6373329  97.3729801  38.6139178  35.1494602   4.5881385  52.0875311
  34.8753933   3.7071055  52.3422623  36.0427956   4.4764632  51.7624140
  91.6434288  80.4046631  58.0116177  90.6912231  80.4334068  58.1050110
  91.7924500  79.8474836  57.2476959  89.7355556  82.6535034  69.0575266
  89.4421864  83.5421658  69.2586184  88.9269352  82.1573925  68.9301538
  84.5925236  50.1865292  20.3434110  83.7244797  50.2532482  20.7412529
  84.4239998  50.1759195  19.4012225  48.8074497  13.5168475  46.6804743
  48.4705261  14.1301078  46.0273123  49.4884018  13.0265540  46.2198830
  56.4931011  93.8176441  57.4255323  57.2062063  93.2340813  57.1663761
  56.3502884  94.3755341  56.6609430  64.8821831  85.0548172  59.2102766
  64.3190050  85.1639843  58.4440279  65.6722260  84.6356964  58.8690948
  88.9103222  58.9871216  72.7358389  89.3888378  58.1788492  72.5515747
  88.1839180  58.7130785  73.2957268  78.2633638  59.7428370  59.7850513
  79.0997314  59.2797089  59.7378635  77.6559639  59.1031075  60.1565981
 111.9563770  39.5834184  64.5320082 111.1932182  39.3415856  64.0072823
 112.0411205  38.8762951  65.1715612  86.3251019  64.8041344  35.7289338
  85.4010010  65.0535393  35.7207060  86.3173676  63.8527679  35.6237054
  35.3932953  90.1476097  72.9021311  35.9816742  90.8536625  72.6346731
  35.1731658  89.6974182  72.0865917  62.5232553  76.7803049  37.9845738
  62.1822691  76.7021179  38.8755536  62.0995522  76.0699701  37.5027704
  60.9280014  72.2044230  64.3422937  61.7321539  71.7782354  64.6388245
  61.1232710  73.1405210  64.3849945  80.8342838  40.1603794  58.4554291
  80.5171967  39.3809509  57.9991674  80.4302025  40.1117659  59.3217850
  50.8044052  85.7962036  59.2865038  51.2549305  85.6310081  58.4582758
  51.2992477  85.2927113  59.9329185  80.0382519  47.8162670  47.9212093
  79.9296713  48.6723614  48.3353853  79.1542864  47.5666571  47.6518822
  46.9574217   4.3638938  15.4012680  47.2057299   3.8524668  16.1713409
  46.9347720   3.7264769  14.6875286 100.3937817  37.0954299  33.3105636
 100.6434059  37.4780369  32.4694133 100.9194469  37.5696158  33.9548087
  17.7802899  86.7899895  23.7778044  17.6289323  86.8360043  24.7218418
  18.7308171  86.7179871  23.6908627 106.2755871  64.1079044  42.6733065
 105.6093884  64.6903467  43.0382299 106.0419559  64.0263939  41.7486429
  66.2918377  57.3744869  38.8335538  65.5346298  57.5544357  39.3907690
  67.0197916  57.2676420  39.4458413 100.1581287  49.9505329  63.0888176
 100.3466511  49.2264366  62.4918461  99.6381950  50.5618763  62.5671339
  85.9793091  60.4190683  67.7851772  86.8134689  60.3861189  67.3168659
  86.0117626  59.6737909  68.3849621  84.7871780 104.0227413  46.9593668
  85.1339722 104.3017578  47.8067827  85.1592731 104.6429157  46.3323498
  61.4444876  31.5449572  87.2073555  61.1136436  31.4427948  86.3149738
  62.3551178  31.8178225  87.0954132  68.0166340  51.7268658  79.3460560
  67.6245260  51.0666847  79.9175882  67.7489328  51.4693975  78.4638548
  73.1901741 102.4293613  52.0350695  73.1631041 102.7800274  51.1448288
  73.4539747 101.5158653  51.9247532  61.8973212  10.0963776  11.0096073
  61.5316538  10.9003918  10.6407166  61.1495928   9.6570342  11.4147186
  70.3818417 102.3182297  49.1189671  70.6396103 101.7446995  49.8406649
  69.4818544 102.5715828  49.3240881  29.3049960   5.7807677  12.0200062
  29.3830638   5.6334012  11.0774422  30.2029662   5.9348052  12.3135281
  84.3868160  88.2523537  82.7643394  83.8004017  88.1777096  83.5171986
  83.8219261  88.1069660  82.0054054  71.0690308  74.3596077  45.6991720
  70.4717350  73.8563442  46.2525177  70.8154917  74.1324234  44.8045588
  70.5867147  88.8755417  53.0833340  70.9787703  88.9353943  53.9545059
  71.2245274  89.2930603  52.5044489  34.3590903  60.8189106  58.1016827
  35.2409744  61.0668755  58.3792162  34.4158316  59.8778439  57.9361248
  84.2677402  79.4076204  68.8589382  83.5758972  79.9735165  69.2015076
  83.8234329  78.8412189  68.2280540  72.9287577  55.2846098  51.3274384
  73.6705208  54.9836540  50.8026123  73.2862902  55.3901720  52.2090578
  81.8411922  62.6505232  75.5848932  81.8855381  62.6455259  76.5410519
  82.3684788  63.4058046  75.3246117  90.0821495  53.0981112  35.8369398
  89.8892498  54.0251112  35.6966186  90.4760456  53.0647230  36.7086959
  96.8463135  90.2391624  64.0351772  96.6263485  89.3099880  64.1021013
  96.6096687  90.6033611  64.8881674  90.7848263  55.7279730  46.5492964
  90.2236652  55.0287914  46.2139320  90.2254200  56.2144136  47.1548319
  73.7923622  68.4200954  51.5777969  74.1865301  68.4424973  52.4497843
  73.8687468  69.3187952  51.2572622   1.8724778  69.9772358  75.5611229
   1.6239122  70.4782915  74.7843409   2.8293660  70.0011873  75.5655193
 107.4815464  50.4913616  52.7324343 108.4190083  50.5235481  52.9231501
 107.4219513  50.0166082  51.9034052  60.5814314  76.3937759  45.6256008
  60.6877470  76.2296009  44.6885967  61.1292887  77.1594620  45.7982779
  56.5747499  71.1075783  76.3612652  56.4042425  71.3082170  75.4409933
  55.7946825  70.6350708  76.6519022  82.5259495  64.8841286  31.6000772
  82.2502708  65.7931185  31.4819002  83.1987095  64.9243164  32.2797894
   3.9683107  69.6955919  27.2904420   3.6090615  70.5825472  27.3123932
   3.2213834  69.1297436  27.4857688  71.8082333 104.4365501  46.0372162
  71.0080862 103.9961147  46.3235807  71.7400455 104.4603825  45.0827456
  76.0705853  64.2618132  63.6753082  76.9393492  63.8808632  63.8032103
  75.9745026  64.8860168  64.3945885  76.6285992  64.7395277  49.3425179
  76.7504454  65.3357363  48.6036539  77.3092699  64.0760612  49.2296839
 102.5994301 104.3076611  48.1398773 103.3055878 104.3218040  47.4938393
 101.7990589 104.3923378  47.6217365  90.6634140  69.9073219  57.2532129
  89.8972988  69.3540335  57.1009731  90.3088570  70.7938004  57.3216152
  68.8712454  72.8944921  70.5269432  69.0185928  73.8355780  70.4327583
  69.1256952  72.7013445  71.4292622  78.5618258  70.2653313  37.9250312
  78.9010429  69.4029236  37.6854086  78.0198717  70.1034403  38.6972427
  65.2326584  88.2788372  54.0894890  65.8926201  87.5976562  54.2186117
  65.5456257  89.0175819  54.6115494  73.4626102  53.9677715  55.5098152
  73.8481140  54.8090029  55.2649641  72.6189041  54.1955471  55.9003448
  79.0804768  59.6700239  53.9536524  78.8875294  60.4797077  54.4263124
  80.0023556  59.7496033  53.7086153  75.5726433  94.5710087  48.8439512
  74.8002291  94.7348499  49.3850327  75.4060936  95.0559425  48.0356550
  92.2869492  54.4487286  49.4147301  92.6547718  54.9913645  48.7172508
  92.7848053  53.6323643  49.3708515 107.8890705  63.6378908  71.9556141
 107.7197552  64.0471792  72.8041697 107.0223045  63.5321474  71.5634918
  77.5111580  70.5170155  50.9300423  76.6797018  70.9245014  51.1726665
  77.2709227  69.6371603  50.6395626  38.6611179  30.8941001  47.6155567
  39.4771007  31.2763804  47.2926331  38.0493263  30.9829444  46.8847704
  60.6767559  67.4821091  37.3283505  59.8227835  67.7319336  37.6812649
  60.4718637  66.9548273  36.5561938  79.5192766  78.3686876  81.0378933
  78.9656782  78.2508898  80.2659512  79.4602060  79.3035936  81.2345791
  76.8080854  65.5426741  46.6669416  76.0335493  65.9417057  46.2705946
  77.5075054  65.6943750  46.0313129 102.1476936  52.4720335  64.2290306
 101.1954784  52.4503803  64.1339254 102.3005676  52.2768211  65.1535606
  96.2591553  59.9616623  66.2935066  96.3644886  59.4866085  67.1178007
  95.3908539  59.7083044  65.9803152  82.6557159  80.8631992  40.6494761
  81.7111111  80.9893608  40.5598354  82.7427578  80.0434017  41.1358786
  40.9742836  89.3682765   1.6080093  41.3146213  89.4744347   0.7196808
  41.7388824  89.1249989   2.1299648  13.4434608  11.0599441  34.6056914
  13.1846527  10.1764602  34.3435907  14.3623737  10.9748668  34.8598146
  72.2541380  75.8660460  40.7193136  71.8519783  75.9035015  39.8515010
  73.0668306  75.3782511  40.5858278  12.6936058  96.2298320  20.4180527
  12.4512867  95.3823207  20.0449085  11.9859604  96.8183874  20.1552296
  84.2939091  81.7320061  61.6492605  84.3918610  80.8162594  61.3884258
  84.2554951  82.2136116  60.8229351  38.9479089  85.7672310  46.7543030
  38.2852364  85.0776005  46.7155170  38.4479809  86.5824223  46.7122936
  88.8923740  51.7643023  41.3496542  88.1810474  51.1238098  41.3468504
  89.5355701  51.4106131  40.7352972  31.4909795  77.3630619  23.4877396
  31.0027459  76.9296551  24.1877556  32.3999265  77.0993567  23.6309099
 101.4698124  84.4838428  32.0122099 100.9746170  85.2799129  32.2053027
 100.8304310  83.8955402  31.6105533   8.8408283   1.1252135  56.3257170
   8.3534817   1.9032783  56.5965414   9.7471336   1.3133735  56.5695047
  55.8024120  87.7276039  48.3501387  56.2054729  86.8809891  48.5425568
  56.3389301  88.0940723  47.6472330  53.0872869  89.5679760  65.3426075
  53.8421488  89.8522472  65.8579779  53.4204054  88.8480282  64.8069477
  76.8734217  48.8739347  51.1077929  76.8972588  48.9284801  52.0631409
  77.7902937  48.7772274  50.8504581   6.8493417  87.2595310  44.4918823
   6.7595056  87.4430084  45.4270267   7.5422052  86.6009521  44.4424963
  91.3485622  75.1320887  65.9584475  90.6805706  75.2723885  65.2873707
  90.9761620  75.5178070  66.7513990 109.4741154  46.6917706  51.3139296
 109.5799065  47.2498274  50.5434704 108.5864162  46.8744326  51.6219091
  75.7074690  52.5928354  40.6662130  75.0576019  52.9844379  41.2497759
  75.8436298  53.2501793  39.9838710  79.5003557  46.2366199  52.1026897
  80.1012421  45.5324793  51.8590784  78.8983822  45.8323288  52.7275181
  85.6353378  52.5025988  53.3952808  86.3895607  53.0708456  53.2388067
  85.6925678  52.2789812  54.3242311 105.8006287  85.7741547  69.5700502
 106.6850567  85.9452534  69.2463970 105.5149937  86.6096878  69.9395657
 102.6303864  71.3539648  46.9396782 102.4415112  71.8587399  47.7307272
 102.3831940  70.4567003  47.1633911  92.0443344  83.4638500  43.3864355
  91.4593601  83.2814693  42.6510668  92.8532791  83.0003262  43.1696510
  78.1576920  96.6166306  60.3658676  77.6853800  97.0828247  59.6760750
  77.4731827  96.3152027  60.9632063  82.8758144  86.3674927  53.8427830
  83.3355141  87.1712875  54.0853262  82.3139000  86.6242599  53.1116486
 106.7343998  91.6623020  15.8130074 106.9050121  92.5942802  15.9492016
 107.6029682  91.2708282  15.7204711  86.5555477  74.1640234  80.9574890
  87.4203300  74.0753078  80.5568600  85.9502029  74.1932440  80.2165794
  83.5444450  87.3767757  45.2365685  84.1712284  87.6553154  45.9042454
  83.9517212  86.6119099  44.8299551  87.9048729  80.5572510  62.7693844
  87.9606152  81.2689781  63.4070063  88.6591339  80.0011730  62.9645967
  87.2696304  51.7343760  37.6573229  88.1949520  51.9751978  37.6125240
  86.8876648  52.1017313  36.8602133  80.5200577  57.3021173  24.6616435
  81.1552048  57.5512934  23.9902782  80.0655842  58.1169271  24.8755860
 111.5258598  98.5017300  56.6405487 111.2460518  99.3768024  56.3718605
 111.0753155  98.3508205  57.4714899  12.6089051  28.0800128  81.9681835
  12.5331548  28.9932275  82.2448254  11.8801931  27.9525208  81.3607693
  90.6477642  57.2710848  65.6924534  89.8950386  57.7365351  65.3277826
  90.9342194  57.8160334  66.4253998   2.3892167  59.2585850  67.3067713
   3.3394292  59.3555164  67.3694849   2.2528508  58.7455130  66.5102816
   2.1407273  72.9094315  66.4556932   2.3210767  73.8321495  66.2759781
   2.3811677  72.4565458  65.6474161  81.2159824  59.4139814  33.3965945
  80.5044651  60.0521755  33.4483767  81.8046379  59.7652483  32.7285171
  28.1541065 102.3297571   8.3858109  28.7324718 102.1376108   9.1239166
  28.4981541 101.7989277   7.6674271  73.8852549  88.3221817  62.1295214
  73.0438566  87.8898811  62.2757864  74.4503164  87.6339149  61.7784691
  41.5823226  12.9434197  12.4308681  41.9733767  13.5143988  11.7695904
  41.9090848  13.2830136  13.2640171  86.6594124  76.9667482  56.5670919
  86.0059071  77.6544428  56.4396715  86.9417286  77.0700407  57.4758625
  86.2094498  64.3098927  51.6546345  87.0398235  64.7710133  51.5359545
  85.9082031  64.5785761  52.5225592  75.1108360  71.6302681  51.5609884
  74.9222708  72.5104570  51.8864822  74.8494673  71.0495424  52.2756052
  68.2911396  67.6138878  36.9821453  68.6690426  68.4662962  36.7657542
  68.8151550  67.2996664  37.7189636  84.1792870  72.3825693  40.6051493
  84.9148464  72.7323103  41.1080027  83.6828232  73.1559658  40.3375435
  73.8595057  69.7304392  74.0050030  73.5937452  70.6461334  74.0893364
  73.1302118  69.3104076  73.5490084  69.5150089  67.8967047  50.6971931
  70.3761482  67.6937866  50.3318214  69.1093349  68.4723234  50.0488663
  81.5950966  67.2516966  68.4290886  81.1103725  68.0747700  68.3672762
  82.3463726  67.4573803  68.9854288  14.7181466  75.1612473  54.8307085
  14.8141626  74.6672535  55.6449461  15.1573613  74.6239996  54.1714048
  41.9791751  18.4309619  23.3433151  42.1274094  17.4853127  23.3453655
  42.3997216  18.7410586  24.1453171  83.4952068  75.3395653  54.8319674
  83.0403996  76.0108805  55.3406096  84.2130947  75.8075285  54.4055128
  49.4612503  56.9693375  85.3016090  48.9224768  56.1808348  85.3665543
  48.8311720  57.6898527  85.2923298  92.6148605  85.2741051  38.8938427
  91.7591953  85.4429531  38.4994411  93.1656837  84.9972725  38.1615901
  11.3148168  53.5413837  86.7221546  11.0166696  52.9912472  85.9978008
  11.7956975  54.2532873  86.3000393   2.0836595  48.6785698  42.7367973
   2.7354100  48.7421751  43.4349394   2.2195771  47.8088903  42.3607492
  12.8370193   5.0076312  79.2852020  12.1056084   4.9136943  79.8954916
  13.3896259   4.2445869  79.4543695  75.7910109  71.3231182  37.2148943
  75.3317070  71.2758636  38.0533695  76.7082930  71.4600992  37.4516606
  67.1860313  78.3955765  52.1442556  67.9182959  77.8127766  52.3451710
  67.4038219  79.2154503  52.5876570 103.4154034  49.1647911  70.3711271
 102.9268837  49.6830845  69.7316408 102.9058647  48.3601427  70.4667425
  88.0637074  42.3415661  48.5443211  87.6020050  41.8013239  49.1855717
  88.9682961  42.3634434  48.8565397  90.8698463  87.2515869  65.7239056
  91.5463448  87.9175186  65.6010103  90.5989361  87.0186424  64.8358870
  68.0250454  82.6882839  71.4301252  68.6100912  83.3961582  71.7000771
  68.2413435  82.5364971  70.5101204  53.9398384  69.4129133  57.6464844
  53.2061100  69.4175386  57.0317936  54.1279840  70.3384924  57.8018427
  38.9602685  83.7765121  87.4079895  38.1340790  83.9043236  86.9418240
  39.6278167  83.7969112  86.7222786 108.7132359  51.2898779  55.9518242
 108.9081097  51.1973000  55.0192547 108.9779663  50.4540586  56.3359547
  90.4329205  54.5318222  61.2878609  90.0030899  53.7090302  61.0544300
  90.3330421  54.5931244  62.2378588 102.5005913  65.9490824  31.6808128
 102.5072384  64.9967670  31.7771411 101.6671085  66.1405039  31.2508035
  75.8043337  90.2240372  26.2253022  75.5869055  90.3477001  27.1492434
  76.0795832  89.3092918  26.1643720  99.0791798  73.7595749  49.2556047
  99.2219162  73.1736660  49.9989557  99.7651672  73.5250330  48.6305952
  86.3860226  75.9707546  74.6324921  86.1150074  75.0904799  74.8930645
  87.2497368  76.0828209  75.0295639   7.8421262  35.9477806  73.8987255
   8.2916883  36.6300964  74.3973017   7.9536393  35.1549602  74.4233513
  78.5318899  50.2650452  47.4331665  78.1554937  50.6737280  46.6537237
  77.9477358  49.5313454  47.6246977  80.8113956  58.7950039  59.8132992
  80.5330658  58.0310297  59.3082237  81.3415051  59.3062162  59.2018414
   9.0856079  12.7489394  40.5195713   9.8223499  12.8737945  39.9213648
   9.2420963  13.3752841  41.2262774   7.5244717   4.2438716  82.7234936
   7.6191238   4.4897670  83.6437130   6.7591957   4.7335834  82.4222183
 103.9060593  72.0142365  36.7859793 103.1039906  72.4217796  36.4591360
 103.6320305  71.5437698  37.5732517  88.5884762  50.5426979  56.8147373
  88.9418316  51.2684393  57.3291922  87.6387691  50.6412935  56.8823338
 100.0614834  72.2916412  52.2939157  99.2834854  71.9289732  51.8703318
  99.9442005  73.2400179  52.2385740 102.9368687  95.1130390  44.5075369
 102.0668125  94.7744274  44.7186708 103.1289005  94.7560120  43.6404228
  71.7981291  54.4130373  31.6261840  71.5884447  54.4215918  32.5600958
  71.6511297  53.5066032  31.3559985  97.0466518  45.0333738  75.5432320
  97.7798176  45.0495434  76.1584044  96.4661980  44.3509531  75.8802843
  80.6650162  89.9541759  49.2318058  81.5176964  90.3529358  49.4054413
  80.2743053  90.5087566  48.5565138  15.9971432  10.8227271  36.0796595
  15.7554249  11.4248199  36.7834282  16.9177822  11.0170287  35.9038711
  98.1331730  56.8651676  74.3982697  97.7982235  56.1540461  74.9444771
  99.0827942  56.7451429  74.4046021 105.6308270  97.3192501  33.5538864
 105.5713177  98.1143570  33.0242705 104.7212029  97.0882034  33.7421131
  98.2987785 103.9185905  46.5069914  98.4199238 103.4828854  45.6633568
  98.9244366 104.6429062  46.4944983  76.8080044  86.8450260  33.1613088
  77.5731754  86.9387245  32.5938916  76.7112207  85.9000111  33.2787848
  99.6838188  60.9793377  61.8091249  99.4925976  61.2499189  60.9111023
  99.6406651  60.0233984  61.7855787  81.9091988  97.9075146  83.8864517
  81.3513088  97.3694611  83.3247757  82.2426796  98.5926247  83.3071041
  78.4200668  87.1843338  42.1104956  79.0312862  86.4672279  42.2790241
  77.6249695  86.9373322  42.5827694   1.8898728  79.1843176  65.6186485
   2.4818185  79.1832829  64.8664331   1.0628942  78.8482380  65.2731133
 108.2517719  62.7102661  58.4768963 108.2174206  62.1460152  57.7044535
 109.0839863  62.4917603  58.8962984  16.6056016  82.4338913  90.0775528
  17.3502210  82.7431774  89.5617008  17.0015100  81.9708252  90.8158302
 111.6439915  94.2018414  27.6894784 111.2844944  94.3312550  28.5671139
 111.7893314  93.2578087  27.6269865  82.1674442  72.9374647  70.8503342
  82.9450703  72.3881960  70.7511187  82.2638130  73.6126089  70.1786709
  73.1400919  77.7568102  42.1995592  73.6057758  77.3052692  42.9034662
  72.7373457  77.0540476  41.6895056  87.3475361  56.3371229  52.0082760
  87.8162098  55.5159760  52.1576214  87.0739746  56.6189384  52.8811884
  21.1500362   8.1721038  67.8254747  20.3728203   8.6243934  68.1534910
  21.2930778   8.5426349  66.9545698  22.2333435   0.2605838  50.7626534
  22.4506287  -0.6032353  50.4121971  22.7719311   0.8674735  50.2548790
 110.5833244  70.8776903  60.3263140 111.3079166  70.5590248  60.8645058
 109.8164845  70.4084253  60.6549168  86.8331337  93.4708881  41.4603758
  86.4297104  94.3008518  41.7146301  86.4201546  92.8200531  42.0279074
  19.4749831  53.5721899  86.8901709  19.9116182  53.7644221  86.0603344
  20.0706624  53.9111449  87.5583875  69.8352242 102.4993134  25.3854012
  69.8991060 101.5823746  25.1182270  70.7325459 102.7468586  25.6084895
  83.4533691  85.7801819  24.4617558  83.6335182  86.6678143  24.7714281
  82.5708199  85.8291721  24.0944028  94.2429543 104.5479584  73.4820318
  95.0741196 104.7755432  73.0653811  93.5894585 104.6647739  72.7924442
  26.1783508   2.4925345  52.1299267  25.2924160   2.7273768  52.4059534
  26.1693767   2.6003093  51.1788511  63.8695621  97.3791122  25.4424548
  64.8004580  97.4993610  25.2548361  63.4285831  97.6112461  24.6252108
   4.0287545  87.7287769  53.8155127   4.6389535  87.8563404  54.5418835
   4.1057256  86.7997074  53.5983896  94.6984196  81.7501354  45.1094723
  95.3904152  81.2511063  45.5434608  95.1652527  82.3995495  44.5835876
   3.6080697  83.6572838  70.3767443   3.4161618  83.5923862  69.4412231
   3.0155900  84.3378735  70.6961250  98.8540363  86.4056301  52.3345280
  99.7016335  86.8125343  52.5140953  98.6888218  85.8501530  53.0963564
  84.8903370  91.7462158  56.8098688  85.3587437  91.2903500  56.1105776
  83.9816856  91.7750549  56.5102768 110.1930332  83.4618378  38.8136292
 110.1630402  84.1380787  38.1368566 110.4997444  82.6788330  38.3563948
 107.9933834  56.4200449  64.5144510 108.5818768  57.1631336  64.3812895
 108.4742355  55.6685638  64.1676188  81.9670963  93.4290981  29.9209738
  81.7101669  93.8742638  29.1134834  82.7796364  93.8610458  30.1844811
  96.1351967  79.0892172  57.3026085  95.6640339  79.5544767  57.9938173
  95.6426811  78.2774115  57.1816444  95.1105213  62.6266670  26.1270809
  94.3062496  62.9575825  26.5269279  95.0343513  62.8650856  25.2031827
  40.9059767  29.9012368  12.0162964  41.8286900  30.0213711  11.7917824
  40.4492621  30.5850117  11.5262985  76.2110043  99.6001244  63.5711432
  77.0993710  99.2587471  63.6736202  75.7213068  99.2155838  64.2981672
  63.0131245  85.3822231  50.6896973  63.5556364  85.1534939  51.4444065
  63.3941698  86.1954594  50.3584909  40.7001928  90.2659035  48.8899994
  41.6232732  90.3961849  49.1072226  40.2738050  90.1194096  49.7343683
  90.9453964  94.6553707  44.5559120  91.6243553  94.1378498  44.1229916
  90.7411003  94.1645050  45.3518677  24.6935277   5.5301659  14.1030216
  25.2306609   5.3235476  14.8678970  25.3116564   5.8883851  13.4659767
  88.6982441  90.9179592  48.8642550  88.7773228  91.4814091  49.6340036
  88.3350658  91.4879990  48.1864691  25.1720432   3.2340545  25.6413770
  24.4300751   2.6735801  25.8684969  24.9362663   3.6118812  24.7940922
  82.2238636  58.3721495  50.4691648  82.8519630  59.0582323  50.6950378
  82.4346066  57.6501417  51.0612154 103.7703419  51.6438913  30.4295731
 103.2639027  51.3924074  29.6572351 104.1721439  50.8281708  30.7285500
  80.5886841  65.1355362  27.8617191  79.8209667  65.1569462  27.2904205
  80.3599644  64.5074129  28.5468316  45.9345870   6.5511935   5.7302666
  45.7040743   7.3620360   6.1837292  46.8784384   6.6177027   5.5855560
  68.4714031  79.7385168  79.8581743  69.1588926  79.0915632  79.6999311
  67.6712751  79.2207813  79.9475050  31.5641979   3.0852241  57.8070879
  32.4036793   3.4535522  58.0824947  30.9487060   3.8151950  57.8744936
  81.5042019  89.7848129  54.7113276  80.7116508  90.2298450  54.4112587
  81.2916279  88.8532066  54.6551466  88.4428787  78.7420559  58.4150696
  88.3364010  77.8107405  58.6088371  89.1624928  79.0234947  58.9800358
  15.8813480  37.3423022  38.0353642  16.7546657  37.0862121  38.3319592
  15.9269146  37.2874183  37.0808268 107.3155022  71.8514776  52.7490377
 108.2046223  72.1273613  52.9717159 107.3972321  70.9191656  52.5481844
  69.7909355  84.1648865   9.3689930  69.4365835  83.5677528  10.0278580
  69.8538828  85.0075722   9.8186111 105.7478237  87.5597954  50.3413248
 106.3992691  88.2561779  50.4243946 104.9137878  87.9876804  50.5350447
  72.9624033  69.6125698  33.1072307  73.1419897  70.4394484  33.5547256
  73.5624266  68.9860487  33.5117960  86.0239506  64.3491745  23.9566231
  85.2151585  64.0120506  24.3418956  86.7100716  63.7782383  24.3023276
  90.2161789  89.4128513  63.6278009  89.9645329  90.2190685  64.0782690
  89.5373344  88.7822914  63.8681698  86.7510605  67.7866888  50.2998400
  86.8593788  68.7372637  50.3299475  87.6428223  67.4423361  50.3490734
  10.6933549  74.6072674  46.0692024  11.0439351  75.3051376  46.6226482
  10.3582814  75.0605822  45.2956009  55.9678411  67.3296499  81.1011791
  55.1453876  67.2708225  81.5873241  55.6999683  67.4799061  80.1945877
  74.9509478  96.8079758  43.1427288  74.6958256  96.1485672  42.4974966
  75.7448864  96.4552689  43.5445833  97.4411583  80.9264088  59.1645813
  96.5219688  80.6593609  59.1630173  97.4368095  81.8021584  58.7782240
 100.0492096  65.3801203  86.8141079 100.4958248  65.2023029  85.9863663
 100.0578117  66.3342094  86.8907642  19.0978673  39.8535895  74.3382788
  18.8696435  39.9826145  73.4176826  18.2572511  39.7252274  74.7777224
  96.4860439  65.8357573  14.9891031  96.1159134  66.1709213  14.1724610
  95.8247948  66.0358238  15.6516433  69.8617840  83.8561916  51.5139723
  69.9324322  84.5205688  50.8285236  69.8965979  84.3516350  52.3322392
  71.2378454  96.7788219  27.9502916  71.4695549  97.7049446  27.8807783
  72.0596600  96.3425350  28.1750369  98.5295010  61.5826273  67.7168989
  98.9515114  62.0140553  66.9739246  97.8301716  61.0598230  67.3246717
  76.8444252  70.3753519  61.5347815  76.6060495  70.5570364  62.4438477
  76.4222431  69.5388794  61.3390636  79.4531250  64.3440342   1.4471388
  80.1496315  64.8706675   1.0550017  79.2054939  64.8244572   2.2371426
  61.3069630  74.2017984  37.4340677  61.4845324  73.6129665  36.7005992
  61.5880251  73.7126637  38.2073617  87.4332905  65.4142284  38.0283475
  86.9446278  65.1933908  37.2354555  87.1702480  66.3123369  38.2294607
  75.1278925  77.9332972  63.5398817  74.3856335  78.0928993  64.1228104
  75.6500673  77.2711420  63.9927864  69.6984482  73.2939768  26.6704369
  70.3304482  73.3964443  27.3819923  69.3738317  74.1798639  26.5089965
  96.0327721  77.3162746  70.1214457  96.9642353  77.3206472  69.9010181
  95.9873390  76.8577766  70.9604597  66.4035320  78.0156994  36.4272308
  65.9134912  78.4890652  37.0995522  65.7335138  77.5547600  35.9224081
   0.2373365  96.1204529   4.9727011   0.0527051  95.4880238   4.2783132
  -0.0689933  96.9569492   4.6224600  11.6022400  19.5484275  78.5201073
  11.2171749  19.2628688  79.3486071  11.9692234  20.4115314  78.7114334
  97.4332619  63.5514069  27.1890926  97.9949474  62.8197336  26.9333506
  96.5504837  63.2717657  26.9467449  90.9259892  60.9455395  72.2989416
  90.2004814  60.3554153  72.5029469  90.5637169  61.8226624  72.4240303
 110.1626396  68.2391787  71.2598944 110.6143665  67.4545956  70.9490824
 109.9338436  68.0400038  72.1677589  64.0589571  59.9328804  79.2580843
  64.7029638  60.1595402  78.5871840  63.2408428  59.8162079  78.7750673
  96.4705372  73.8862085  83.0175972  97.1549797  73.9601040  83.6826706
  96.9461727  73.7440109  82.1992016  21.4581970   4.6082706  65.3034544
  22.3191646   4.2068976  65.1856995  21.3439468   4.6559161  66.2526178
  53.2253408 102.4350548  48.7259007  53.9826298 102.9221535  48.4011078
  53.4878445 102.1369839  49.5968008  65.5202484  91.2302494  49.2933130
  66.2428427  90.6329155  49.1002226  65.1349068  90.8872700  50.0996065
   1.4148191  79.0012884  29.5724201   1.3142160  78.4368849  28.8058949
   0.9761766  79.8164606  29.3288541  79.7185946  76.8592834  73.0775213
  78.7689447  76.8452787  72.9583454  79.8455572  77.2452641  73.9441967
   9.1506055  85.2039337  53.4496212   9.1243985  84.2782688  53.2073402
   9.4307283  85.2041054  54.3649149  83.4816170  86.3753414  40.1077318
  82.7097511  86.3154602  39.5448184  84.2171860  86.4440441  39.4990873
  16.6231541  14.0695590  59.4721889  16.2702755  14.8006648  59.9793196
  15.9020904  13.4419459  59.4231653  84.4845581  88.9375305  38.0030417
  84.4170284  88.3027744  37.2897744  83.6210251  88.9267063  38.4158635
 110.6599140  89.7330093  58.2301092 111.0569382  88.9165306  58.5333633
 110.6644726  89.6614933  57.2755957  16.5429024  17.3444480  80.7328701
  15.6109814  17.1259326  80.7339859  16.6175751  18.0782718  81.3429070
  87.1986103  70.7882643  50.3099155  87.9989052  70.8667517  50.8291483
  86.6930008  71.5708351  50.5293894  89.0600109  89.6612453  71.6310501
  88.5799217  90.2203369  71.0201788  88.9985561  88.7843895  71.2521267
  36.3145260  15.1128692  39.0811491  36.9179443  14.4857425  38.6825991
  35.7295517  14.5758933  39.6156478  65.0329351  77.1337318  53.2284403
  65.6948423  77.5998783  52.7177382  65.1546192  77.4499226  54.1236734
  17.7971271  11.2812060  55.3808355  17.5971321  12.1960372  55.5791235
  17.3628620  11.1171073  54.5437479   9.7111467  85.4704094  61.9606781
   8.9918473  84.8626709  62.1324253   9.3074468  86.1871529  61.4712572
  22.1549324  21.9048327  85.4033661  22.3462967  22.1892375  84.5096588
  21.5937714  22.5939101  85.7590294  76.2016058  61.8290329  54.9614620
  76.2436962  62.0474720  55.8924532  75.9544659  62.6490402  54.5339823
  37.0834068   2.2750491  66.2711000  37.5954155   1.5323848  66.5913105
  36.9723038   2.1039218  65.3358984  26.4766888  10.3384513  34.9173665
  25.6825737  10.4802913  34.4021082  26.7760567   9.4662112  34.6608186
  87.1268368  55.0996542  32.3487520  86.9620800  54.2879295  31.8689680
  86.3423920  55.2257919  32.8825641  90.2712536  53.6768103  67.5439882
  90.4071331  53.2281446  66.7094421  89.6554947  53.1184340  68.0186367
 100.5689526  69.3758631  52.5491905  99.8568630  69.0957689  53.1242609
 101.0544109  70.0195503  53.0651665  90.3051853  47.4690914  30.7751179
  89.5569324  47.9057693  31.1821389  90.6101227  46.8491077  31.4375854
  83.4612179  91.4011002   0.4950311  83.1823921  92.1846390   0.9688888
  82.9277420  90.6964111   0.8625281  65.1942968  98.6171722  60.6787300
  64.4652462  98.0597115  60.9506845  64.9652767  98.8953304  59.7919321
  78.6381721  50.7435846  56.3674498  78.3594799  50.1270294  57.0445156
  79.5121956  51.0213804  56.6415739  83.1096458  84.8308849  62.4908924
  83.4187603  84.0487289  62.0338345  83.7961292  85.0218105  63.1300497
 111.0423088 104.4734478  31.0350776 111.8582630 104.8678875  31.3430762
 110.5350113 105.2092552  30.6923413  94.7731590  79.7621727  72.5847578
  93.9074898  79.3587780  72.5204992  95.1601887  79.6380043  71.7181444
   5.5993989  37.6817012  67.9925203   5.7574037  36.7798972  68.2718325
   4.6546033  37.7247071  67.8450489   6.2630036  95.6699848  29.2615509
   6.0795358  95.1771545  30.0613546   7.1424153  95.3920650  29.0053797
  21.5069965   5.4282493  67.9804182  20.6608013   5.4438418  68.4275675
  21.7518619   6.3500041  67.8989363  84.9559689  89.7680855  65.1819086
  84.8183632  88.9712620  65.6941319  84.7046566  90.4785728  65.7720613
 109.2064476  57.4986839  46.2245703 109.3463612  58.2163954  45.6068754
 108.3559704  57.1341610  45.9795332  73.8771248  64.0722561  71.3965940
  74.4079590  63.5715485  70.7771301  73.9675331  64.9809551  71.1096668
  97.1343994  80.0981808  86.1460495  96.5229607  80.5845070  85.5930042
  97.9672432  80.5590820  86.0451221   2.5471071  16.6095561  21.7892456
   2.6304630  16.7316073  20.8435249   2.4426226  15.6646079  21.9005036
  63.8980727  52.8897088   6.9951534  64.4817214  53.6270421   6.8164539
  64.2301802  52.5134366   7.8102398  74.6640564   0.3565997  77.0803881
  75.4059053  -0.0928384  76.6755486  73.9191890  -0.2246934  76.9270849
  89.4871140  79.9872494  38.7572312  90.3921127  80.0788403  39.0552664
  88.9934444  79.7800636  39.5507050  70.8836174  83.7585449  31.6254616
  70.3047562  83.7187958  30.8641624  71.4678526  84.4947243  31.4439368
  32.5538162   1.4564532  69.3627262  32.4532703   2.0343322  68.6063004
  33.3528808   1.7613715  69.7925472 105.3293372  14.5709437  61.0154057
 104.5825005  14.1061229  60.6380320 105.4808093  14.1385001  61.8558121
  19.3360714   3.4478873  55.5798244  18.4573845   3.8131827  55.6832600
  19.8797516   3.9580554  56.1801338  18.6306813  61.0096645  79.3737888
  18.3989003  60.4949427  80.1468182  19.5565942  61.2200069  79.4948864
  14.2848781   4.6106833  50.9943390  14.9932388   4.3731517  51.5926981
  13.5050873   4.2050666  51.3733339   3.9003614  96.0843372  39.0566516
   4.2498639  95.3726482  39.5929170   3.9386895  95.7500648  38.1605363
  -0.1898524  66.3656759  68.9609337   0.4106668  65.8184624  68.4548044
  -0.0166270  67.2564411  68.6563587 108.1054688  86.9316483  43.4951925
 107.7998257  86.0786533  43.8037539 107.7514744  87.5562668  44.1282701
  95.1280689 100.8442307  39.9548936  94.4311333 100.1906967  40.0131607
  95.6146431 100.7491493  40.7736921  46.9153026   1.4338702  32.7615070
  47.0769218   2.3764724  32.8016448  46.8399433   1.2433833  31.8264842
  76.9506813   4.3665427  70.1549101  76.5123392   5.1977939  70.3368807
  76.3154126   3.6990375  70.4139519  76.8035460  75.2157307  42.3635387
  76.4561701  74.5082664  42.9067326  77.1269894  75.8624983  42.9906845
  92.9726219  70.0610209  43.2436895  92.7384758  70.5492926  42.4543905
  92.1347046  69.7662210  43.6003590 104.8745728  70.1446199  19.3720555
 105.4565144  69.6034145  19.9056005 104.1301346  70.3315783  19.9439716
 110.8411884  64.0756655  63.3862638 110.4613781  63.3685207  63.9077330
 111.1521626  63.6454678  62.5897360  14.2208294  42.0920486  42.9317474
  14.0108208  42.8973407  42.4588585  14.5815281  42.3914832  43.7662935
  27.4736122  15.1031035  23.5987163  26.8645862  15.7963103  23.3441949
  27.4607853  15.1125068  24.5557833  92.7900600  52.0144320  40.3705454
  91.8923569  52.2928381  40.1892900  93.3049297  52.8199434  40.3226328
  32.4749664   9.2815608  54.2410040  33.0028442   8.6526412  53.7490320
  31.8876175   9.6633548  53.5887146  46.0841799  92.8650188  67.8324413
  46.2507915  93.3042526  68.6664391  45.3481054  92.2802353  68.0125761
  97.2674465  79.5240641  24.9280810  96.9040108  79.3568373  25.7976675
  98.1007767  79.9635839  25.0972438   4.0546945 101.7285347  55.0525045
   3.6616948 102.1753216  55.8022785   3.8509229 100.8035946  55.1910877
 106.8731213  55.9862804  59.7482014 107.7278137  55.5656910  59.8421860
 106.9950676  56.8614340  60.1162529  30.5738548 104.6621393   6.0039425
  29.6342186 104.5632146   6.1573601  30.8118824 105.4575275   6.4803123
 101.4291859  85.9128666  53.7679338 100.9230423  85.5703354  54.5046282
 102.1405792  86.4070702  54.1752720  87.8004742  77.7616787  51.4210081
  88.3413601  78.4133816  51.8670607  88.0898190  76.9233084  51.7810678
  13.6556724  28.9268893  25.3429437  13.9775852  29.2987460  26.1641192
  12.8527359  29.4140262  25.1579261  82.3233509  94.7345543  64.7777367
  82.5844479  94.0077496  64.2122078  82.8632259  94.6339035  65.5617237
  14.2219738   9.0303058  29.4719601  13.9288238   8.1995315  29.8462725
  14.8569874   9.3670100  30.1041150  86.1448860  80.2576923  86.9892406
  86.0237885  79.3431377  87.2444916  85.2644825  80.5644035  86.7723274
  82.4136829  80.4453564  70.5307722  82.0613098  81.2139130  70.9795380
  81.8105507  79.7377253  70.7581997  42.8333430  87.5833886  15.9373093
  42.9287390  87.8441136  15.0212574  43.0483107  88.3725350  16.4345741
  86.9877625  64.3606853  65.5930471  86.4196014  65.0167084  65.9968567
  87.6928329  64.2313910  66.2273932  63.3234172  19.3523686   0.6063938
  62.7568106  18.8453953   0.0248718  63.5918097  20.1065629   0.0816154
 100.7438613   8.3320636  83.1624699 101.5599919   8.5483378  83.6134624
 100.7810355   8.8320369  82.3470783  66.0025597  87.3145390  89.2975140
  65.2100658  86.7955303  89.1603470  65.6824684  88.2013798  89.4626904
  71.2242560  51.2267487   2.7056408  71.1887126  52.1831410   2.7222729
  71.9678454  51.0049241   3.2660961 105.9324646  99.2410851  56.8183184
 106.7065144  99.5985794  57.2533798 105.6909180  99.9066639  56.1742020
   1.7699865  67.9644918  37.6675963   2.2340921  68.7176180  37.3020315
   2.4448732  67.2932768  37.7687263 103.5766412  12.1278876  14.2659402
 104.1231299  12.6177234  14.8804665 104.1965390  11.7535705  13.6399651
   5.2013353  60.7397556  74.2818642   4.8431638  60.2319002  73.5538387
   4.5323899  61.3992262  74.4658470  67.7775621 101.2167358  45.2583504
  67.8709555 100.6079197  44.5256424  66.8484402 101.1777973  45.4851675
  87.3234749  53.8983250  40.1633787  87.7584648  53.2773066  40.7476282
  87.9642677  54.0663195  39.4724464   6.4572480  53.5762453  57.6534796
   6.9397882  54.3994522  57.7290440   5.5875257  53.8354874  57.3491430
  89.4867992  59.1734934  51.8703938  90.1518822  58.6406851  51.4344931
  88.6711311  58.6886644  51.7444372  79.2687750  93.1974888  63.8761854
  78.4798670  92.7717686  63.5406017  79.9802494  92.6008606  63.6436605
 105.7252979  78.9657688  36.7849946 105.1899147  78.3221722  37.2490883
 105.3051853  79.8055172  36.9709086  73.5981846  84.5057106  45.3922844
  73.4037542  84.1025543  44.5461798  73.1735706  85.3626537  45.3524923
  91.8923569  34.1987896  75.2942228  91.4763165  33.4004116  74.9690485
  91.9067287  34.0911150  76.2452412  81.5486764  42.8752257  84.8512065
  81.9480657  43.4026553  84.1594398  81.4888238  41.9959570  84.4776726
 104.4345523  20.6792563  64.1938066 103.4823132  20.7764548  64.1980743
 104.6996260  20.9559936  63.3166599 106.4866352  61.2239456  24.2256665
 106.5054512  61.2909842  23.2710028 106.4926338  62.1315718  24.5296669
  96.0409641  47.0699406  48.6704826  95.3157330  47.1580029  49.2889643
  96.5682316  46.3517332  49.0203333 107.6771259  74.0391302  81.4165592
 108.6173534  74.1223669  81.2575436 107.2907066  73.9804745  80.5427933
  38.8055424  57.5593178   8.3749962  38.2824044  57.7251427   9.1592598
  38.6590533  58.3271878   7.8225899 101.2782288  98.4931850  48.6630249
 101.8092442  97.6978207  48.6222792 100.5196857  98.2478523  49.1927958
  88.5835934  53.9094353  45.6928730  87.8385925  53.6066961  46.2120485
  88.9812374  53.1073236  45.3541660  96.0073757  66.5301466  89.0339661
  95.3063679  67.1374178  88.7972355  96.5648651  66.4931917  88.2567406
  47.1546463 101.4337181   0.6461239  47.4681381 100.6397461   0.2130318
  46.2630466 101.5495657   0.3176975 109.4690704  58.1083012  53.9585400
 110.3180122  58.1371069  54.3997955 109.5774555  58.6733818  53.1935787
  98.8597298  25.4299331  74.4603252  99.4128990  25.8855963  75.0948334
  99.2997456  25.5619693  73.6205721  72.9329586  56.9340324  45.0002718
  73.6590147  57.4921131  44.7216702  73.3392143  56.2766790  45.5651331
  90.3703976  11.9693488  16.3001812  91.0638953  11.9153422  16.9577372
  90.0834656  11.0641307  16.1797941  58.8535595  96.7831230  47.4884892
  57.9377317  96.5973949  47.6958418  59.3337250  96.0272312  47.8265667
 109.7481251  24.2621088  50.8112669 109.3513966  23.4166861  50.6012583
 109.1140366  24.6874380  51.3885546  43.8422874  18.8520831  36.7528749
  44.7111038  18.4762305  36.6110444  43.4896377  18.3656901  37.4980545
  23.6035016 103.0011940  39.1153574  23.5360387 103.6578465  39.8085284
  23.0204347 102.2958660  39.3960357  85.8280849  96.2058163  75.8685923
  86.7614555  96.3877010  75.7592201  85.4781342  96.2054253  74.9776554
  79.9507380  90.1208496  58.9871025  80.5284214  90.3940010  58.2744265
  80.1183987  89.1835976  59.0854788  89.6018600  85.8650303  34.9913526
  90.3883362  85.8064938  34.4488931  88.8873291  85.9824753  34.3653512
  41.8818238  64.2868710   6.1011028  42.5022367  64.8360062   6.5804589
  41.6404489  63.5998058   6.7223197  74.7206545  78.5019445  20.2350450
  73.8981533  78.0496502  20.4225230  74.6970606  78.6605787  19.2913747
  95.6388570   5.2257461  53.8624382  95.4462910   6.1031741  53.5318804
  96.4842225   5.3157062  54.3023157 111.3237667  95.1587677  54.1412401
 111.0116482  94.4683456  53.5563183 111.5447330  95.8849621  53.5581017
 108.6228085  64.5709324  51.1427641 109.2044735  65.3311157  51.1385012
 107.8668022  64.8449039  50.6235075 108.3203697  71.5214300  42.5509834
 108.9738274  71.6533136  41.8640852 108.4248638  70.6054020  42.8082752
  73.5692883  73.4949589  60.4439354  74.3786478  73.6178732  59.9478912
  73.0581045  72.8787279  59.9193573  66.0184860 102.4522877  28.6919379
  66.3789558 101.9262505  29.4057822  65.0977993 102.5727367  28.9244509
  31.6661648   3.5252017  47.4964237  31.9939617   3.0270022  46.7477083
  32.2065834   4.3150729  47.5136471  43.0381154  35.2739264  83.0750871
  42.6903199  34.7988440  82.3203874  43.3773851  36.0904719  82.7085066
  85.7238579  50.8455133  55.9675884  84.7965145  50.6928635  56.1491442
  85.8859921  50.3839064  55.1448679 104.8239136  65.7655859  67.5300884
 103.8954830  65.8438540  67.7494526 105.2811718  65.9857225  68.3416843
  92.7308083  55.8307505  63.1478310  92.9656982  55.4448318  62.3039532
  91.9227219  56.3133955  62.9738617 108.7983322  79.5670795  69.3912506
 109.1002560  79.1058111  70.1737499 109.3353081  79.2130136  68.6823606
  90.4787159 101.1732769  60.1491451  90.3955269 100.5593491  59.4194841
  89.5767212 101.4005280  60.3749657  89.1949654  40.8824158  31.9163990
  89.6710205  41.2085009  31.1526775  89.5005798  41.4288902  32.6404142
  70.5056763  63.5810232  51.7329121  71.2290478  63.0194187  51.4544010
  70.4977798  63.5058594  52.6871252  71.5228844  88.0097389  34.9814510
  72.2691917  87.6866055  34.4766331  70.7561970  87.6734352  34.5174146
 107.3363590  92.5326729  44.4079733 106.5769672  92.5307465  43.8252687
 106.9783878  92.3151207  45.2686501  36.8930534   0.2076835  12.2168922
  36.2546066   0.9115428  12.3317873  36.5840534  -0.4922181  12.7921271
   7.4750332   9.4084567  57.5687647   6.5996460   9.6654433  57.8584003
   7.4331287   9.4503612  56.6133976   6.1928181  12.1605319  32.1274018
   6.3077167  12.9313106  32.6832175   5.3480438  12.2980613  31.6988349
 110.0454140  69.0563917  41.5749407 109.2332172  68.6211491  41.3158560
 110.5625153  69.0970659  40.7704639  44.0604881  30.3243178  37.2389579
  44.2858414  29.4386214  36.9543719  44.3217281  30.3539008  38.1593442
  96.5847015  87.7078819  63.5129833  97.3814964  87.1793079  63.5571098
  95.9127522  87.1025372  63.1995010   1.6320661  55.1424074  45.1189327
   1.5077832  55.2475214  44.1756725   0.7455304  55.1512814  45.4797840
  61.4504436  20.2907580  34.5718670  61.2381653  20.8867949  35.2901387
  61.3971905  19.4179553  34.9612236 110.2740097  92.3590374  58.7065268
 110.5364704  92.4410629  57.7896786 110.5293560  91.4692497  58.9500666
  99.6783829  92.5183678  38.3229756  99.3284512  92.9012966  37.5185204
 100.2974033  93.1713581  38.6495328  86.7579269  45.7771587  73.6655807
  87.3826981  46.4915943  73.5411978  86.3968849  45.9241915  74.5398045
   9.5773128   6.5842933  43.7598562   9.5672802   5.8580894  43.1363392
   8.6988071   6.9602126  43.7038469  46.8614820  78.2273436  56.8931866
  46.2889054  78.9556694  57.1338701  46.5255311  77.9276037  56.0484791
   7.3987821 102.8111362  69.6602297   7.6319650 103.6704254  69.3088293
   8.0999044 102.6071739  70.2791452  52.1272663  15.1836032  55.8617592
  52.5477985  14.4226569  56.2621927  51.2113003  14.9250430  55.7598543
  93.1336212  75.7699680  69.4568539  92.7168941  76.5510893  69.8207521
  92.9473305  75.8139992  68.5189915   6.8421891  78.4684277  43.8340473
   6.6784623  78.6441183  44.7606277   6.1663964  78.9653635  43.3729792
  79.5784382  12.4534244  54.1913366  78.6549381  12.2316379  54.0721655
  79.8242954  12.0233172  55.0103569  24.5026497  27.0240516  60.5646038
  24.9388794  26.1812800  60.6898022  25.1590637  27.6733512  60.8171034
  87.7258396  67.0804930  34.3140340  86.7949677  67.0735312  34.5368671
  88.1011772  66.3675690  34.8308420   5.2131752  12.3494643  59.9756289
   4.4496349  12.4522895  59.4075918   5.0851587  11.4998359  60.3975010
  33.7810902   4.9074382  49.7145891  33.9133934   3.9940471  49.4607067
  34.1626743   4.9703235  50.5901861  91.9894218  82.2689342  61.3559151
  91.8155193  82.1844006  62.2933817  92.9373932  82.1619225  61.2775612
  80.9131336  80.1709652  61.3577318  81.1086273  80.6243324  60.5376863
  81.6022682  79.5113897  61.4369488 102.8314209  92.7028751  76.8573189
 101.9345188  92.3685074  76.8569326 102.7847099  93.5143948  76.3518620
  10.4268555  12.0763129  53.1920576  10.0683407  11.8885726  52.3246145
  11.1491779  11.4562434  53.2920170  18.0876545   4.9493808  45.2642298
  17.2625259   4.4782657  45.1482964  17.9723266   5.4373664  46.0795879
 102.1743107  74.6730518  60.2952719 102.9892063  74.5667982  59.8044729
 101.7898464  73.7966537  60.3137827  96.8147659  93.3690166  69.1000175
  95.8881950  93.4480095  69.3268919  97.2757244  93.4891319  69.9302673
  37.1132473  18.0415076  67.4589539  37.2100452  18.9635390  67.6970959
  36.2722877  17.7836341  67.8364801  24.6435693  63.5675097  71.9224310
  25.5089524  63.2888460  71.6229582  24.2715314  62.7891731  72.3371649
  75.2050209 103.4647942  40.0428438  75.8062792 104.1171837  39.6835423
  75.7597446 102.7094460  40.2377033  97.4439049  70.7817316  78.6606550
  97.5018215  70.7155657  79.6138096  96.5210724  70.9694338  78.4892368
   1.6725877 103.1746864  39.3496084   2.4731210 103.0519485  39.8598194
   1.9544557 103.6614513  38.5751128 101.7201614  65.3247690  61.6179085
 102.4172688  64.6790743  61.7334318 100.9792519  64.9675131  62.1074581
  17.2507051  87.2972584  51.6265631  17.3946908  87.4004269  50.6858969
  16.3086942  87.4237251  51.7399693  88.0113411  88.5704613  53.4069157
  87.9212093  87.8217888  53.9964914  88.1346416  88.1803608  52.5415516
   4.7763399   8.9729613  79.0367222   4.6619467   9.1440219  79.9715376
   5.5602077   8.4258193  78.9875174  15.3057865  13.4357184  51.3785648
  14.8388008  13.3635634  52.2110033  16.1342338  13.8585967  51.6045570
  64.9503708  84.8478413  22.0317054  64.8026133  85.0601006  22.9533052
  64.4952488  84.0158749  21.9015884  34.7476963   4.8296470  32.8851938
  34.2374996   4.0578479  32.6397085  34.5076183   4.9954242  33.7968469
  98.9155388  85.2345848  83.6156940  98.7429810  84.2988396  83.5116005
  99.8587608  85.3210258  83.4775162 101.1221790  87.6121902  60.0467634
 101.0648155  87.3320866  60.9602642 100.6038952  88.4160805  60.0097418
  31.2131074  53.4403610  29.1599393  30.7104066  53.6133289  28.3639431
  30.8210614  52.6461697  29.5229673  17.7332405  18.8164443  59.9089146
  17.5730995  17.8825873  59.7729206  18.3182148  19.0658206  59.1934776
   0.6659463  97.1298313  72.8718281   0.4570439  96.2217522  72.6527929
   0.3991273  97.2230911  73.7863445  42.4902729   5.8207435  36.3700008
  42.8143314   4.9902267  36.0214782  42.3584274   6.3697166  35.5970359
 103.9275360  64.0113926  29.6994257 103.9467525  64.5652199  28.9189553
 103.3126450  64.4487381  30.2883792  58.2995228   8.3691615  30.7480812
  57.7023224   7.6470489  30.9433484  57.9457573   9.1116447  31.2377667
  93.8149738  68.2072210  38.6853528  93.9145470  67.4083900  39.2032218
  92.9428864  68.5313654  38.9103413 110.3433895  92.1587372  82.7972698
 110.1397610  91.5796089  82.0628548 109.4939613  92.3474693  83.1961346
  95.4538059  64.7116089  62.6016998  94.5870113  65.0780916  62.4268103
  95.9864426  64.9903536  61.8568325  93.0304961  69.3625729   5.9968853
  93.1596522  68.7845032   6.7488003  93.6237673  69.0212910   5.3277016
  22.2458938   3.1415290  28.9766455  21.6187672   2.9923648  29.6842456
  22.8856377   2.4357718  29.0708590  81.9702435  98.4862995  86.6564274
  81.7096806  98.1460285  85.8005333  82.3324013  99.3524361  86.4696980
  14.1006092  12.7390880  59.2664337  13.5904220  11.9545001  59.0655470
  13.5835270  13.4596938  58.9064598 110.6151867 101.1503506  55.7884932
 111.2920284 100.9852314  56.4448929 109.9568176 101.6706753  56.2489748
  90.9332085  78.1371832  37.0792484  90.5702400  78.9158869  37.5012779
  90.6635380  78.2131195  36.1639667  52.8040938   6.3441365   0.7514191
  52.8757243   7.2650330   0.5003071  52.9404788   5.8621590  -0.0642586
  85.4033947  38.7475610  60.3410912  85.7693672  39.3522286  60.9865904
  85.1597309  37.9736805  60.8489990  35.4097942   1.1114043  79.7328711
  36.1408428   1.4324969  80.2607822  35.2208809   0.2429885  80.0883961
  37.5588993   4.7587031  50.9685659  38.4130958   4.9094886  51.3733244
  37.7597336   4.3208713  50.1414013 102.1920157  50.9916896  33.9231133
 101.9352389  50.0695819  33.9190435 102.5446368  51.1382503  34.8008442
  47.5304893   7.7725047  38.3303690  47.8130916   6.9153422  38.0115700
  47.6757339   8.3628387  37.5910163  12.0695928  85.8886433  58.6870527
  12.9228929  85.7304001  59.0908718  11.5293458  85.1516914  58.9721203
 104.9106312  50.9319687  88.8381195 105.2339172  50.3276730  89.5063591
 103.9715290  50.7535887  88.7880516 100.5553341  99.1541576  44.4810104
 101.2701225  98.6467934  44.8655844 100.0166893  98.5046291  44.0291214
  72.6764488  97.2317505  67.2660255  71.7554760  97.1957016  67.0076895
  72.7203655  97.9505253  67.8966331  78.3862305  73.1647444  75.5923080
  78.2328415  73.9463329  76.1231804  78.9431906  72.6098585  76.1383200
  22.9688028  86.4691257  16.2406695  23.5238984  87.0888996  16.7139363
  22.8657201  85.7319736  16.8425071  23.7177613 105.0301456  61.8124676
  24.2992452 105.0884819  62.5705624  23.1648591 105.8090687  61.8742085
  26.8932870 102.0231533  43.0088711  26.9131234 102.9284191  43.3192396
  26.8753961 102.0974159  42.0547247   3.5661367  97.3419094  21.7322993
   3.0385068  98.1269455  21.8791461   3.0479196  96.8154335  21.1236119
  79.7323704  76.1698532  60.1903820  78.7865162  76.2784147  60.0913286
  80.0644302  76.1326838  59.2933941  55.6245422  90.1832199  40.2009201
  56.4198351  89.8392773  40.6076717  55.7699728  90.0746059  39.2610884
  75.7268429  88.3462715  36.1446619  75.2551508  87.8573704  35.4703379
  75.3528881  88.0376625  36.9699788  49.7208980   2.0094508  44.6246338
  50.6065086   1.9822902  44.9868393  49.8509315   2.0662612  43.6780071
  92.8901958 102.9683018  86.3690376  92.6711082 102.2739697  86.9904423
  92.1811867 103.6047268  86.4612389  57.6101974   3.0066318  62.9435349
  56.8118099   3.4129828  62.6063633  57.6756672   3.3196563  63.8457298
  40.0075725  14.1678733  49.6253252  40.2545933  15.0721663  49.4317436
  40.8014873  13.7751693  49.9882555  14.1365483  92.4283028  36.9707203
  14.9656442  92.7260208  37.3451400  13.4660581  92.8374100  37.5178170
  47.2323326  14.6461219  69.6487284  48.0431560  14.2244929  69.3640757
  46.6308502  13.9204616  69.8156691  19.8534349  53.4990740  65.4566193
  19.6697190  53.3309364  66.3808584  19.2271188  52.9505682  64.9842882
 110.1070976 103.7585545  21.7061949 110.2073765 103.0771446  21.0414743
 109.1623402 103.8172817  21.8483615 108.3223391   8.7983150  61.6135263
 108.6561967   8.8472861  62.5092793 107.9991580   9.6803874  61.4298153
  35.0100330   5.8112639  41.2487078  35.0632099   6.1361426  40.3498983
  34.3476776   5.1210517  41.2151051  35.7174019   1.5287513  34.5822382
  36.2606052   1.6111201  33.7984133  35.3073124   0.6677550  34.5000529
  97.1772194 101.2700653  38.3373880  97.8253555 101.7555523  38.8477349
  96.3343906 101.5386009  38.7031078  12.6090959 100.5279350  75.9771490
  12.4698594 100.9257889  76.8365383  13.2103685  99.8020458  76.1438465
  11.6058163  30.1315326  68.4640837  12.2729114  30.8154220  68.5233021
  12.0298675  29.3516559  68.8221407 108.4331703  82.1537209  28.5904336
 108.8126755  81.3301373  28.2839727 108.7304306  82.8053570  27.9554200
  65.3478149   4.7053260  52.2157145  65.4563240   5.0480670  51.3285923
  64.8321537   3.9068717  52.1025944 111.3022614  99.2826653  77.5238943
 110.4285240  99.4292355  77.8862953 111.8940353  99.4150639  78.2644987
  95.9732533  82.5374889  35.6697416  96.5221310  82.3114872  36.4206648
  95.2799416  81.8775272  35.6725788  18.8359074  13.0225104  24.9893904
  19.6397499  12.5068587  24.9247146  18.1461147  12.4290675  24.6923161
  22.1611217   2.5937385  33.3649349  22.2807506   1.6707534  33.1412959
  22.9896835   2.8516311  33.7689185   7.0867208  71.3861752  33.2318187
   6.8286279  71.7203760  34.0908480   7.3665288  72.1625996  32.7469420
  17.2827581  88.5852432  38.0783319  16.5913251  88.5507202  37.4173069
  18.0815080  88.3598137  37.6014400  15.5069307  57.7868986  64.8341036
  14.6708253  57.5135612  65.2115107  16.0803655  57.0289993  64.9481106
  79.3836594 104.8750591  43.9170170  78.8299370 104.1074848  43.7739849
  80.1606464 104.5311069  44.3577242  88.6003114   7.3910827  57.8805733
  88.9420129   8.2829207  57.9445744  87.7994776   7.4032325  58.4047413
  11.5102581   1.4642734   3.7406877  12.2863201   1.0363692   3.3789450
  10.9273914   0.7428378   3.9773890   8.3069661  71.2991762  21.7783093
   8.9465383  71.9240379  22.1199560   8.3797410  70.5408907  22.3579097
 105.4152298  90.7348919  60.7201147 104.7280407  91.3218689  60.4047537
 104.9421215  89.9950218  61.1009026  87.3430538  79.4099092  15.0886476
  86.5814114  79.6210623  14.5486975  88.0757904  79.3928957  14.4729960
  11.7987874  81.0304165  60.6847477  12.6423410  80.9147644  61.1221027
  11.1642697  81.0865021  61.3992214  92.5055174  53.1314747  22.4668598
  92.0949607  52.2670548  22.4880314  92.1175437  53.5623162  21.7052269
  88.9789232  67.7837497  27.2642970  88.4414919  67.3306113  27.9139638
  88.4358677  68.5162121  26.9730568  96.9040509  75.3917175  56.8273687
  96.3981815  76.2041479  56.8105412  96.4025613  74.8090821  57.3976994
 107.6825237   8.5241681  49.5389891 107.6437092   7.5720525  49.6295500
 107.1199131   8.8545108  50.2394009 107.1765514  56.4840553  87.2097063
 106.7165943  55.6520147  87.0984322 107.1454711  56.8924768  86.3445717
  57.0160484   0.4170299  61.7328215  57.3729229   0.9774685  62.4218655
  56.8113804  -0.4064159  62.1758556 109.5863744  95.2395504  81.2086582
 110.4172512  95.3180378  81.6773987 109.5324632  96.0367715  80.6816292
  37.0790768   3.4990942  37.9574037  37.1723890   2.9627925  38.7447429
  36.2191653   3.2646054  37.6084089   8.8797998  79.3329411  30.5356336
   8.2945346  78.6284810  30.2573681   9.1902208  79.7232181  29.7185922
  65.0490808  27.1557713  39.2061019  64.9525547  26.4906621  39.8876762
  65.9952354  27.2520971  39.0977263  19.7116851  94.7220808  64.4341898
  19.1589498  95.4950112  64.5494986  20.0469350  94.7984737  63.5408783
  26.5650892  69.8970395   6.1510724  25.7785510  69.3546611   6.2095469
  26.8238878  70.0425416   7.0610636  28.4510993  90.6208259  12.4827766
  27.5100278  90.5876082  12.6545489  28.6526536  89.7723299  12.0882356
  11.6408204  99.0767729  63.8235331  11.0488033  99.6122265  64.3517733
  11.4917802  99.3704784  62.9247808  49.7311068  20.2871490  24.2565203
  49.4314146  19.7616541  24.9983239  48.9597464  20.7875037  23.9902806
 111.2069079  81.3647729  22.8724790 111.9265624  81.1896163  23.4788203
 111.1728593  80.5902582  22.3110485  35.2242374  88.5701567  58.3789730
  34.6954345  89.3673402  58.3458328  34.9228238  88.0516213  57.6329803
  13.3950757  98.7460530  37.6854348  13.1963825  97.8098869  37.6668215
  14.1098117  98.8517350  37.0575666  87.0699163  58.0752910  69.7806811
  87.7390046  57.7163775  69.1978168  86.7228504  57.3134334  70.2447391
  14.9623012  95.0612002  45.1290035  14.4227790  95.6036395  45.7042503
  15.3085326  95.6724387  44.4788170  33.5709810  39.1377687  37.2722983
  33.8354588  40.0569391  37.3098493  33.7818933  38.7922239  38.1396770
 103.0298253  87.3267513  26.7222261 102.4332377  86.8941289  27.3330855
 103.8261076  86.7962271  26.7488694  51.5197659  22.0639277  44.0303564
  52.0619059  22.1747947  44.8113966  51.1776400  22.9395175  43.8500118
  25.0898980  59.0613967  27.0568109  24.1748094  59.1568118  26.7927361
  25.1894378  58.1277114  27.2426844  21.6902446  92.2353941  42.8452444
  22.1724128  91.6733485  43.4517479  22.2811841  92.9695445  42.6777792
   7.5512408  92.8995710  70.9616947   7.8380632  92.9819137  70.0521994
   7.8608035  93.7008887  71.3839436  34.0013099  13.5503829  43.1743431
  34.7963905  14.0674591  43.3036137  33.8271689  13.6096120  42.2349787
  26.6803216  99.4425356  40.1847982  26.8311023  99.4965189  39.2410898
  26.1388206 100.2060610  40.3848886  72.9713058  17.1383739  29.1653275
  72.1521616  16.6713691  29.0005803  72.9475832  17.3409796  30.1005387
  71.7686640  79.6538669  44.5313311  70.8458113  79.9070769  44.5099068
  71.7581316  78.7317854  44.7880125  11.5661573  81.6075569  46.1238241
  11.9856309  82.3657447  46.5305424  10.6328344  81.8200117  46.1266756
  37.7502751  27.5257421  12.8235555  38.4241390  26.9156384  12.5236988
  37.9248190  28.3325052  12.3388886  38.4658647   5.9604979  34.2883277
  39.3916821   6.0903251  34.4938445  38.3253264   6.4650750  33.4871507
  32.0379210  18.1131947  49.1388655  32.6134443  17.5464261  49.6524572
  31.2098408  18.1119049  49.6189833  83.9293768  72.4837380  33.4143686
  83.4156349  73.0388003  34.0010619  83.2782825  72.0557958  32.8583360
   5.8052110  93.9620405  48.7333632   4.9010801  94.1014963  49.0150213
   6.2200116  93.5160154  49.4717646   3.8922581  10.8799314  63.0153704
   4.5851064  10.3738582  62.5910091   3.5255140  10.2835286  63.6680841
  48.7436104  18.5833037  84.7748470  48.5590744  19.3898201  84.2934799
  47.8847218  18.2749248  85.0637054   3.9798307  75.5128890  56.4853907
   4.0486192  75.8952242  55.6105661   3.0701827  75.2217418  56.5486860
  99.7436734  82.0961648  60.0499296 100.6009885  81.7390328  60.2816629
  99.1953655  81.3256961  59.9017096  17.5415277  88.5325438  62.9653263
  18.1126689  89.2910081  62.8438330  17.7789354  87.9375726  62.2540712
 107.9130646  91.2193638  21.9658089 108.5982748  91.1136347  21.3058519
 108.1395289  92.0319789  22.4181390  33.6396980  95.7984620  51.8056154
  33.6591148  96.1432898  52.6983356  32.7716111  95.4043656  51.7199087
  35.5967259   4.9816746  72.0087385  35.6625366   5.8250713  72.4566031
  35.7329059   5.1900280  71.0844707  36.2722492   9.4916958  38.0373263
  35.3277016   9.5549315  38.1789804  36.5469217  10.3892422  37.8497171
 106.7858931  99.1706496   5.0124830 106.6212054  99.9519843   4.4846320
 107.3756310  99.4692367   5.7047892  72.1153517  64.1145773  82.8771007
  71.3025542  63.8526828  83.3095384  72.7970000  63.9504571  83.5287541
 109.5199438  74.4543820  34.8515868 109.8575350  73.5586983  34.8482394
 110.0068756  74.8964697  34.1561079 101.2730762 100.8034155  54.7279596
 101.8790003 100.1943159  55.1499653 100.4183098 100.5879864  55.1010513
   7.4406099  82.9985982  44.9117708   7.7907848  82.4337631  45.6006622
   8.1442594  83.0519515  44.2650414 108.4237834  82.0345264  31.4323640
 107.9758354  81.1991769  31.2990737 108.7621804  82.2655445  30.5672908
  44.1237974   5.1410741  63.0264044  44.6286440   5.6826556  62.4197340
  43.5065079   5.7490158  63.4333372  23.4200143  84.9080258  83.5599422
  24.3672513  84.7925359  83.4849072  23.0555963  84.3513113  82.8718281
  84.4659337  83.4787899  26.3263988  83.9222410  82.7997643  25.9269571
  84.4896742  84.1802722  25.6755590   9.2932224  99.7852856  78.6228895
   8.4213018 100.1801324  78.6137772   9.2873143  99.2092412  79.3873310
  56.4886379   6.0001439  31.8276381  55.6110668   5.6971246  32.0606232
  57.0077181   5.1990306  31.7568827  68.9718676   4.8834547  36.4161158
  68.7939167   4.6068454  35.5171990  68.3037281   4.4409665  36.9395852
  18.4004319  34.9880242  34.0886998  17.9226792  35.6646681  33.6089730
  18.9563692  35.4737210  34.6980119  27.5152469   2.7828297  65.3819561
  27.0035911   2.0109919  65.6242514  28.1316638   2.4642476  64.7225904
  27.7900672  14.9094260  31.9520402  27.6801610  14.0568018  32.3729753
  28.4782577  14.7685909  31.3018155  36.9890618  21.1311746  42.9810715
  36.8034244  21.8964767  42.4369383  36.1333728  20.7277560  43.1269407
   0.9990668   5.4349363  29.3085265   1.1509956   6.0379612  30.0362015
   0.1464700   5.0425923  29.4966125   2.9119968 102.6203596  22.1808505
   2.3136067 103.2836061  21.8369532   2.4276041 101.7982748  22.1048713
  38.6773633  99.2153579  48.9170980  39.1600131  98.6624944  48.3025885
  38.1844806  99.8183310  48.3605719  18.9708280  65.5310136  44.3674231
  19.5332288  65.2965766  43.6291981  19.5260858  65.4136973  45.1382446
   9.1719912  51.8388841  87.5386780   9.4548892  52.4347082  88.2323599
   8.3823679  51.4242993  87.8863040  22.5816822  12.8687024  56.0965300
  23.2951593  12.2846091  55.8395910  22.0278788  12.3343444  56.6657352
  46.3732480  94.3258637  63.9117670  46.8634843  94.9746912  64.4166660
  46.8154477  93.4966928  64.0938663  38.5138035   0.6672260  31.5269446
  39.4487882   0.7484577  31.7151880  38.1730151   1.5570900  31.6177082
   5.9107875  78.8350898  90.2318287   6.3704204  79.6260911  89.9502563
   4.9832582  79.0465075  90.1258755   2.9800367  96.8393236   4.4348902
   2.1424150  96.4139271   4.6183527   2.8027200  97.7737874   4.5424494
  33.1226253 101.5546861  41.4095354  33.5787153 101.0205281  40.7592344
  33.7856244 101.7404538  42.0744848  49.8753834   2.1356569  12.9769492
  49.9368763   2.2119085  12.0247746  50.0580692   1.2132029  13.1556523
 106.8979117  95.0652450  41.0642719 107.7617284  95.2565998  40.6989861
 106.9775435  95.2812689  41.9933701 111.3026782  68.5832983  38.9759922
 110.5685207  68.1707030  38.5210061 112.0794364  68.2607728  38.5189867
 109.0160366 104.6507958  67.0376778 108.6309906 103.9123600  66.5657806
 108.5749336 105.4207045  66.6786528  37.9003596   2.8020668  44.9532795
  37.0181298   3.1453016  45.0950241  38.2232380   2.6012582  45.8317184
  15.2941322  85.8393568  24.3512702  16.1836004  86.0905176  24.1022825
  15.4139470  85.1741487  25.0290418  90.1596642  13.7793887  42.4217081
  90.9206390  13.3052409  42.0865440  90.4923058  14.6538639  42.6238823
  31.5371037   0.9059081  50.8533430  31.1430860   0.3348653  51.5128088
  31.7164779   1.7222920  51.3197899  69.5299931  25.0749786  79.4674087
  68.8642092  25.4655917  80.0334346  69.6836729  25.7327492  78.7892103
  41.3751316  18.1456506  68.5342979  41.0046053  18.5645020  69.3111563
  41.9607592  18.8053906  68.1627941  88.3668137  40.1250315  59.0667534
  88.2025909  39.1917849  58.9314318  89.0150738  40.1545906  59.7703981
   4.8659281  37.9422222   6.4948845   5.7194332  38.3755385   6.4943886
   4.3910746  38.3476208   5.7693577  28.5582065  92.0269984  66.1447573
  28.7319040  91.3509243  66.7997265  29.3831205  92.1155470  65.6673622
  57.6495981   7.5809330  36.6234994  58.0831861   7.4970853  35.7742620
  56.7531061   7.2853154  36.4649343  21.7227221   7.5138855   6.1199969
  21.3122439   6.8635911   5.5500358  21.4313269   7.2783583   7.0008188
  18.3416795  99.4165456  73.2603025  17.8787326  98.5810697  73.3226776
  19.2681884  99.1765094  73.2461929  63.9271212   2.3601262  52.9662228
  63.3337927   3.1097269  52.9183626  63.5759306   1.8215793  53.6753511
   0.0251316  97.6416325  67.8699493  -0.4010940  98.0056184  67.0940113
   0.9612393  97.7499437  67.7020073  33.7665129  25.1299167  20.0433207
  33.6283064  25.9275889  20.5540538  33.8253045  24.4337487  20.6976342
  75.7396269   5.0059342  51.4554644  75.3014088   4.1863209  51.6844368
  76.3942623   4.7537151  50.8042574   0.6031059  71.5244752  15.0201523
  -0.0309659  71.5837341  14.3055391   1.1130356  70.7386785  14.8233533
  62.6582097  95.3340775  44.3886948  63.1197118  95.7150703  45.1357555
  63.3391332  95.2003294  43.7293816   0.6704735  93.5227722  65.5576658
   1.4315843  93.9738208  65.1922941  -0.0539494  94.1358703  65.4329538
  42.3393583 100.0830924  53.0344915  41.7726850 100.2812129  52.2889328
  41.8915223  99.3724984  53.4935474  86.9257827  58.5211952  89.5193796
  87.6907440  58.8519544  89.0485692  86.9440217  57.5756354  89.3716764
 103.0001231 101.0943573  88.3669090 102.9543873 100.1489168  88.5093307
 102.1080896 101.3436019  88.1252766  13.1053972 102.7977064  44.3061352
  13.8622903 102.3860106  44.7230959  12.8308868 103.4754652  44.9238062
 105.9472104  99.9165970  49.9541140 106.6735693 100.3953886  49.5548773
 105.3941985  99.6610749  49.2157888  66.5209675  13.0398691  47.3165560
  66.5569782  13.7161839  46.6401434  65.9427834  13.4027672  47.9875565
  71.9780731   5.6605369  42.0391655  72.8665447   6.0155553  42.0107794
  72.0919037   4.7522560  42.3189831   8.2262176   0.3443760  64.4572878
   7.4008942   0.1225910  64.8884344   7.9710048   0.9079954  63.7269258
 101.8449684  99.1552895  25.3925657 101.3159867  98.4483814  25.0228477
 102.7381846  98.9590221  25.1099396  14.7967576 101.0479003  80.8034515
  15.5237102 101.0756099  81.4255428  14.4924306 100.1407838  80.8309460
  15.4516029  62.8853160  35.7220387  15.4929637  63.6962777  36.2288570
  15.9222697  62.2450810  36.2557101  23.7979627  25.6760049  13.2912838
  24.7293568  25.8961415  13.3080316  23.7320280  24.8740816  13.8097441
  45.9893847   0.4960119  42.7555084  46.2181425   1.2226856  43.3350325
  45.3620386   0.8709645  42.1373844  36.6274619   6.3346916  28.1423545
  36.2007761   6.6716367  27.3545480  37.1782446   5.6175673  27.8283381
  37.0697164  87.9308313   2.0718454  36.2598562  88.2387417   2.4787243
  37.2927999  88.6117238   1.4371406  21.5646457 101.3250988  49.2954922
  22.3199462 100.8074105  49.5743370  21.8084049 101.6584703  48.4319687
  72.3080158  12.9391313  41.3502121  72.2768259  11.9850206  41.2799931
  71.7552757  13.1419468  42.1049118 105.9845348  84.9877959  37.1603298
 105.8028837  85.2337652  38.0673766 106.9364163  85.0502807  37.0812607
  88.2477188   1.0337301  48.6511278  87.5999165   1.2113714  47.9691982
  87.7626705   1.1234000  49.4714499  99.3263908   7.7037198  90.6683793
  99.9992557   7.9582746  90.0369599  99.2356677   8.4648807  91.2416475
  57.4131298  25.6633162  41.0736656  58.1577063  25.6063747  40.4748392
  57.7467012  25.3226519  41.9036722  60.6276798  26.9504333  35.0103951
  61.4071703  27.0734978  35.5521369  60.1872253  27.8000951  35.0279427
  65.8439111 100.1423263  26.7687225  65.3405332 100.8002084  26.2891078
  65.8755826  99.3885749  26.1795807  27.2548938  13.0627358  16.3259447
  27.5820947  12.1845174  16.1312580  27.5535274  13.5980320  15.5907512
   9.6656799  82.7845579  51.8034649  10.3594922  82.4830609  51.2169886
   9.2261838  81.9827562  52.0866394 106.8511792 100.3650492  36.8292880
 106.9256326 100.5856880  37.7577305 106.2225028 100.9980076  36.4823532
  70.9523821  24.1009808  28.9318323  71.3736963  23.5743380  28.2525849
  70.5703926  23.4589243  29.5302248   5.8533429  97.7368223  27.2205520
   5.9209966  96.9469756  27.7570176   5.8068179  98.4531611  27.8537393
  98.9240905  93.5198682  57.4147463  99.3309971  92.9704553  58.0846739
  99.6053239  94.1475254  57.1735048  11.7911887   1.7340159  30.7028461
  12.1529543   2.5914043  30.9269953  10.8429694   1.8518753  30.7595992
  69.1333218  56.8651948  78.5543454  68.8314624  57.7728946  78.5888946
  68.3369036  56.3531141  78.4139061  37.6617860  94.8919552  85.7000732
  36.7707490  95.1246220  85.9611225  37.9128694  94.1919654  86.3027287
  57.2586060  17.0629847  42.1615362  58.0225992  16.4957106  42.2651911
  57.6255274  17.9274416  41.9762850  35.7582164  14.2133951  52.7335167
  35.7602596  13.3804357  53.2051182  35.4860330  14.8578537  53.3868361
  42.1550417  16.0421562  36.6251874  41.2592220  16.0020602  36.9600415
  42.0529366  16.1187315  35.6765342  32.2555637  89.5571357  68.0912018
  31.9395398  89.2927617  68.9551878  33.1627654  89.8240870  68.2393646
  47.9200363  16.2344885  63.7178946  48.6533976  16.7722082  64.0166855
  47.7770662  15.6086075  64.4278669  17.9199838  97.3806256  54.2050314
  18.6460399  97.9604137  53.9749813  17.4774360  97.2095412  53.3736992
  65.2858734  12.1164358  76.5973377  64.3606138  12.1929193  76.3643599
  65.5957794  11.3584149  76.1017656  33.2697940   8.3548272  14.6844280
  32.8981662   9.0520960  15.2247441  34.0622473   8.7390059  14.3093896
  12.8570031  84.9586946  46.0325193  12.9025697  85.7120651  45.4438019
  11.9689559  84.9863988  46.3886595  39.4376397   5.6655550  12.6812887
  38.9944696   6.5058041  12.7988219  40.1984024   5.7129633  13.2602787
  57.0279503  10.5896795  31.9661117  57.0481539  11.0126126  31.1076522
  56.7836761  11.2892354  32.5720692  86.8699455   6.1431730  37.1434879
  86.5633202   5.5224425  37.8044772  86.1268520   6.2466002  36.5490580
  71.5145493  15.9249210  36.3081121  72.1780014  15.5277741  35.7438993
  71.4221621  16.8182600  35.9769917 103.5160637   3.3309427  19.2496467
 104.3738174   3.4309390  19.6625638 103.2521343   4.2235714  19.0265179
  26.6332030  12.2494495  64.4714880  26.6579866  12.4656248  65.4036331
  26.2452245  11.3750207  64.4386435 111.4372297 105.3859945  90.9260178
 111.7188116 105.6864453  91.7901230 110.7778331 104.7165292  91.1083508
  37.6329708  11.9959748  13.8901484  37.2291040  12.8509414  13.7413001
  38.4867501  12.1977806  14.2729878  43.9916897  15.0693631  38.5810924
  43.4718704  15.4225898  37.8591132  43.6245203  15.4800093  39.3639016
  41.5231705  17.0209777  66.0099745  40.5997181  16.9705939  65.7631302
  41.5652084  17.7460325  66.6334820 103.1950971  91.9363671  25.3924537
 102.5739666  92.5950092  25.0816154 103.0496021  91.8971854  26.3377190
  69.2957687   9.8221105  47.6261997  69.3651104   9.5798606  46.7027617
  68.4110117  10.1764154  47.7150869 102.7536389  87.8904348  46.7123938
 101.8436309  88.1799954  46.6470337 102.6979920  87.0048040  47.0712709
  26.1111974  86.1735493  34.3509150  26.3595962  87.0951599  34.2790484
  26.7984628  85.7027894  33.8794422 105.3581258  96.4702540  87.9459190
 105.0850888  95.5538934  87.9015923 105.5294415  96.7134100  87.0361042
  18.1640029  31.4870572  32.9845405  17.6326776  30.6937742  33.0525780
  17.5763381  32.1365547  32.5984931  64.8262405  33.4157419  15.2726579
  65.2160549  33.8634801  14.5217872  64.0644503  32.9620719  14.9119818
  98.3659363  28.2736301  61.1571169  97.4518204  28.5530782  61.1068153
  98.4263802  27.5406718  60.5444574  55.9976912   1.8418320  59.7579670
  56.4832973   1.7978115  60.5816650  56.3560534   1.1281817  59.2302227
  56.5930986  32.5822401  72.2118855  56.3505030  32.5318623  71.2873125
  57.0965719  31.7838955  72.3712444  51.0872792  95.8308524  63.9403486
  50.4848241  95.8045602  63.1969881  50.7618665  96.5459007  64.4871998
  27.2135543  85.7027393  71.4642954  26.9630574  85.1920396  70.6944466
  27.2210931  85.0679880  72.1807241  18.1220054  87.4427515   1.0423649
  17.6970863  87.6984423   1.8610829  17.5554132  86.7610198   0.6811872
  50.2532434  78.1882530  47.7894688  49.6348619  78.1700665  47.0590544
  50.8908986  78.8596183  47.5467777   2.8719281  98.0216729  84.7286797
   3.6204290  98.5139799  85.0657463   2.5588440  98.5396969  83.9871502
  23.5623311  92.3634869  61.5057993  24.4288873  92.2549373  61.1139679
  23.6710738  92.0738679  62.4116278  46.5458535 103.7962764  66.9281960
  45.8652066 103.2707670  66.5077257  46.5381860 103.5113421  67.8419733
  86.3940509  92.1469182  20.5306125  86.1399742  91.6102916  21.2814164
  85.7687529  91.9113022  19.8452508  43.9762067 100.5636924  57.8759193
  44.8218774 100.5403518  57.4281263  43.3329248 100.4286912  57.1800756
  45.3613234  27.9554439  54.9842739  45.9630728  28.4917474  54.4680262
  44.4900370  28.2419324  54.7103930  38.8847780  85.6836205  49.6650505
  38.8664960  86.0722738  48.7904930  39.0449189  84.7527104  49.5101500
  94.6354008  10.3415084  54.8446655  94.5066547   9.5299703  55.3356457
  93.9345360  10.9186435  55.1478815  36.7554139  95.6469488  57.2420692
  35.8591413  95.9567493  57.3722792  37.0991658  95.5292177  58.1276226
  92.9970837   1.5570283  42.1348381  92.8174782   2.4960062  42.0869637
  93.1654739   1.2988745  41.2286186  25.2503181   3.1069010  91.0510254
  26.0929227   3.5240495  90.8714771  25.4710078   2.1968037  91.2491417
  35.0806046  29.5137262  40.2175713  34.2529440  29.3374920  39.7701883
  35.7446885  29.1049314  39.6624947 103.6258432 101.4500326  53.2076788
 103.5541817 101.7549434  52.3031759 102.7502199 101.1282122  53.4220314
  54.5952415  41.7181540  34.9663186  54.9086142  41.9210958  35.8477044
  54.8010588  40.7910585  34.8464918  11.2517738  78.9377004  49.5985508
  11.4497804  78.6445266  48.7091255  11.8633651  78.4524828  50.1524067
  97.7052184  73.8466817  45.6809282  98.3706995  74.5073920  45.8728313
  98.1814834  73.1521398  45.2259398  69.7683430  33.7567782  11.3535738
  70.1253843  33.3780622  12.1568954  70.4274130  33.5671091  10.6858325
 108.8505145 100.2128046  13.7116194 108.2713624  99.4538814  13.7812722
 108.2761189 100.9281626  13.4385526  50.2360964   9.5440561  21.9934440
  50.4122019   8.9304966  22.7067208  50.4560137  10.4022348  22.3559308
  87.4959870  94.9097365  37.5240040  86.7327150  95.0376266  36.9607162
  87.7207645  95.7897198  37.8262234   2.8511190  94.0456563  53.8826084
   2.4366926  94.8825389  54.0926266   2.5388765  93.4468502  54.5609617
  29.0484285  80.3462201  51.7721653  29.4053601  80.9629231  52.4113131
  29.1584920  79.4875294  52.1805382  68.2294798  27.3964143  44.6538067
  69.0003538  27.4629951  45.2173233  68.5133457  26.8464255  43.9236259
  34.7823143  11.7229939  56.2299109  35.1671124  11.5392280  57.0868778
  35.1907206  11.0869753  55.6426191  27.9031705 103.8214344  30.8951211
  27.0057725 103.6379811  30.6171751  28.1110095 104.6645649  30.4924226
  21.8102073 101.0776907  39.6833253  21.7166614 100.1348835  39.8196959
  20.9116506 101.4068773  39.6616554  62.3601127  49.8779743   7.7808952
  63.3157039  49.8664387   7.7266407  62.1746779  50.0466095   8.7046909
  86.9135475   0.3453457  71.9485188  86.0827160   0.6659573  71.5975761
  87.5288582   0.4272130  71.2198734 110.2032944  81.2664014  26.0410428
 109.8442932  80.4053193  25.8268332 111.1474463  81.1700040  25.9164643
  94.2999649  13.6551535  23.7487984  94.2800331  14.6120214  23.7333584
  93.9173126  13.3940697  22.9111600   6.6467427 103.5747780  60.0196981
   6.2234353 102.7185586  59.9570227   6.3708734 104.0368695  59.2281199
  63.5371304  11.4370489  62.3559856  62.8333092  11.3679338  63.0010366
  63.7269497  10.5315018  62.1106577  32.9360390  40.2810764  40.9651136
  33.1447649  39.5105648  40.4369307  33.7331223  40.8105516  40.9417629
  43.9886618   1.7019512  37.8926396  43.1099129   1.5240662  38.2278943
  43.8591576   1.8720901  36.9596267  77.6087999   2.6660863  33.2143307
  78.4127283   2.7544838  32.7023578  77.0823526   3.4262031  32.9667211
  22.1803212  24.3390083  22.8863883  22.1944499  23.8273644  22.0775294
  21.2807989  24.2601514  23.2039928  28.2541847  42.4073648  45.7346487
  28.9242268  42.1152163  45.1166534  28.6309290  42.2320843  46.5969563
  30.1265192  28.5334063  31.9934082  30.9521937  28.8575721  32.3531413
  30.3573847  28.2005572  31.1261463   0.5017375  83.6773330  63.0726957
   0.5268096  83.1073385  63.8412714   1.3194322  83.4925347  62.6106787
 105.1487204 102.4060896  35.8724308 105.7531496 102.5669294  35.1478434
 105.1501390 103.2229823  36.3713455  62.9596853  26.6188860  43.2354212
  62.0111227  26.4951324  43.2693672  63.3149719  25.8862424  43.7386465
   3.6627311  11.8378043  28.3713818   4.0684000  12.0781422  29.2043877
   3.0211219  12.5293481  28.2090950  37.5254369  36.7550921  59.6447992
  38.2527328  36.8930721  60.2516222  37.9086876  36.2611485  58.9199734
  96.2212368  89.2174452  21.9564486  96.9031306  89.4715529  21.3346100
  96.3864061  88.2902223  22.1273494 106.6024304  50.7951805   6.5588760
 106.4496470  51.3546980   7.3203468 107.4565697  50.3954621   6.7228889
  49.3679142  32.8874159  33.9102435  48.8510895  32.1346450  34.1974044
  50.0872231  32.5060892  33.4068441  43.9733075  92.5198430  78.6136818
  43.3071183  91.9228416  78.2730770  43.7055539  92.6870924  79.5173216
 101.2282654  95.9851914  52.5801182 100.5745693  96.3358593  53.1850529
 100.8877655  95.1258987  52.3313046  25.5757522  76.1639696  76.5880919
  25.2288484  75.4024225  77.0527792  26.4677428  76.2619668  76.9212294
  51.4013195  33.2359934  57.6528358  51.8327904  33.0698895  56.8147039
  50.8420706  33.9951444  57.4880219  16.4746618  85.3236156  70.0519133
  15.6600379  85.5618220  69.6093273  17.1214246  85.2662569  69.3486118
  87.1647549  13.9457023  43.1280327  87.4101830  13.4528267  43.9110231
  87.9873466  14.3206680  42.8134251  28.8534402 102.4472740  27.2640848
  28.5018825 102.0705309  28.0707479  29.2490434 101.7057502  26.8059659
  24.7592162  80.0345736   9.0528625  23.9319944  79.9632960   9.5291513
  25.3568935  79.4528132   9.5225090  12.1823882  82.9485470  36.0050082
  12.8920936  82.3235470  35.8569336  12.1014261  82.9977637  36.9575071
  56.8270779  24.3739295  20.0150990  57.3411274  24.0410662  19.2794466
  56.0232592  24.7056103  19.6149778  62.0511723  16.0939145  40.2651978
  62.3034763  17.0003283  40.4412365  62.4445200  15.8965826  39.4151545
  97.8140926  16.3868189  39.7558880  97.9408455  15.7154310  40.4262638
  98.6902714  16.7402720  39.6022177  46.1846924   2.4742037  45.1510763
  46.6318846   3.3041483  44.9854279  46.8097973   1.9639024  45.6659222
  35.3843259  85.9605258  53.5626459  35.2222108  85.0796872  53.9003992
  34.8183393  86.0301846  52.7938557  46.6772890  28.4208107  45.5990696
  47.1152401  27.6811409  46.0201645  47.0750761  29.1940641  45.9991693
  18.5901606  11.7019904  40.9371376  17.9100609  12.3743260  40.9778929
  19.0071571  11.7306173  41.7982578  73.0737782   5.9059036  17.0605338
  73.9775181   5.9028739  17.3759294  73.1529856   5.9016532  16.1066270
  56.1164141  40.6316185  41.1076260  56.5526724  40.3463984  40.3047800
  56.4830303  40.0711536  41.7915106  94.3401432  31.7090440  44.0750742
  93.5677433  32.0179629  43.6015701  95.0600910  32.2363186  43.7288380
  72.9431772  26.1231351  49.0904665  73.4634447  25.7290101  48.3903074
  73.0763388  27.0653081  48.9865017  44.7472572  27.5835109  31.3196158
  45.2055025  26.7847562  31.0583973  44.8892498  28.1897497  30.5926037
  68.8123560   8.9602989  37.2911072  69.1073370   8.9027035  38.1998992
  68.8610649   9.8931408  37.0821452  76.6120148  10.7652199  71.8421602
  77.3358345  10.9282970  71.2374067  76.5755129  11.5498817  72.3891544
   8.4220218  97.6286679  52.2183800   7.7235650  96.9922179  52.3710871
   7.9798221  98.4774899  52.2322178  57.6080227   4.2598411  26.2793827
  57.5947571   4.5206088  25.3584838  56.9635630   4.8297757  26.6990042
  25.0309896 101.9723513  36.9018149  24.6501493 101.1125087  36.7233109
  24.4766378 102.3418289  37.5891352  32.6440238 104.6286507  60.4387426
  32.3960542 103.7992339  60.8471680  32.8496217 104.3975357  59.5329046
  23.7546492  16.7032790  42.8139544  23.1743431  15.9843731  43.0642557
  24.1333532  17.0040894  43.6399889  29.0277219  -0.1342184  54.7082806
  28.1351757   0.1891316  54.5856667  29.3330455   0.3013199  55.5040932
  50.9644127  20.4729962  33.5200715  50.3896666  20.4817104  32.7546835
  50.7157326  21.2535095  34.0152359   9.4149732  96.7892736  65.9459734
  10.1059484  97.0384526  66.5597296   8.7158155  97.4242002  66.1017895
  34.0506028  83.0804020  49.6434736  33.2585716  83.0904585  49.1060543
  34.6666669  83.6416608  49.1726398  80.0460625  15.0509810  49.8633909
  80.4189587  14.1702402  49.8250008  79.9609327  15.2344644  50.7989740
  37.9858518   9.7539908  49.4142628  38.2658100   9.7255057  48.4993601
  37.6552868   8.8732630  49.5911169  56.0771418  28.2557559  41.7586470
  56.3889313  27.3901296  41.4946222  56.8449736  28.6805439  42.1410322
  47.3596382  20.8764315  29.0847325  47.2152138  21.1271739  28.1723166
  48.0159950  21.4964747  29.4025016  95.1869774   9.1498953  57.9434633
  94.7288132   9.9857086  58.0313826  94.8900986   8.6340046  58.6930990
   9.5180893  18.6199796  77.1478176   9.9937820  17.9141927  76.7098522
  10.1768625  19.0508819  77.6924038  53.6142682  79.4899970  20.7055378
  53.8430166  79.6955639  19.7990906  54.2679548  79.9539739  21.2286472
 110.5277391  25.9434469  73.7970257 109.8393483  25.6540902  74.3958735
 110.4499336  25.3594930  73.0425870  40.8342314   7.2502792  34.4555330
  40.8321238   7.5162745  35.3750300  40.9822321   8.0627155  33.9715147
  84.9923047  70.1708179  48.6833763  84.2222854  70.5612403  49.0967417
  85.6234332  70.0734192  49.3964148  74.6208858  29.8727512  71.4029455
  75.4778099  29.7947407  71.8222618  74.8050499  30.2769232  70.5550289
  30.5746651  48.8106775  67.3325014  29.8646951  49.1291571  67.8899479
  30.1478386  48.5868835  66.5054750  62.7075768   2.1762782  42.1328592
  63.0664778   2.1538579  43.0199432  63.3945179   1.7939338  41.5868235
  72.7568054  25.2984333  30.4640269  72.4014473  24.9745107  29.6363640
  72.5645733  24.6048069  31.0950279  63.8514137  27.1173954  17.5897181
  63.2085991  26.6830945  17.0290005  64.0415430  26.4778018  18.2760155
  57.3074007  40.0652790  34.1428781  58.2140112  40.0162411  34.4459963
  57.2836018  40.8415174  33.5833097  37.2156811  29.2694879  68.8719606
  36.3860798  29.6008706  69.2157316  37.8741169  29.8777580  69.2076731
  68.6637831  24.0746284  20.2712655  68.0605316  24.0370965  19.5290315
  69.5168591  24.2576218  19.8775554  40.6165028  31.6174793  46.0358286
  40.2435493  32.0655584  45.2766418  41.3204718  32.1942782  46.3324118
  56.1587238  23.1958675  28.7909913  55.5270529  22.5183678  29.0322733
  55.7128620  23.7103295  28.1181121  67.8927565  19.4920218  63.8408613
  67.1527338  20.0983238  63.8093615  68.6595058  20.0552273  63.9463568
   1.6305684 105.1030671  67.3106623   1.7980098 104.8037098  66.4170313
   2.4954199 105.3273200  67.6541376  92.1464348  33.9163399  22.8292727
  91.6524792  33.5922027  22.0761561  93.0255127  33.5561514  22.7121472
  23.9559841  15.4524159  25.2965045  24.3080735  16.2695718  25.6493783
  24.3472219  14.7685444  25.8400869  11.0351466 105.3538853  41.3793230
  10.8235978 104.8090593  40.6212711  10.1881885 105.5389944  41.7850733
  69.7386837  17.9084373  26.9790125  69.0352058  17.2731102  26.8459344
  69.8264408  18.3491516  26.1338472  52.5414753  33.8251328  39.2299104
  51.6742563  34.2115831  39.3516350  52.4048567  33.1270432  38.5894132
 105.3107735  77.3002940  18.4585679 104.4927212  76.8094188  18.5364640
 105.6981751  77.2604829  19.3329620  36.2312603  43.9662027  39.5057130
  36.6421795  44.7978020  39.2694545  36.0145998  43.5592556  38.6668539
  59.0101147  25.5485654  53.6125278  59.2901421  25.8674169  54.4705200
  59.6575165  24.8824048  53.3815908  63.6485815   4.3776655  28.1954193
  62.9664946   3.9604360  27.6692009  63.5605669   3.9790741  29.0612173
  11.5291870  31.5376973  55.9101534  10.7694745  30.9825277  55.7345057
  11.8805957  31.2080884  56.7372561  10.4101133  87.7806717  58.0148315
  11.0878038  87.1759206  58.3168936  10.5048846  87.7902490  57.0623827
  99.1937586  89.7109240  59.6338177  98.7984081  89.8434800  60.4954243
  98.7466785  88.9416188  59.2809439  46.0865688  12.9000497  77.2492456
  45.9695530  12.4524629  78.0872202  45.5496502  13.6891222  77.3221445
  47.3249102  10.9852087  29.7079968  47.9782963  11.4596379  29.1939569
  47.5068665  11.2334335  30.6143665  68.6832428  14.8790514  78.5474682
  67.8990746  14.3344092  78.4790802  69.1823673  14.4911087  79.2662191
 108.4163284  12.1341360  37.7573085 108.3327389  12.4047709  38.6716390
 108.1774521  12.9126811  37.2542834  70.6976461  15.2746034  60.8263254
  71.6484308  15.2997518  60.7185793  70.3905201  14.7147715  60.1132393
  48.8188982  32.2717571  44.6586275  49.4539309  31.6499472  45.0140429
  49.1377926  33.1284380  44.9425888  51.0321903   6.3176143  47.6406908
  50.6989193   5.7217878  46.9697571  51.9765759   6.1619055  47.6515722
  80.6154060  23.2242441  62.9786777  80.2732277  23.0969787  63.8635206
  80.5020618  24.1596746  62.8102922  37.7552985  95.9070921  31.3989043
  38.6639833  95.9084880  31.0980368  37.4741267  96.8182945  31.3159275
  50.2332067 105.1939304  60.2775574  50.9211206 104.7444503  59.7866631
  49.4782781 104.6079639  60.2231979  31.0599183 100.0503283  48.3801651
  31.5343236  99.3203807  48.7780952  31.6349982 100.8054870  48.5036659
  33.9465261  24.7523689  54.8491287  33.9864063  24.4114685  53.9555836
  34.8568487  24.9468160  55.0721455  62.0059729   9.1476256  48.2770967
  61.6302347   9.8333049  48.8292742  62.8190851   9.5271695  47.9438925
  43.2696009  40.5897760  11.8782854  43.2642031  39.7812986  11.3658738
  43.5933542  40.3254080  12.7394056  33.6024833  14.5208514   0.5516430
  32.9319263  13.9203107   0.8771215  33.5330749  14.4636250  -0.4013206
  81.3411999  26.5423179  58.0297232  81.3358402  27.3098207  57.4577570
  81.6265392  26.8786788  58.8792372  55.9436512   3.1203419  79.7062063
  55.7605314   2.2423252  80.0405502  55.1693773   3.6321026  79.9403620
  35.8077145   0.4158143  51.2011909  35.4349279   0.3633147  52.0812511
  36.7542243   0.4339553  51.3427019  59.1831350  27.6817107  57.1225548
  59.6997738  26.9281673  57.4080133  59.7959614  28.4165072  57.1499872
   3.9336061  94.3493837  90.6753349   4.7235154  94.8797816  90.7800007
   4.2414331  93.4455031  90.7422543  33.7067413  94.2428070  35.5147147
  33.6949682  95.1587111  35.2368450  34.6099281  94.0880400  35.7913661
  78.6294603  13.4013557  47.6570129  78.6285734  13.8445783  48.5054159
  78.0159044  12.6747477  47.7657413 104.7970009  23.5704207  44.2850637
 104.8470211  24.2278504  43.5911512 104.6964359  24.0787911  45.0898457
  74.7889566   4.3743652  44.6160650  74.9981356   4.0967923  43.7241936
  75.2601099   3.7571001  45.1757336   9.3433738  11.6177690  44.9207497
  10.0578904  11.4739323  44.3002605   9.0192354  10.7395649  45.1205540
  31.8342924  16.2445414  35.8181214  30.9933424  16.5382135  35.4677057
  32.3826933  16.1116695  35.0449252  71.0453796  18.4139693  35.6790423
  70.1979589  18.5926545  35.2713943  71.2828922  19.2360318  36.1080313
  39.7510242  36.4839363  51.4390850  40.4286718  37.1568942  51.3746500
  39.7437072  36.0680795  50.5769730  37.6683569  34.6185017  53.3240271
  37.4869514  35.4561925  52.8978825  38.6230350  34.5814013  53.3826876
  86.2362766   7.1209812  59.6944284  86.2775612   6.4494890  60.3753281
  85.5147076   7.6899147  59.9625540  93.1538769  95.0815421  50.2430487
  92.6555678  94.8239594  49.4674397  93.9042410  94.4873458  50.2538776
  45.2576733  37.7654743  70.4231119  45.5824566  37.9393911  69.5396519
  45.8206320  38.2896900  70.9927702  89.4210815  10.7798553  47.7098131
  90.0539970  11.4569128  47.4705744  89.9570274  10.0175583  47.9286575
  31.0080861  93.1497198  85.0037193  30.3297376  93.0261534  84.3397808
  31.7032623  92.5418180  84.7518921  87.3281097  30.1246285  35.1085114
  86.5151882  29.7661352  34.7523260  87.9671383  30.0146556  34.4043946
  60.5605698   6.4697158  62.5960636  60.4803038   5.7170814  63.1820059
  61.4972734   6.5278804  62.4078178  23.5671949  75.8396584  70.5811596
  23.4751748  76.7923504  70.5692482  23.3850288  75.5927545  71.4878464
   4.8884200  92.4877137  59.1743231   5.5572986  92.3140198  59.8366404
   4.0589666  92.3218351  59.6223402  71.1637259  28.3061981   8.5887444
  71.7731810  28.6666751   9.2328328  71.2470245  28.8843274   7.8304172
  61.7770624  32.6547861  29.7463965  61.8866873  33.0478644  28.8805437
  61.2362623  33.2813835  30.2271676  44.4897270  10.8768332  58.1287432
  44.6917820  11.4872146  57.4196291  43.7987566  10.3175664  57.7737665
  55.1139307  21.8097138  18.8739836  55.0259352  20.8703184  19.0352952
  55.8566856  21.8812394  18.2744586  57.1575832  30.7679057  62.8819799
  56.2391567  31.0359907  62.8527689  57.4309826  30.9473658  63.7815762
  28.6328410  93.7078625  50.2513552  28.3195590  94.5344859  49.8842335
  28.4058618  93.0518073  49.5923376  91.3606358   5.2809691  52.1573925
  90.7369709   5.1118940  52.8635645  90.8150768   5.4064780  51.3809681
  23.7011290  35.9060717  57.7962971  24.0339661  36.4206648  57.0610094
  23.6934423  35.0048375  57.4738836   3.3891534  98.9165371  56.0099173
   3.2166719  97.9781383  55.9331703   3.2242202  99.1157919  56.9315052
  54.6979475  21.5528083  65.8670425  54.6431971  21.0589266  65.0489283
  55.5312538  22.0202470  65.8093214  60.3291941  17.0519590  29.9817896
  60.1590300  17.2429514  29.0594029  59.9473143  16.1854029  30.1213598
  96.2761327 102.7956876  17.2369540  96.0587307 102.8904533  16.3095987
  95.5189224 103.1560054  17.6985109  25.7409835   5.9938157  42.9325676
  25.7419538   5.0433683  43.0460644  26.1155915   6.3325101  43.7456989
  73.3863497  29.9428082  29.6982527  73.7916851  29.7106290  30.5337334
  72.7781630  29.2255735  29.5195913  45.7188749 105.3054263  56.9219732
  46.4094877 105.9015430  57.2116852  45.3266858 104.9811792  57.7327061
  61.1950063  90.2046758  52.4408245  61.3514280  89.9424642  51.5336275
  60.6010007  90.9523767  52.3750019  65.6698656  52.0388556  14.0849817
  66.3502645  52.2573090  14.7218215  64.9915981  51.6015005  14.5996702
  44.6919918  20.7118917  76.5116549  45.1668739  20.6638789  77.3413658
  45.2640772  21.2209558  75.9373665  25.4335165  -0.0262355  39.1954851
  26.1348152  -0.4815344  38.7295270  25.5094171   0.8847420  38.9115977
  79.1498327  27.3455858  30.5644441  79.5578289  26.7281294  29.9573874
  79.6837664  28.1370735  30.4959059  77.5793648  21.3847399  29.3059373
  77.5521421  20.5059338  29.6843410  77.7211809  21.9637084  30.0548792
 109.1023918 100.4266867  52.7589130 108.8346001 100.9955626  53.4806442
 109.9821969 100.7270398  52.5309610  24.4018912  22.8105879  40.1464033
  23.8353395  22.0395303  40.1732969  23.8027406  23.5513735  40.2385521
  40.7757187  28.2884288  64.8220158  40.3783989  29.0052056  65.3165913
  40.2105856  28.1834388  64.0566206  74.2970419  39.5819879  21.4529872
  73.8155079  39.0412807  20.8268929  73.7310553  40.3397942  21.6000104
  39.8710322  19.8958206  13.6985898  40.6042242  20.1344252  14.2657983
  40.2806091  19.6439314  12.8709233  61.6801595  71.6193753  41.8795776
  62.3780488  71.2353474  42.4103308  60.8733415  71.3815957  42.3364687
  73.4889555  21.9012475  44.9158573  74.0952396  22.1933293  45.5965471
  72.8545618  22.6138234  44.8383379  44.7926903  37.5683999  75.7299328
  45.4247427  38.0851769  76.2296104  45.0093508  36.6593695  75.9371901
  72.0517111   6.1429828  25.6826878  71.2911367   5.6235373  25.4220510
  71.7628098   7.0513260  25.5950475  76.7424393  15.5736673  43.2337284
  77.1876383  15.6067538  44.0804529  77.2461700  14.9400151  42.7228737
  77.4802351   2.8523877  35.9690785  77.6498318   2.8836259  35.0275397
  76.9988632   2.0352629  36.0987568  67.5973558  16.7208207  63.0947733
  68.2428741  16.4014137  63.7252617  67.5719118  17.6671135  63.2365894
  27.2593045   1.1197978  77.7311850  26.8987012   1.6350567  78.4527826
  28.0313826   1.6102573  77.4490881  54.7677326  34.7158241  29.7219396
  55.1212740  33.8264132  29.7355628  53.8808680  34.6157598  29.3759823
  77.4089670  20.5261731  58.8776016  77.2871256  21.2811399  58.3019161
  78.0732059  20.8089662  59.5061255  44.1879177   3.3647600  47.4615097
  44.7699833   3.6897764  46.7746353  43.3425474   3.2538712  47.0264339
  53.5731888  24.7516775  43.0489683  52.9116106  25.4282784  42.9048967
  54.0804863  25.0680447  43.7964964   3.3604335  95.7699775  51.9429159
   3.2932805  95.1399749  52.6604271   2.9134607  95.3467113  51.2099123
  66.2742090   4.5738685  65.4198647  66.9377422   4.3635270  64.7628117
  65.5003214   4.0823698  65.1446104  92.6015472   1.5882115  51.1276054
  91.9660091   1.8555428  50.4636383  92.9881859   2.4087942  51.4332008
  33.8793921  11.6997659  67.9755640  33.3000565  11.2333488  68.5781050
  34.5390463  12.1019626  68.5406542  22.4199009  16.6586041  46.1502504
  22.3602986  17.4964583  46.6092491  23.3200598  16.6264498  45.8263493
  17.0677470  99.1293502  51.3962317  16.5753221  98.4979743  51.9207430
  16.8408727  98.9172452  50.4908228  37.5092530  38.1226444  32.1246433
  38.0241752  37.5651598  31.5412927  36.6797090  38.2494736  31.6642070
  79.0383768  21.8369675  34.2611194  78.1146193  22.0169306  34.0864253
  79.0388393  21.3839149  35.1043153  68.4157324  20.3623319  38.0683923
  68.7442207  20.3582096  38.9674544  67.7906561  19.6380281  38.0384541
  55.0653839  40.4951906  18.3193278  55.8690071  40.9037399  18.6410558
  54.7090435  41.1268759  17.6946509  42.0041990   2.6683050  26.2415528
  42.5750971   2.3449306  25.5446029  41.6930532   3.5154575  25.9225631
  52.6427841  27.4453187  89.0054703  51.7296600  27.2057772  89.1637421
  52.5937796  28.2718229  88.5251331  77.8120036  67.3283250  73.3848369
  78.0125757  66.5681429  72.8388286  76.9659515  67.6385374  73.0620360
  76.4487314 100.3480124   6.0987866  77.3559808 100.5263927   6.3464159
  75.9262609 100.8079168   6.7558587  64.2923546   7.7515393  55.1634264
  64.8960543   7.0505208  54.9177647  63.4434843   7.4659073  54.8256874
  52.5502586  35.4971766  59.7255373  52.9384279  36.2711453  59.3174553
  52.8923130  34.7615528  59.2175102  45.7044267  93.0379575  56.7681360
  46.0880040  93.8657135  56.4784384  46.0809755  92.3814147  56.1821365
  68.1326294  21.8999815  68.0355453  67.2698689  21.7587638  68.4253263
  68.4467649  21.0208488  67.8241777   7.9582738 102.3001760  45.9657240
   8.6935281 102.7876505  46.3372183   7.7520370 102.7607798  45.1523733
   3.2256126 101.1905291  26.9396973   4.1124534 101.5469503  26.9917679
   3.2543706 100.5838257  26.1998892   5.1320552  98.5516530  41.6412735
   4.5448732  97.7957129  41.6431665   4.6599387  99.2204100  41.1451864
  34.3758273  20.3716373  43.6791611  34.0939689  21.1113787  44.2172766
  33.8636851  20.4519320  42.8744888   8.8045072  86.3684684  84.4925308
   9.1236305  86.4449805  85.3917217   8.8894462  85.4375416  84.2866325
  71.3114405  24.8114681  19.2450190  71.2979698  25.4584050  18.5396659
  72.0473957  25.0748038  19.7975206  57.2716618  32.1113968  41.7165375
  57.1574450  32.2391891  40.7748079  56.7602301  32.8142381  42.1173859
  86.9433784  34.7572231  50.1173115  86.4297676  34.0860510  49.6679020
  86.5474129  35.5847478  49.8441029  58.9391088  16.1870801  71.2752581
  59.1745663  15.8047318  70.4299164  58.7809801  17.1116054  71.0842562
  37.9009485   3.3700338  32.5131726  37.0175505   3.6778015  32.3104000
  38.2600975   4.0395811  33.0953670  27.7325010  11.2130906  91.0376427
  27.6214408  11.8827225  91.7125404  28.6053657  11.3758589  90.6800812
  50.9710073  15.0735915  49.3314266  50.0444746  14.8348308  49.3038750
  51.0276079  15.7345283  50.0214911  81.2696838   5.7129389  63.1579161
  81.7870235   6.4404368  63.5033703  81.7904854   4.9341992  63.3543062
  92.8893757  30.5924058  51.0124254  92.7655792  29.7580814  50.5598640
  93.8304043  30.6354642  51.1822128  85.6052685  24.5087934  78.8358593
  85.7393742  24.4804192  79.7831964  84.6870899  24.2659974  78.7165642
  21.0285902  19.1181493  60.0393105  21.9443321  19.1254365  59.7607565
  20.5464292  18.8165987  59.2693663  53.2450533  52.7375555  14.4333804
  53.5495472  52.3654795  13.6056864  52.3462772  52.4204826  14.5222580
   0.7504892  95.6143296  58.9952946  -0.0535537  95.8374554  58.5262918
   0.4530048  95.1191801  59.7585535  59.9427795  16.3235807  42.1682453
  59.8665857  15.3698742  42.1977663  60.6556034  16.5257800  42.7742338
  38.6439370 103.9382440  80.1794052  38.3262586 103.9084545  81.0818577
  39.5002984 104.3614566  80.2407837  59.2605495  20.8867669  50.1935911
  59.3778610  21.8280220  50.3220701  58.3189487  20.7468677  50.2938604
  45.0862551  13.9047503  56.9447899  45.0815010  14.6141481  56.3021660
  44.9957609  13.1077707  56.4224243  63.3097649  24.4669175  45.3195047
  63.4599304  23.5381413  45.4957342  63.8223219  24.9232459  45.9868002
  64.2803669  25.2365732  34.6305299  64.3970203  24.3339705  34.3339920
  64.1438913  25.7371950  33.8261771  75.5330372  14.4511032  37.0537543
  76.0748291  13.6846685  36.8659472  74.9002504  14.1438413  37.7029061
  72.8606987  29.4031215  37.5883579  73.6489630  28.9044523  37.8033113
  72.7267122  29.9764013  38.3430958  85.1878262   5.3322124  29.6874046
  85.2305317   4.4402415  30.0320721  84.3429375   5.3757626  29.2396379
  40.3725242 102.3974940  39.3774486  41.2384795 102.6743522  39.0779471
  39.8443794 102.3587504  38.5800815  25.4186130  58.0370951  78.7082624
  25.0622058  57.4519968  79.3767452  25.8280087  57.4516582  78.0711699
  48.2084990   8.1550163  42.9168606  48.2881212   9.0767443  43.1624413
  47.2653055   8.0045986  42.8536749  57.6512956  92.5755137  43.8918209
  57.8553819  93.3132380  44.4665766  58.3575391  91.9483596  44.0471363
  57.8929186  45.1574612   4.4863182  57.6378155  45.0996971   3.5655475
  58.5509682  45.8522081   4.5094070  15.5244446  45.9017658  38.5863018
  16.1777616  46.3914347  38.0866694  15.4213095  46.3990402  39.3976641
  86.8364334  14.7131228  71.5073013  87.0046616  15.5485582  71.0714388
  87.1089458  14.8566580  72.4135971  62.1946859   5.6892288  54.8332644
  61.5181160   6.3662773  54.8235941  61.9079685   5.0547194  54.1764355
  59.4391346  13.7765563  42.2805119  60.2595901  13.4248674  41.9349623
  59.2029953  13.1797886  42.9906797  64.2154503  32.1808290  21.8877673
  63.4188604  31.6853523  21.6975665  64.6772623  32.2225213  21.0503745
  45.2950430  34.0161800  73.9547443  44.9296331  34.3680263  73.1430101
  46.2389898  34.1507697  73.8705873  69.2978764  39.8918200  17.9085839
  69.2495966  38.9707494  17.6525891  69.0470886  39.8971343  18.8323307
  55.8529663  26.9182110  11.7881763  55.9519005  26.3788581  12.5727403
  56.7194366  27.3006606  11.6496181  74.5582104  25.7100558  46.9404936
  75.3074169  26.2777019  46.7596626  73.9564323  25.8687568  46.2132359
  45.5727720  30.7454515  21.9599557  44.8123693  31.0285568  22.4677658
  45.2048635  30.4237485  21.1369252  49.1192722   7.6125455  33.1791043
  49.6515656   7.2779322  32.4573517  48.4447718   6.9457930  33.3084154
  45.0923109  36.7619991  50.0714684  45.7281876  36.0706568  50.2556896
  45.5048466  37.2911429  49.3887901  13.0695914 100.9354451  85.8163166
  12.5650071 100.3922891  86.4217949  12.8952932 100.5582186  84.9540234
  55.5101156  11.7218125  54.0480709  55.7701111  11.1535501  53.3230114
  55.8266735  12.5897217  53.7975597  67.8194475  15.1987815  40.4804373
  68.5705137  14.6099722  40.4067087  67.8243494  15.6967568  39.6629858
  28.8377141  97.5432992  34.8165107  29.5691013  97.0068013  34.5107746
  29.1934299  98.4308946  34.8597956  31.6978120  98.1269711  50.1953983
  30.9482240  97.6207876  49.8821402  31.5653276  98.1907451  51.1412382
  47.3021650  11.2478709  42.3741293  47.3789978  11.0939622  41.4325142
  46.5419054  11.8228352  42.4615908  79.8705816  23.6917186  44.2635727
  80.7824326  23.9828491  44.2660189  79.3807173  24.4413757  43.9255190
  87.1045494   4.3710569  43.1526136  86.5925026   5.0521821  43.5886288
  87.5085926   3.8801610  43.8681555  36.3839555  27.7713084  33.6318684
  35.5497885  28.1594586  33.8959503  36.2421536  27.4911070  32.7276516
  27.2913646  99.6966976  82.1316433  27.1915960  99.9868434  81.2249470
  26.5637540  99.0904629  82.2705555 110.2037665 104.1768241  26.9034004
 110.5025884 104.0210858  26.0074759 109.2499920 104.1143049  26.8520451
  18.4302615 100.2989006  36.9100285  18.2169961 101.2128341  37.0983791
  17.7114391  99.8002612  37.2984719  67.8343058  12.0596123  42.3128748
  67.3111343  12.8207254  42.0614195  67.9849577  12.1720302  43.2514381
  60.4913568   3.9994860  42.6601887  61.0917377   3.4174660  42.1943283
  60.0279570   3.4264466  43.2710218  71.3589144  23.8080597  61.3435078
  70.5256557  24.2504358  61.1815977  72.0162058  24.3860817  60.9560919
  14.2782736   9.5878476  23.7973285  13.9847934   9.0874964  23.0359149
  14.8423970   8.9826357  24.2786956  59.3105173  14.5331240  29.6950793
  59.4008827  14.9687207  28.8475418  58.3845282  14.2958558  29.7449064
  86.0957146  21.7536235  60.4691505  86.1832142  21.5402317  61.3981485
  86.5020561  21.0157180  60.0145960  86.2004948   5.0188553  25.1403809
  85.4451942   4.5578688  24.7753572  86.5612698   5.5097091  24.4020462
  21.5581131   0.7803679  39.3857598  22.1398902   0.5996060  38.6474562
  20.7156754   0.9881419  38.9815760  62.0067596  47.5045252   2.6258504
  61.5107775  47.7273178   1.8380708  62.7988577  47.0788622   2.2977895
  58.0199766  25.6617808  59.4886208  58.8522911  26.1079216  59.6449518
  57.7062511  26.0236001  58.6598301  73.1243658  11.5351200  34.3880630
  73.8017511  11.0700130  34.8790383  72.4265957  11.6851211  35.0259066
  46.1406183 103.1640678  73.0127239  46.8588495 103.3974482  73.6008644
  45.6145620 103.9612135  72.9490137  59.3105507  24.6398783  47.6724100
  59.5196247  25.4772544  47.2585058  58.8877106  24.1300893  46.9813585
  62.9988575  18.0484521  27.9345822  63.8208818  17.9847407  28.4208441
  62.8711700  17.1749663  27.5645161  39.9304295  30.1081562  35.8473682
  39.8318291  29.4135523  35.1961899  39.3129516  30.7852221  35.5707192
  45.6108665   0.7208001  19.5448983  45.4758406   0.2413746  20.3623033
  45.6585598   0.0404559  18.8732672  60.0270128  85.7364410  80.8740425
  60.4313993  85.3506762  81.6511440  60.6718110  85.6060058  80.1787281
 107.2917148  90.6809729  29.0309691 108.2130500  90.4692667  29.1811514
 106.9256850  89.8900848  28.6350536  13.3150148 105.2995931  35.9553051
  12.3992061 105.0381460  35.8595347  13.7880754 104.4759640  36.0739732
  45.8476448  20.0931263   2.7213761  46.2998867  20.6208944   3.3795324
  45.7917738  19.2206311   3.1110725  38.5732126 104.2715422  62.9273844
  38.0336856 104.7314651  62.2842503  38.2830238 103.3608359  62.8760195
  58.3581208 104.9653458  34.6163106  57.9618692 105.8067451  34.8427200
  58.7977266 104.6839890  35.4186916  32.8526807   4.3743804  41.0551834
  32.4266768   3.5747340  41.3639212  32.8850007   4.2764464  40.1035547
  80.7105827   4.3648082  51.6117144  80.2977467   4.7564304  52.3814106
  80.7198620   3.4256911  51.7966604  61.4880037  17.3983276  35.1573443
  62.1068716  16.7384946  34.8445296  61.8441677  17.6804209  35.9998417
  65.6883097  25.2670550  80.9479141  66.5527439  25.6391549  81.1226368
  65.2660942  25.2288151  81.8061161  71.6553974  13.1761742  71.4172697
  72.4534798  12.6482177  71.3936949  71.1269760  12.7806747  72.1105099
  37.4100637 104.8515216  27.4747300  37.9868745 104.6892360  26.7282820
  36.5309142 104.6716270  27.1416187  89.0770149  27.1191788  70.3636408
  89.3041229  26.8566799  69.4715977  89.9195004  27.2881603  70.7854176
  56.5327168  34.0237570  63.5545015  55.9513092  34.5931435  64.0584850
  55.9482861  33.3832264  63.1490469  58.8236713   5.0776380  23.9833975
  59.7312975   4.8957384  24.2270374  58.7173605   6.0160899  24.1390824
  53.1672096  31.3571548  11.6327596  53.2840014  30.5456042  12.1266997
  52.3053598  31.2680173  11.2259448  41.8579674  30.0434637  51.6084385
  42.4947453  29.8705602  50.9150076  41.6483212  30.9727216  51.5148354
  48.2215928  86.5404683  39.4284582  47.3043012  86.7952233  39.5279694
  48.1863260  85.6493741  39.0806985  57.1571398  61.0832024  22.6036882
  57.3536158  60.3226662  22.0566821  57.9564428  61.2266922  23.1104016
  22.4417233  45.1552200  26.8989110  22.5811744  46.0367823  26.5530324
  21.5852499  45.1975155  27.3242331  71.5904617  21.2034416  18.4192550
  70.8740377  20.6137872  18.1841457  71.2366724  22.0806527  18.2724011
  39.2302894  92.2602135   9.9722701  39.2563009  92.5717622  10.8769763
  38.3811998  91.8254834   9.8929769  55.5761576  39.9849153  11.4585268
  55.9671211  39.3781352  12.0871735  54.7494984  39.5717716  11.2091744
  31.3098096 101.7429781  32.2594619  30.4370069 101.3596695  32.3461843
  31.9003295 100.9901547  32.2315717  73.6433649   2.8040251  20.7741499
  73.2022333   2.0225668  20.4410458  74.5041275   2.7898788  20.3556800
  41.8559313  25.3645158  60.1821661  42.3548317  24.5526767  60.2729940
  41.1999559  25.1689386  59.5130777  48.1815100  24.1576314  41.5955305
  47.4972486  23.4965444  41.4907598  48.9999104  23.6770892  41.4708853
  79.0191793   7.0365757  76.3190937  79.3141127   7.9472035  76.3174391
  78.3187103   7.0104951  75.6672525  57.5647736  46.5790272  41.9521666
  56.8555260  47.1626616  41.6827631  58.3609772  47.0946789  41.8241262
  62.9851055  15.5593276  26.7138267  63.5881567  15.0063026  27.2105384
  63.2031965  15.3887331  25.7975483  80.8146095  31.5551686  35.1019478
  80.3942585  31.5897727  34.2426825  80.4411125  30.7794309  35.5202317
  76.4732695  31.1282086   2.9577568  75.8972692  30.5690432   2.4364184
  75.9872961  31.2837458   3.7676138  89.2484184 102.4261148  86.7097184
  89.2143293 102.7628953  85.8143699  90.1315637 102.6381547  87.0119131
  77.7787399  23.7608790  61.1135960  78.1496763  24.4136596  60.5198717
  76.8331480  23.8251090  60.9795856  29.9844789 105.2990676  60.5670547
  29.6645021 104.9988726  59.7163343  30.9361600 105.2149130  60.5082893
  56.7327166  13.5210872  44.8309517  56.1889505  13.7753212  44.0853548
  57.3984337  12.9443240  44.4562626  27.4868464  44.9229193  44.7100401
  28.3431411  45.3384161  44.8118019  27.5295472  44.1464520  45.2681637
  54.9390459  14.1111159  42.6226473  54.9446201  14.9353659  42.1360159
  54.8659515  13.4354806  41.9485521   3.9431624  10.4361527   4.2416477
   4.3165307  11.1619227   3.7415600   3.8066249  10.7947533   5.1185703
  35.6098390  46.8921852   5.7731909  36.0525513  47.6251411   5.3453869
  34.7712612  47.2535133   6.0603517  80.0819397  27.8664780  44.1966057
  80.0568390  28.3537531  45.0201130  80.9848022  27.9573536  43.8919592
  78.6968517  12.6670551  36.5091109  79.0377474  13.5264945  36.2613463
  79.4559431  12.1997511  36.8578768  68.2378531   3.3945358  34.1356730
  68.2651615   2.4726081  34.3916702  67.6297092   3.4200627  33.3969283
  61.7966604  13.4957433  41.3557196  61.9788885  14.3582129  40.9826612
  62.4254894  12.9129553  40.9300852  87.5729275  13.8973236  26.7923450
  88.0418873  13.2602692  27.3312950  87.2836208  13.3981001  26.0285974
  12.9874276  92.1456295  34.5943689  13.5404443  92.1746999  35.3751111
  12.2882985  92.7746910  34.7725105  60.3862238  47.1642590  17.5014293
  59.5301104  47.2695923  17.0864546  60.9828854  46.9796038  16.7760813
  73.9976501  18.4936965  40.0625324  74.6919298  17.9314876  39.7188354
  73.2603550  17.9011953  40.2094126  39.8879290  10.1990891  54.1999912
  39.2425156   9.6964085  53.7030172  40.4982710   9.5415688  54.5337343
  81.5430832  19.0368521  49.2209148  81.7607021  19.8735499  48.8100481
  82.2446728  18.8921320  49.8557854 102.1795559  18.6883461  57.0132446
 101.8039036  17.9093015  56.6031170 102.1893120  18.4854794  57.9486513
  47.6820087  55.7405949  32.5881815  47.5718689  55.1245594  33.3124757
  47.0095587  55.4887867  31.9552279  56.7669201  33.6163592   5.4149008
  55.8217382  33.7284160   5.5164331  56.9378042  32.7281117   5.7280225
  74.8745251  22.1115422  63.2295227  74.2067623  21.7925358  63.8366127
  75.2944183  21.3182664  62.8969049  72.9390764  27.1725082  22.9191256
  72.6363230  27.4781632  23.7741995  72.4321985  26.3771152  22.7558613
  19.7110366 104.1362338  44.3925428  19.1456365 104.4913202  45.0784492
  19.5464324 103.1934666  44.4106770  56.0251284  34.0939903  42.9023266
  55.6854963  33.8335681  43.7585163  55.5934715  34.9279904  42.7169991
  86.0098648  32.5370479  69.1498184  85.4683685  33.0393243  69.7586918
  86.8745613  32.5158262  69.5598078  47.8922605  84.9398142  36.2160349
  47.9266500  85.8934706  36.2907958  47.9900502  84.6254259  37.1148252
  85.4162216  33.6051273  66.4124823  85.1346874  34.5147514  66.5102100
  85.8295155  33.3911395  67.2489166  92.4987221  13.3024263  38.1772017
  91.8864536  13.8356721  37.6702499  92.4569225  12.4372351  37.7698588
  49.7097111  47.3034906  28.3486438  49.8670578  47.4779654  27.4207258
  50.1493835  48.0207968  28.8051438  51.5129089  30.2443767  37.2129202
  50.9433937  29.9318123  37.9159045  52.2858000  30.5840921  37.6639891
  67.3513985  12.0793605  32.8242397  67.0040703  11.7056501  32.0143390
  66.6328812  12.6078665  33.1715798  49.0116549  26.0444927  30.2152658
  48.6091185  25.9702992  31.0805345  49.2420340  26.9702411  30.1368642
  32.3072528 100.5259642  57.2942972  32.7339839 101.1291957  56.6858196
  32.3147964  99.6830749  56.8407440  40.9685087  12.7126658  34.2534542
  41.6018677  12.7014661  34.9710631  40.1478338  12.4255586  34.6538210
  54.2521906  37.0555305  40.9591436  54.4335747  36.8238735  41.8700027
  55.1033640  37.3097181  40.6025982  67.5139999  10.3058064  66.8687534
  67.4301863  11.2553918  66.9553185  67.6382351  10.1608455  65.9307861
  86.0452600 104.8342473  84.6781075  86.1172195 104.2925317  85.4639828
  85.1513715 105.1756389  84.7035575  33.7539077  31.9954062  59.6930695
  33.9031863  32.8942084  59.3996334  34.6251106  31.5990114  59.7034025
  48.3690929  34.0479779  59.0236092  47.6123762  33.9213037  59.5959425
  48.6086655  33.1643605  58.7442207   3.0521821  64.3012280  89.9210307
   3.9871357  64.2215283  89.7319806   2.7629136  65.0434096  89.3902552
  32.7349090  97.5234282  75.8898020  32.5214910  98.4193271  75.6289339
  31.9938516  97.2481459  76.4295053  83.9524746  27.2722387  39.0503359
  83.4173965  26.4970160  39.2204976  84.8397636  27.0092034  39.2948008
  95.4001331  39.2973447  85.5702305  94.7252941  38.8474035  86.0785484
  94.9117661  39.8366976  84.9482727  46.3655901  15.7257712  28.6902237
  46.9427013  15.9030294  29.4330263  46.9291306  15.8172154  27.9219222
  98.1666183  56.4634705  21.7915440  98.7770748  56.9355726  21.2252498
  97.3195744  56.5480804  21.3538218  51.0806990  25.8940411  31.9031858
  51.0546207  26.7247367  32.3780489  50.7256365  26.1010742  31.0387206
  34.2129493   5.8115447  21.0528898  35.0058699   5.3294295  20.8182120
  33.6302185   5.6938523  20.3026867  68.1295300  20.8668399  47.6081657
  68.4746933  19.9831331  47.7352715  67.4239206  20.9430552  48.2504559
  88.7373638  36.9632411  62.2666693  88.9568233  37.7986860  62.6791048
  89.0978622  36.3023043  62.8577995  23.0860423 104.6351889  17.7968037
  22.4743032 104.2473081  18.4225500  23.9516830 104.4006212  18.1312835
  28.3484411   3.0864617  32.2339940  27.6771021   2.4091673  32.3164868
  29.1069126   2.7294311  32.6960373  40.0739813  13.2511568  47.0996332
  39.4578433  13.8930845  46.7467356  40.2353907  13.5423064  47.9970789
  59.7079849  20.1656699  22.5889301  59.9715281  19.2902923  22.8726339
  58.7575912  20.1781511  22.7022076  87.7387238  30.6185651  52.8261185
  88.0268002  31.3840485  52.3288441  88.5501003  30.1795363  53.0813742
  83.2343483   4.9658501  74.0763378  82.6349831   5.7111949  74.0383101
  82.8974915   4.4237649  74.7897100  81.6487026   1.8818860  27.2252965
  81.2363625   2.2277507  26.4337254  80.9454632   1.8663719  27.8744769
  26.5440606 103.2948480  48.1217527  27.3947000 103.2598866  47.6842308
  26.7133903 102.9586687  49.0018320  39.3874812  36.1492586  42.2378206
  39.8749304  36.9418168  42.0131445  39.5088840  35.5716944  41.4842224
  45.0587320  69.7515392   6.3046485  45.6123495  70.4557419   6.6420370
  44.8583651  70.0139570   5.4061925  80.4320240   4.0075946  67.5360441
  80.3863335   3.4383148  66.7678881  80.7659340   3.4429330  68.2331085
  31.2466359  23.0774021  27.7160096  30.3042746  22.9343009  27.8038025
  31.6290140  22.6213598  28.4657073  91.1948586  58.1245136  62.2934771
  91.7197132  58.8581753  61.9733047  90.3000450  58.4634399  62.3193312
  53.8573313  47.3561478  39.6119022  53.2054758  47.4063826  38.9127636
  53.6227798  46.5680218  40.1018810  71.9653368  74.0627241  55.0866318
  71.1453104  74.4461393  55.3977299  72.0347261  74.3515015  54.1766739
  12.4231961  60.2689981  90.5909634  11.8038991  59.8219299  91.1678696
  13.1026319  60.5991983  91.1788177  88.9715004  76.3336277  75.4937553
  88.6184311  75.4791069  75.7414865  88.8583755  76.8751192  76.2749195
  81.2622738  63.3236456  39.4143319  80.5445194  63.0676413  39.9935746
  81.9532776  62.6857901  39.5928717  82.3613262  73.4065437  35.5884719
  82.5065517  72.4732780  35.7438874  82.5725365  73.8241196  36.4234853
 103.4123707  91.2600994  28.4078431 103.1478500  90.4891014  28.9096737
 103.4415913  91.9670391  29.0525198  91.1438370  51.9740200  65.3176498
  91.8384552  52.3411322  64.7708702  91.2944698  51.0290480  65.2938509
  98.6416054  42.0950270  51.8067741  99.3848228  42.1924353  52.4020529
  98.9947891  41.6118956  51.0597324  78.3081150  58.8890266  48.5330391
  77.8159380  58.2315493  48.0413961  79.2251968  58.6455822  48.4068394
  97.5114059  41.0392094  59.3522406  97.4989700  41.9078064  59.7542572
  96.5947628  40.8585215  59.1440153  95.5742264  18.3385277  59.7858286
  96.4624023  18.2492888  60.1314020  95.0545692  18.6326206  60.5339575
  86.2770653  70.4689741   4.5452338  85.8468533  70.5828667   5.3926861
  86.3670540  69.5210075   4.4477910  74.0096664  58.1457424  28.9921236
  73.6061573  57.7053881  29.7401237  73.6383057  59.0278816  29.0046167
 103.8561344  40.4503632  46.7710352 103.3542061  39.9383140  46.1369181
 104.4207287  41.0078001  46.2355566  89.7779369  88.7816620  46.7284012
  89.4260311  88.0781269  46.1830187  90.1865673  89.3845844  46.1073351
  99.7226906  75.6957626   7.3705918  99.9953842  74.7906446   7.2201544
  99.4502926  75.7145023   8.2880235  83.6616611  77.3750496  73.7120056
  84.0282154  78.0586386  73.1511307  84.3939495  76.7804813  73.8746881
 106.9748878  37.7983236  39.0900683 106.1650658  37.8491807  38.5822988
 106.8431282  38.4115458  39.8131371  60.1450682  67.0618343  48.7359810
  60.2933836  66.2001085  48.3465481  60.9788704  67.5196552  48.6291790
  55.1110795  59.5139313  12.7874982  55.5884317  59.1164160  13.5157478
  55.7804063  59.6768951  12.1229124  93.7902260  52.3553801  49.1613865
  94.4291496  52.9418135  48.7562799  93.3883953  51.8938065  48.4253788
  94.2026997  69.7268534  27.0428276  94.5554352  70.4085255  27.6147866
  94.9365807  69.1285610  26.9024658  87.1649933  81.2700367  69.0603447
  86.7016602  80.7347679  69.7045803  87.4136353  80.6538582  68.3713388
  69.1264582  75.8115387  10.2127874  68.4198713  76.1835241   9.6849746
  69.6451616  76.5681887  10.4860198  76.8234587  54.6060514  39.3245530
  76.3778973  55.1916265  38.7123370  77.7313042  54.9094248  39.3284845
 104.7790432  44.7695684  41.7066622 105.3380108  45.3553963  42.2171497
 105.1283741  44.8202229  40.8169222  78.9400005  72.1407795  17.9570484
  79.8874569  72.0710659  18.0740952  78.6819410  71.2974644  17.5849545
  10.5405572  49.3751478  65.4761744  10.5227903  49.0762329  64.5670176
  11.4435533  49.2298174  65.7584858  69.8758173  73.7317705  40.4826069
  70.7264709  74.1609192  40.3906631  70.0796270  72.7966309  40.4969263
  82.2850323  49.9723053  41.4743042  83.0380440  49.3855715  41.4038897
  82.6079750  50.7165432  41.9822884  68.7749958  64.5425272  40.4396152
  68.4092426  63.7476683  40.8277655  68.0487585  65.1660728  40.4415369
 100.7211971  60.5927420  31.9856215 100.1328754  60.6694031  32.7367711
 100.8557701  59.6507359  31.8819451 105.5259132  41.9635296  49.0571451
 105.5213451  41.7841387  49.9973774 104.6917439  41.6149092  48.7427425
  98.9575005  72.2780085  43.8443041  99.7979259  72.2070551  43.3916569
  98.3080387  72.0419312  43.1819582  96.1906242  47.0167065  40.1591635
  97.0513058  47.0482779  39.7414589  96.3787937  46.8536711  41.0834169
  92.4491215  64.5255089  66.8658733  91.9234848  65.1360750  67.3827267
  93.2042122  64.3303061  67.4208260  86.1112404  73.8370132  41.8867254
  85.5673885  73.9874268  42.6599169  86.5414619  74.6774721  41.7293262
  91.7154408  46.4101362  37.7632976  92.5969601  46.7320108  37.9518270
  91.4377880  45.9834719  38.5739183  93.6821747  56.2479877  46.0501575
  92.8478241  55.7990074  46.1862040  93.4369659  57.1416712  45.8104992
  90.7899761  46.1321163  61.1818027  90.7526207  45.3297186  61.7023754
  90.5512810  45.8550549  60.2972174   5.1389173  66.2328148  34.5338249
   5.4273179  67.0962763  34.2380452   5.1688340  65.6879234  33.7474227
  89.2768097  39.6290302  86.0346889  88.4581852  39.6949244  86.5263557
  89.1371155  38.8970757  85.4338932  85.6750488  49.5945787  36.3424301
  85.9823799  50.2230501  36.9957328  84.7205925  49.6548748  36.3824987
 107.1933365  26.2591338  28.4644485 107.4606705  27.1720171  28.3576179
 107.8791142  25.8707404  29.0076685  96.1682892  29.9743819  38.4000015
  96.0645390  30.4029131  39.2496061  96.4368343  30.6773186  37.8083968
 111.9934559  49.2198944  18.5160339 111.8165112  49.6367645  19.3593264
 111.4635277  49.7126055  17.8894162  93.8577271  68.5715389  23.3766961
  93.3027172  68.3007193  24.1080332  93.5168362  69.4289541  23.1220198
  77.9171276  52.9050541  30.6590414  78.3331108  52.0858335  30.9274960
  77.2463655  53.0620813  31.3236117   2.5373033  64.4336939  76.0116482
   2.6677087  63.8450432  76.7550945   2.9452756  65.2560377  76.2828302
  96.1928749  16.2764180  51.6817713  96.6752815  16.9107687  51.1515713
  95.3527164  16.1792779  51.2335205   5.3620484  50.0985479  43.4539318
   4.9477151  50.8236217  42.9861355   5.2186921  50.2973986  44.3792057
 100.6377506  11.0210943  52.5781250 100.7756615  10.3634334  51.8964386
  99.7911835  11.4134729  52.3646212  99.5530605  68.8519478  41.2267447
  99.4655323  68.7210941  42.1709108  98.8470459  68.3295679  40.8460760
  63.3957434  73.6749840  62.7846098  62.4624681  73.5738420  62.5975275
  63.5991859  72.9565763  63.3835506  83.0333233  48.4858656  35.9376264
  83.3061981  47.8023720  36.5496826  82.1280479  48.2644033  35.7193327
  97.9331493  46.2270212  55.1658297  97.5241089  45.5742216  55.7339573
  98.8692188  46.1535931  55.3518820  91.2827396  60.0736189  27.9090524
  91.5253162  60.9990883  27.8790331  91.8758488  59.6503019  27.2883630
 110.8444881  45.8891487  11.9462156 111.7206573  45.9628630  12.3245418
 110.6664181  46.7569017  11.5835452  85.6947613  60.5676937  53.7209940
  84.9592590  61.1793709  53.6873674  85.8195972  60.2930593  52.8125763
  77.5885630  55.7416153  57.1390057  77.0885801  54.9373627  57.2783947
  76.9314432  56.3924360  56.8923187  96.5485096  49.2829466  36.8160057
  96.0106373  49.2081308  37.6042557  97.0391941  48.4617853  36.7820430
  97.5557709  55.9203100  64.0949726  98.1478119  56.2612104  64.7654200
  98.1323719  55.6570101  63.3777285  86.2274933  72.0685482  59.7181749
  86.4453888  71.8625736  58.8091469  85.7687664  71.2911081  60.0365782
 105.8515453  95.8102512  49.8115444 105.1127529  96.2180328  50.2633619
 106.6256237  96.1789703  50.2370739  93.4581280  48.5508490   8.2774138
  93.2747650  49.4391823   8.5831571  94.3866634  48.5643148   8.0453146
  74.4776821  84.1024876  35.1743174  74.9248695  84.0678978  34.3287063
  75.1584768  84.3627167  35.7948232  81.3083363  51.0530710  36.4381742
  81.3142204  50.1000929  36.5277648  81.0193825  51.2073040  35.5387592
  87.2490788  71.8142748  39.1040015  87.2465515  72.0349360  40.0354147
  87.1395111  72.6543856  38.6585331  73.1121588  63.9675379  60.7298279
  72.3659325  63.7787819  60.1608372  73.1014776  63.2649660  61.3798332
  12.0213035   2.3901290  26.3920283  12.4336342   3.1162948  25.9241557
  11.6979793   1.8125171  25.7006121 100.1543903  57.7802610  36.4801955
 100.2961063  57.0275640  37.0543027  99.4021320  57.5330210  35.9424067
  99.9117184  54.2346382  69.2988729 100.4618168  54.9715757  69.0332508
  99.7808361  53.7315416  68.4951353 101.7426014  65.5256701  67.9155493
 101.4335060  65.1256657  67.1027231 100.9662914  65.5633640  68.4742594
   9.9579480  62.8637123  32.8480339   9.1494039  62.3782015  33.0116510
   9.7120526  63.7822962  32.9574180  82.7101517  32.2567964  20.1304173
  83.3653069  31.7178488  20.5737495  81.9599342  32.2592187  20.7248926
 104.2917538  78.6401558  63.5571909 103.3660412  78.6657333  63.3150196
 104.7023392  79.3052435  63.0046463  56.6936159  77.0567703  39.6299267
  56.9456100  76.4759588  38.9120173  57.3548746  77.7487946  39.6215105
  10.5273011  56.6223478  29.7492933  10.7745698  56.6942644  28.8273835
  10.4912427  55.6802559  29.9148107  74.9690676  56.6754627  56.4678288
  74.6033287  57.5086403  56.1707020  74.2041540  56.1339712  56.6625643
  55.0516653  30.9143114  22.3022389  55.0275755  30.1434898  21.7352414
  54.6947098  31.6197801  21.7626762  78.1360912 103.0941010  22.1718049
  77.5766611 102.4984550  21.6733265  77.9985619 102.8436279  23.0853605
  79.3034792  76.3734007  69.3547630  80.1866055  76.4446831  69.7170305
  79.0727234  75.4511023  69.4659233  95.4829884  20.2105904  27.6303244
  95.5127430  21.0385823  28.1096721  95.0533104  19.6014917  28.2308340
  75.7324362  57.4717093  11.3257015  76.5207386  57.8148746  10.9049296
  75.5280304  56.6742897  10.8372653 109.8725605  14.4917226  61.6421080
 109.2069530  14.4192278  60.9580469 110.6999397  14.5572126  61.1652613
  86.5826321  51.6155767  44.1619158  87.5350285  51.5467453  44.0952587
  86.2588120  50.7721949  43.8455677  90.8126259  68.5968590   9.2700845
  90.4204369  68.6135054   8.3970779  90.2088833  69.1031504   9.8135787
  61.2760782  52.6896238  18.5184431  62.1804857  52.4781609  18.7498748
  60.9325409  51.8833351  18.1335878 104.2018318  70.2732468  42.0351362
 104.5453072  69.9888754  41.1881495 104.8743725  70.0148010  42.6653194
  86.3027859  57.9819441  31.5366316  86.2451077  57.1756124  32.0492077
  86.4695072  58.6663389  32.1847391   2.9487947  82.6083660  49.1374063
   2.3271325  82.9532337  48.4964418   3.2187989  83.3736706  49.6449900
  91.9879055  63.9383888  49.2496395  92.2086811  63.9855003  48.3194399
  92.4944210  64.6438932  49.6520519   1.7575219  72.5694513  49.9308014
   1.3594678  71.8161917  50.3671265   1.4836076  72.4893236  49.0171385
  80.3544617  31.5914679  55.7605171  79.4028616  31.6798472  55.8142281
  80.6877995  32.1694446  56.4468575 100.1995850  73.8842916  62.8037214
  99.6249866  74.6389103  62.6748133 100.3594589  73.8633966  63.7472439
  10.4988483 104.5997165   5.2963924  11.3292793 104.3494819   5.7013512
   9.9261955 104.8094295   6.0341644  77.3125410  57.1708059  46.7326212
  77.9100895  57.0978785  45.9884119  76.8766212  56.3196421  46.7740774
  76.7494678  61.1793041  48.9117765  77.2706795  61.8260956  48.4361315
  77.3116302  60.4059649  48.9581871  85.6240845  48.0193472  21.5688014
  84.7752094  47.6268768  21.7727494  85.4123974  48.8990355  21.2564445
 101.4119339  53.9191723  20.5723548 101.6430283  54.8410797  20.4587364
 102.1041203  53.4407425  20.1160526   5.5664113  46.8359709  40.4363966
   5.1326421  46.2738943  41.0783863   6.4119866  46.4148331  40.2818918
  84.6900082  62.8421640  14.2788601  85.4624939  63.3986950  14.1800547
  83.9676476  63.3734131  13.9438832   3.8464883 100.6695557  37.5487423
   2.9840425 101.0359287  37.3532867   4.1731122 100.3616524  36.7033195
   8.2210115 100.9840870  39.7756410   7.9277471 100.3390312  39.1321111
   7.9379705 100.6279659  40.6178427  47.9465008  42.1456289  37.3367882
  47.6582813  42.8703785  36.7819023  48.3985376  42.5681973  38.0670810
  88.1920242  89.1362095  42.5478983  87.8654861  88.6350632  41.8005991
  89.0962315  88.8417339  42.6570606  83.2186699  35.1431417  44.6926975
  83.2178974  35.0432968  45.6446743  82.7577591  34.3686557  44.3702650
  18.7845472  44.4889259  54.0515280  18.7378362  44.6173573  53.1041336
  19.3362477  45.2062082  54.3635559   3.1682733  58.5241318  60.7426405
   3.6431077  57.6991415  60.8434010   3.1478170  58.6748314  59.7976017
  71.5946102  58.8359022  43.4946251  72.3264122  59.3912888  43.2258415
  71.9263077  58.3521318  44.2510509 110.5611134  66.4009380  79.9826097
 110.9719467  67.2377539  80.1998520 109.8290634  66.3274097  80.5949211
  86.3425446  66.1520195  56.5665340  85.5585480  65.7563496  56.9473553
  86.3957405  67.0170784  56.9728327  85.8840561  76.4737606  39.1431212
  85.0642681  76.9572496  39.0410256  86.5500259  77.0493746  38.7670994
  87.5731564  50.1873016  51.4695501  87.4988556  49.8857212  50.5641413
  88.1475544  50.9514666  51.4210892  63.0290842  88.4459782  42.0747328
  62.9645729  87.9662895  41.2489223  62.7037334  87.8328896  42.7338934
   4.7850373  48.9450788  48.1415081   5.2602533  48.2034826  48.5162497
   3.8662961  48.7671757  48.3427429  76.2646389  79.5635748  42.6264095
  76.2563562  80.4808331  42.3529100  75.3505468  79.2866182  42.5635004
  99.6772575  44.5071507  35.5759335  99.3306446  43.8519287  34.9703145
 100.5550289  44.6982145  35.2454042  18.7181523  56.3904524  11.5963900
  17.9149583  55.9164190  11.8118274  18.7030080  57.1589851  12.1667945
  83.1104660  39.3638539  23.6571956  83.3501148  38.9054918  22.8517723
  83.7672424  39.0856957  24.2955565  79.6929932  67.4520683  59.0588951
  79.3875313  68.3478117  58.9154673  80.6277561  67.4822617  58.8550949
   0.9334901  48.5427570  30.4132080   0.8170274  49.4928455  30.4117012
   1.1582616  48.3275700  29.5079994  89.3021107  62.3916817  20.5273366
  88.6836529  62.9636860  20.0728559  89.4027138  62.7874899  21.3930392
  82.3954868  57.6431704  34.9552536  82.0432568  58.3490229  34.4130898
  82.9687119  58.0853796  35.5814242  99.8545361  50.1672888  12.1401846
  99.4980907  49.4027758  12.5926185 100.6637287  50.3681469  12.6103878
  68.8894844  75.9049845  30.5939579  69.3042946  75.0428200  30.5649757
  69.5483303  76.4999199  30.2358913 103.6299754  13.6197967  71.0138226
 102.6889849  13.5029525  71.1446476 103.6992932  14.3860454  70.4443598
  96.1840534  26.9335055  56.1223984  95.6457615  26.1651707  55.9323168
  96.8595409  26.9264245  55.4442358 105.2344608  48.8857794  52.8905106
 105.8103943  49.6095896  52.6442909 104.3757915  49.2921829  53.0078125
 107.5350380  26.6446590  15.2428401 107.8561497  26.2771225  16.0662687
 106.5816593  26.6045713  15.3183126   1.8886617  93.3816051  75.4295301
   2.1008256  93.2022572  74.5135355   2.6075414  93.9330292  75.7383633
 104.3938541  66.3695192  43.2327986 103.7090397  67.0382929  43.2295942
 105.1161003  66.7685986  43.7179041 101.6790771  63.1480122  27.5663853
 102.5227642  63.5751247  27.7147341 101.3229179  63.0099249  28.4440613
  74.8708773  85.1517677  14.6245313  74.3863344  85.7746029  14.0827441
  74.3275928  84.3636894  14.6276069  95.0523090  42.8952789  45.6374454
  95.7678127  42.2748375  45.7765150  94.3025684  42.4998665  46.0821581
 109.9661732  53.0990601  29.0084887 110.4596043  53.6712980  28.4208655
 109.6975327  53.6695623  29.7286248 105.4788113  76.8943787  59.2941618
 105.9631443  77.1574068  58.5115528 105.3111458  77.7142239  59.7588873
  94.8548985  62.6738358  32.2047710  95.3227139  63.4931421  32.0431852
  94.2503357  62.8798246  32.9177308  73.1950569  87.8115749  39.3353748
  72.4180555  88.2456875  38.9831805  73.4450626  87.1821499  38.6589479
  72.9966068  62.3404789  51.9837761  72.5949669  61.4834118  52.1264315
  72.8662586  62.8065205  52.8096390   2.5201562  33.3751082  62.6486492
   1.7944482  33.8102508  63.0961227   2.9673246  32.8847051  63.3384132
   9.9320558  37.4557805  53.6804724  10.7965139  37.0524955  53.7598944
   9.3248132  36.7165089  53.6494303  76.3338661  61.7773962  39.2355251
  75.9105635  61.2655354  38.5462904  76.3506365  62.6714039  38.8939190
  95.1311302  53.8158703  42.3674679  95.2957058  54.0815067  41.4627123
  96.0027409  53.6878872  42.7418280  74.5317173  60.3341293  59.9988747
  74.8304510  59.4956779  60.3509998  74.5687962  60.9337378  60.7440805
   6.5939668  36.6556668  37.9239726   7.4464563  36.2284541  37.8403664
   6.1624959  36.1909986  38.6410141  81.4349842  78.6980343  16.3330305
  80.9899807  79.5343876  16.4698577  81.5721130  78.6516809  15.3868389
  83.3796978  17.7043200  51.5115786  82.9408455  16.9343638  51.1499071
  83.6684608  17.4288142  52.3816061  59.3809271  72.1110535  28.6311412
  58.8415194  72.8865004  28.4763956  59.0973902  71.7889166  29.4867516
  79.0258694  75.3795004  21.9180036  79.8802519  75.4609585  21.4941812
  78.5755730  76.1977625  21.7084551  93.3799744  53.1515980  52.4688196
  94.3053627  52.9069471  52.4621296  92.9416656  52.4437332  51.9965458
  86.4433670  81.1825752  43.4036589  86.1746788  81.6101456  42.5905037
  85.9786797  80.3457451  43.3991241  99.6873760  58.1677675  19.2711151
  98.9123917  58.0707455  18.7177408 100.4143143  57.8831005  18.7172639
  33.8398079   5.7498282  56.5471172  34.4853214   6.2983912  56.1014509
  33.8108257   6.0919208  57.4406338   3.6310723  69.3370533  20.1366949
   2.8836301  69.2665672  20.7304859   4.2404607  69.9218798  20.5870986
  67.3839235  59.9613953  38.3879495  68.0651474  59.2952919  38.4800029
  66.8602610  59.8801851  39.1850781  76.7837191  75.7179689  51.6670561
  76.0368013  76.3026381  51.5385675  77.4322987  76.0140562  51.0283804
  16.3351110  59.1543293  25.7591605  15.8016923  59.6872091  25.1694703
  16.2133935  59.5548439  26.6199780  61.1462450  94.7628212  15.7564640
  61.0090542  94.1885185  15.0030851  60.3276873  94.7103310  16.2498558
  84.5325184  63.0803585  46.2524700  84.4481468  62.1533775  46.4756727
  85.4183769  63.3138561  46.5299082  83.1682014  48.2529068  47.2255898
  84.0590477  48.2800293  46.8764639  82.8809166  47.3516512  47.0791817
 108.0219746  45.5463409  57.0765448 108.9611340  45.5909491  56.8970442
 107.9193020  45.9790993  57.9241371  83.8977909  66.2552452  42.8627205
  83.8190079  67.1899128  42.6718760  83.7777328  65.8267975  42.0152187
  46.0346270  68.1446314  27.9547024  45.1846027  67.9620695  27.5542521
  46.3175869  67.3023033  28.3105850  72.4254227  79.3694115  38.3532166
  71.5702486  79.1621113  37.9764676  72.3055601  80.2264881  38.7622118
  74.1994667  83.5658169  52.6982689  73.6774778  83.2063961  51.9809341
  74.0065384  84.5033169  52.6885176  82.9593468  66.6930914  51.5815544
  82.9428101  65.9554863  52.1913862  82.2168064  67.2372913  51.8437004
  89.6100521  64.5795536  34.8505974  89.8690128  65.1921892  35.5389595
  89.4655991  63.7516212  35.3087401 108.2164669  46.9053030  25.7206368
 107.5735188  46.6747379  25.0500464 108.9801884  46.3658714  25.5157518
  37.3189405  77.0568609  86.0008240  37.4662641  77.8589296  86.5020275
  37.8435758  77.1699476  85.2082348 110.8225060  49.2448092  57.4108219
 110.2554798  48.5393333  57.7223015 110.9333515  49.0682173  56.4766073
  18.8361409  59.6878576  68.6547995  18.8128808  60.1401329  67.8115082
  19.5791772  60.0778198  69.1153049  67.4859095  38.6734819   4.9057296
  67.1149397  38.9290714   5.7502925  68.4329700  38.7261009   5.0343418
   8.6794522  42.4571228  66.2928438   8.3317235  43.3445215  66.3814163
   7.9030278  41.9000244  66.2377787   0.9118894  66.6347837  43.5830498
   0.8473256  66.9980049  42.6997948   0.4318479  65.8079052  43.5376692
  13.5898831 101.6995716  20.0954080  13.0123380 101.8753242  20.8382297
  14.1654351 102.4632645  20.0535822  94.2591476  40.5057049   4.7581738
  93.4045601  40.7403517   5.1199156  94.6536446  39.9409318   5.4227263
 100.1714039  61.0104799  57.4127960 100.3810692  61.5866661  58.1478357
 100.9982300  60.5743504  57.2069263 107.0036888  62.5023460  33.5409546
 106.2162399  62.6796436  33.0264497 107.6915455  62.3707390  32.8884387
  93.9979649  60.1818275  34.5622826  93.3025646  60.7388401  34.2124486
  94.0538883  60.4210949  35.4874086   5.0925592  81.9939327  46.1038876
   5.8240846  82.4651527  45.7050848   4.5240453  82.6822376  46.4492273
  81.0548496  60.8757496  63.0430698  80.3957081  60.1970053  63.1882429
  81.6130924  60.8375072  63.8196898 104.7634411  97.2909832  54.7728872
 104.9023438  97.7450085  53.9417458 105.2172279  97.8312874  55.4197121
  24.4368601  46.9579124  36.6530418  23.5594678  47.0658255  36.2859297
  25.0101876  47.4235249  36.0441661   9.6387818  84.9062538  46.5321350
   9.6642354  85.6649494  47.1151972   8.9415219  85.1071930  45.9078932
  87.8972816  34.5417261  67.5284386  88.0674553  34.4322968  68.4640121
  88.6278343  34.0971088  67.0985079  79.8083687  94.0178490  58.6365509
  79.0606403  94.1717243  59.2140102  79.5908880  93.2088089  58.1735182
 111.0011101  81.1179638  37.3948479 111.9068527  81.1975574  37.0956349
 110.9959126  80.3278637  37.9351687  88.6098099  81.7074490  50.9423971
  88.4613132  81.1811161  51.7279911  88.4111118  81.1158180  50.2166319
  52.8853940   5.0981881  69.9839067  52.4176645   4.4382264  69.4721365
  53.2251786   4.6188046  70.7395339  88.8996124  61.0681057  26.9398928
  89.3279076  60.7623148  27.7394462  89.6203041  61.2515068  26.3372397
  91.9087601  53.8559675  32.1997643  91.9693661  53.4698868  33.0735493
  91.2986946  54.5863867  32.3024368  20.6084302  88.0614471  54.0652227
  20.4570439  88.9851093  54.2656183  20.8605245  88.0548954  53.1418419
  96.0810661  69.4889879   4.0867493  95.7275391  68.6037970   3.9990598
  96.3511086  69.5493650   5.0030816   6.5288880 103.1938171  40.8867168
   6.7134431 104.0034676  40.4106569   6.8463185 102.4990940  40.3098059
  37.8427219   3.3460022  72.9318225  37.1432113   2.7298857  72.7143037
  37.4991655   4.2003847  72.6706052  91.3303185  66.4868546   4.1416276
  91.9983387  65.8425760   4.3759313  90.6196022  66.3320780   4.7638470
  75.9235764  49.3101788  48.4920835  75.4563522  50.1454830  48.5061836
  76.3568068  49.2636538  49.3443632  90.4971981  56.8272257  73.0165291
  91.3164520  56.4407587  72.7071571  90.6470585  56.9930458  73.9472675
  72.5344896  55.8700848  57.3974085  71.5930796  55.6969595  57.4002695
  72.8119040  55.7007074  58.2977295  73.4949589  54.4536495  39.1205549
  72.8213692  53.7736559  39.1097832  73.8339567  54.4408178  40.0156260
  89.0120125  58.5931158  76.0281038  89.8132515  58.7751198  76.5191412
  88.6385822  59.4564056  75.8505774  90.7757187  75.8588123  23.7086415
  90.3577042  76.1454630  24.5206308  91.6998386  76.0800171  23.8239527
  91.5977097  59.3026686  40.3230190  91.5657616  60.2482605  40.1778698
  92.3417091  59.0049887  39.7994852 103.8370800  47.1229935  23.0214500
 102.9341412  47.1608305  23.3368945 103.7946415  47.4723244  22.1312809
  96.8975163  54.4140720  36.5330863  96.5647221  54.1825294  35.6659818
  97.8485107  54.4363546  36.4265442  80.7008934  71.1745834  46.1622763
  80.6765556  70.8378601  47.0579624  79.8298931  71.5460539  46.0222912
  62.9784966  87.4350262  39.1390514  62.5815058  87.2244835  38.2938886
  63.9183521  87.4678898  38.9606595  98.2185555  62.3713207  22.7684522
  97.6740742  61.6530895  23.0908108  98.8464928  62.5307417  23.4730864
  97.1719551  55.0230742  69.7206306  97.6894474  54.2518330  69.9522161
  97.7135849  55.4934692  69.0869093  81.9950962  57.6979589  42.7463484
  81.2423134  58.2776070  42.6299381  82.1205044  57.6556969  43.6943531
  78.4340525  66.3495398  39.8512197  79.1362667  66.2779093  40.4977417
  78.8871288  66.4940596  39.0205169  80.7284546  84.9521255  23.6002779
  80.3457260  84.5101929  22.8423548  80.0108910  85.4723740  23.9617682
  98.6983109  73.9556217  55.1914549  98.6128330  73.0022430  55.1907682
  97.9029179  74.2670870  55.6233931  81.5060234  57.4352837  54.1854000
  81.7168236  58.3668756  54.2480755  82.1502686  57.0847940  53.5703087
   5.1940302  84.6003054   1.1880398   5.0100283  84.2510484   0.3160381
   5.9033970  84.0508174   1.5213585  96.2888908  72.5914860  48.6662626
  97.0749950  73.0983257  48.8696861  96.6162968  71.7188597  48.4481812
  92.6750469  54.5065689  29.3488097  92.3707676  54.1270638  30.1732039
  93.4293270  53.9711428  29.1026330 101.4166069  79.9405909  29.8657393
 100.8874416  80.6587410  29.5186496 100.8255386  79.4697952  30.4532909
  95.0624657  86.2894726  66.5803194  95.5549145  86.9687462  67.0410824
  94.1562748  86.5973091  66.5974331  85.7089520  51.3090801  39.9925613
  86.2915421  51.7025614  39.3429542  84.8914242  51.1551762  39.5190740
  89.9859047  41.5613747  21.7703271  89.2186451  41.0124397  21.6084146
  89.8472881  42.3342419  21.2228823  84.6599579  70.1519823  52.7556849
  85.4143429  70.7323694  52.8570700  84.1315079  70.5633211  52.0717430
 108.8666725  96.2939930  52.5572062 109.7810745  96.5278625  52.3978281
 108.3654499  97.0189285  52.1837473   9.6767476  15.7572126  54.6067142
   9.7279695  16.3914311  55.3218222  10.5891183  15.5811942  54.3768692
  86.3491726  78.0034542  35.7586169  85.4605961  77.7355051  35.9928775
  86.2453651  78.8804245  35.3893161  98.4492779  34.3051839  58.5743999
  98.5464573  35.2036333  58.8899565  99.3373680  33.9484167  58.5901642
  98.4626293  31.5916514   7.6968372  99.1745090  31.0907555   8.0950445
  98.8956547  32.1546459   7.0551574  71.8399143  55.8831787  26.8209481
  72.5915432  55.6529856  26.2747788  71.8303299  56.8403292  26.8241048
  83.2142067  69.2872715  70.1975203  83.7907124  69.9899769  69.8973942
  82.3351383  69.6634769  70.1536417  12.5895313   8.2779235  65.7013178
  11.8784050   7.6384086  65.7407665  12.2948269   8.9245528  65.0600290
  84.3414116  66.6006565  46.8504333  83.4763813  66.7639017  46.4745188
  84.1722202  66.4357471  47.7780199  92.9996490  44.5919514  35.6381083
  92.2536659  44.8434639  36.1826158  93.2100296  43.7007618  35.9169412
  77.0455694  82.1649647  35.2084708  77.2963619  81.2979794  34.8896074
  76.8883085  82.0397186  36.1443210   4.2073777  64.9525928  48.6537743
   3.7168267  65.1582575  49.4495726   5.0527528  65.3848553  48.7750864
  88.8080502  31.3427496  31.5597534  88.4303188  30.6985188  30.9609866
  89.1602421  32.0242310  30.9872365  90.2251816  51.7998266  25.8930087
  90.1144981  52.5582552  25.3196263  89.7683144  51.0898590  25.4419494
  78.6474895  56.8737888  54.4351625  79.5284224  56.6840267  54.7579288
  78.5835505  57.8285122  54.4606829 107.2166729  71.7567396  18.9925849
 106.8914795  72.6564693  18.9615035 106.4288235  71.2154388  18.9423752
  10.7192758  58.8728046  41.9251966  10.6887868  58.9972973  42.8737736
  11.5511754  59.2642736  41.6588688  85.6967735  99.9268246  37.7465200
  84.9795246 100.0811291  38.3613181  86.4516830 100.3591442  38.1458163
   8.8994649  25.6197953  43.2380676   8.4761575  25.3266525  42.4311590
   9.1665605  24.8114896  43.6757183  24.2665962   9.5348090  21.3386774
  23.5628895  10.1452273  21.5587592  25.0437454   9.9038619  21.7582774
  76.6598463  61.2705183  44.2634773  76.1633778  60.5298185  44.6115017
  77.4333286  61.3252831  44.8246861  99.5932388  40.8751774  56.0642767
 100.4161263  41.2907124  55.8065653  98.9660835  41.5965605  56.1144876
  83.7992287  72.9839563   0.8080377  84.0613174  72.4220085   1.5372570
  83.0817223  72.5106859   0.3868194  81.8366146  73.0536699  27.5903416
  82.0371532  73.1136179  26.6563034  80.8889389  73.1787348  27.6403546
  93.7237263  67.9367733  87.9954147  93.0137157  67.6783943  87.4077415
  93.8805485  68.8585997  87.7907753 108.4704876  52.0126581  14.6997273
 107.9427433  52.5391531  14.0992904 109.0378571  52.6464558  15.1386178
  82.1813869  58.5935068  45.6180811  81.9243813  58.3394480  46.5044451
  83.1383896  58.5950327  45.6373549   7.6822808  73.9447117  32.4014211
   7.1559766  74.6886730  32.6942730   8.5183766  74.0492678  32.8555512
   6.3204721  56.2300920  41.8547916   6.5382913  55.4436207  42.3550463
   7.0735696  56.3641548  41.2793732  95.3743553  80.0880432  27.1008635
  94.8299026  79.4173527  27.5131392  94.8279095  80.4421997  26.3992882
  74.9240065  41.3999319  12.9456306  75.8503866  41.3554001  12.7088463
  74.8848248  41.0342312  13.8293493  98.1164074  69.3989468  35.2291250
  97.4119473  69.9580526  34.9014664  98.5390663  69.0591908  34.4403577
  80.9278011  89.5823765  42.7788925  81.8079758  89.2120075  42.7127838
  80.4730892  89.0103912  43.3971977 109.6493912  11.3689685  27.9420304
 110.1088333  12.0191264  28.4734869 108.8357735  11.8021941  27.6840210
  11.0941938  15.5157161  30.3483343  10.8730558  14.6862638  29.9248505
  11.7290071  15.9235787  29.7593594  29.2010072  84.0079308  60.8064747
  29.8042253  83.4130859  61.2520266  28.9440110  84.6373940  61.4802361
  83.4751320  80.9198284  28.4096360  84.3704605  81.1249161  28.1402850
  83.5718441  80.2026939  29.0362215 108.5310841  44.7472382   9.1633707
 108.6394596  45.5681086   8.6831021 107.8621674  44.2693758   8.6730349
 100.4916763  78.2642269  15.7357824 101.1384869  77.9646206  16.3746214
 100.7889271  79.1392374  15.4863226  76.3099051  65.9615421  61.3705778
  76.0259295  65.3376627  62.0386839  76.8365908  66.6017342  61.8491030
 106.7668915  75.0588179  43.8472366 106.4540291  74.4856834  43.1473351
 105.9694386  75.3828907  44.2658901  79.6329498  91.7685795  54.0275049
  80.1377869  92.4711323  53.6178875  78.9587069  91.5513992  53.3837223
 107.4165249  67.6433754  40.7500696 106.5938187  67.2020245  40.5388880
 107.6790905  68.0649137  39.9317861  98.9399910  54.5440483  18.8362169
  98.7461472  55.4804230  18.7931371  99.6004295  54.4676113  19.5248425
  89.5986843  49.1833258  83.4047604  89.3290043  48.6192036  84.1295052
  90.5247688  48.9794016  83.2742977   4.1602376  47.1944046  71.0359764
   4.1916803  48.1502342  71.0764217   4.8176435  46.9606495  70.3806829
   2.7780965  92.7702904  40.5385303   3.4691003  92.9874420  39.9127531
   3.2063153  92.2053051  41.1816883  12.2816613  71.5825558  40.1393986
  11.8654206  71.1595249  39.3883848  13.1065705  71.9246197  39.7947955
 103.8670254  17.3382831  66.4054108 104.8197651  17.3783958  66.4885473
 103.6685181  16.4024138  66.3741827 105.5849171  69.7751951  44.4431925
 105.7286739  68.8374662  44.5706034 105.7886505  70.1663399  45.2927399
  89.7896290  40.8533764  70.7659864  90.0002384  41.7671776  70.9579229
  90.5728340  40.3676510  71.0246038  96.9092655  80.6659508  52.7721834
  96.7945957  79.7249413  52.9048109  97.7958393  80.7521629  52.4217653
  98.0676842 102.7465248  52.2739267  97.6950932 103.5412502  51.8920755
  99.0004539 102.9401398  52.3671341 107.0203972  84.8542023  29.8931718
 106.8880463  83.9161491  29.7561598 106.1798859  85.1685429  30.2262759
  91.5104103  37.0944047  59.3769407  91.8718624  36.2197161  59.2337561
  90.5642986  36.9575524  59.4257402  16.2194017  82.6964378  17.1551335
  15.3365472  82.4438477  16.8849576  16.0876229  83.2174683  17.9472172
 108.9521599  90.2799129  16.1714280 108.8823414  90.0325966  17.0934868
 109.8866844  90.4361057  16.0354424  66.4751911  84.2276192  43.8820028
  65.6505251  84.6872234  43.7241602  67.1518135  84.8581028  43.6352110
  87.5298882  79.8720694  49.2907858  87.0537663  79.0976810  49.5905638
  88.1798267  79.5307398  48.6765432 108.8848782  88.4294701  21.7312789
 108.1200027  88.9285755  22.0178127 109.6329117  88.9665794  21.9923902
  59.7391415  73.3830976  32.4350166  58.8783789  73.7853289  32.3187208
  59.6973085  72.9734325  33.2991076  83.1844902  55.4666042  46.1055946
  83.5403728  54.8558283  45.4602051  83.6884403  56.2703466  45.9780836
  74.4140629   6.8457335  62.6553583  74.7353271   7.3231620  63.4202671
  73.4922890   6.6753692  62.8491163 106.8561554  77.9209185  28.0831075
 106.3666534  77.3439550  28.6693954 107.1359634  77.3520947  27.3659062
  90.8031178  56.3461399  29.3318844  90.6172466  56.1978292  28.4046936
  91.6878700  56.0028124  29.4567013  46.5046262  48.2944991  81.1396980
  46.7537832  48.5700537  80.2575278  46.8214273  47.3938109  81.2077177
  62.0280409  72.8635168  54.9915981  61.3807821  72.4039745  55.5264902
  61.7707157  73.7840748  55.0424814  93.4435749  91.4391232  48.2381630
  92.6058769  91.0096264  48.4114313  94.0636826  90.7185078  48.1267643
  82.7223110  78.0195427  76.2790012  82.9470634  77.5083733  75.5015564
  83.5589504  78.3686781  76.5862036   9.9860719  69.4249630  39.7838402
  10.6780675  69.0035629  40.2935505   9.6744016  68.7407064  39.1914821
  95.8062744  73.1642151  40.4186964  95.1456070  73.2467175  41.1064053
  96.4208603  72.5114870  40.7540560 100.3265667  66.6941500  49.5331764
  99.8076820  66.3580132  48.8024187 101.1488152  66.2062407  49.4874859
  22.1585564   0.8703345   2.9109514  23.1103424   0.9701175   2.9303443
  21.9840816   0.3948134   2.0987523 100.7051182  59.6803761  77.0810604
 101.4511967  59.3476439  77.5799465  99.9443150  59.2525148  77.4739265
 109.3494606  72.4224901  24.5888090 109.6660805  73.3257055  24.6026659
 109.2030144  72.2058773  25.5096030  83.4739399  77.8483438  35.9233570
  83.6583614  78.7615347  36.1431336  83.2510471  77.4408722  36.7603254
  30.5772737  47.6040649  55.0233364  30.2755883  47.7923393  55.9120321
  31.1393598  46.8352222  55.1190567 107.6388073  58.2824230  40.0936270
 108.5622025  58.1887627  40.3277254 107.5504971  57.8020334  39.2704272
  91.8446541  49.0506458  23.1400132  91.8106174  49.4793558  23.9951611
  91.0175514  49.2873144  22.7203465  86.4298630  82.3271561  47.4635601
  87.0229053  81.9373131  46.8212509  86.4605236  81.7301464  48.2111454
  28.9914849  72.2707033  45.1676798  28.8282827  72.3854303  46.1038637
  29.9448350  72.2262144  45.0944328  13.9116624  91.2628555  53.7279272
  13.2215837  91.8544197  53.4278154  14.6330026  91.4059353  53.1152058
  43.1217770   3.2912559  35.2369857  42.5231270   2.5443858  35.2312469
  43.3524040   3.4204310  34.3170094 100.7864857  59.2618036  73.9967966
 101.6021061  58.9299440  73.6214828 100.9141064  59.1960144  74.9431705
  91.4757729  61.5249825  69.0576553  91.4453316  61.8037653  68.1424570
  92.2525215  60.9683228  69.1127539  40.2172188   6.0398597  29.6693850
  39.7225098   6.6441363  30.2228665  39.6768192   5.9353274  28.8862681
   9.3255857  78.6127853  46.3327599   8.4161809  78.9079571  46.3784218
   9.8393872  79.4203568  46.3245535 103.3502579  66.2801838  82.6289558
 102.6768494  66.5153551  81.9906330 103.8459587  65.5785990  82.2066975
  98.8914108  88.8364124  50.0241280  99.1646099  89.4797325  50.6781483
  98.7096691  88.0438328  50.5291128  75.4904985  84.8984909  28.1197882
  75.1249027  85.6336212  27.6277018  76.1467695  84.5209599  27.5341177
  14.1696599  88.8175106  17.0664155  14.1240552  88.1896305  16.3453579
  13.4052899  89.3802452  16.9427025  79.1065073  60.3189325  45.1270008
  79.7071075  61.0639429  45.1051664  79.3083906  59.8725510  45.9493256
  90.7119846  77.7228689  21.8987942  91.6683865  77.6842928  21.8939090
  90.4497242  77.0804739  22.5581741 109.8763180  69.7912264  49.2447281
 109.2093563  70.2084398  48.6994505 109.3784618  69.2933798  49.8932076
   5.7130197  69.0003347  37.8041029   5.3058484  68.2059097  38.1495476
   6.5527871  68.7053680  37.4519277  12.6369480  12.8295249  47.9720163
  12.7006058  12.6648063  48.9127874  12.0207313  13.5582084  47.8976011
   7.2731546  59.5091343  30.8646369   7.0508817  59.5063019  29.9336076
   6.6673997  60.1400185  31.2535810  49.7955756  22.1108763   4.7633839
  49.6086459  22.2860663   5.6856632  50.7008032  21.7998021   4.7573757
  85.4146671  87.8381824  28.6327100  85.2724838  87.8000546  27.6868963
  84.9500084  88.6266422  28.9131641   7.6291469  31.5552253  49.5481777
   7.3149876  31.6277808  48.6469173   7.0070652  32.0712775  50.0609446
  71.0076952  96.2995148  31.6399479  70.7455778  95.6746006  32.3159695
  70.2030373  96.7711926  31.4248443   3.2224515  80.9049797  53.3286142
   2.9982904  80.1262951  52.8190660   3.8338235  81.3875198  52.7721882
  16.6303304  98.3672714  46.3186550  15.8188584  97.8935909  46.1359501
  17.3246720  97.7636433  46.0545540   6.0197213  53.4333420  24.4176435
   6.3477185  52.9831696  25.1960993   5.5197766  52.7658653  23.9477944
  72.5072527  82.7225685  50.8519077  71.7326403  83.1534195  51.2132645
  72.4946880  82.9480267  49.9217224  21.8151955   3.1112689   6.9580156
  21.5347675   3.1372851   6.0431874  21.1103157   3.5469932   7.4370921
  76.8945169  57.3743629  32.6586008  77.4992085  57.4768782  33.3934951
  77.2433043  56.6334534  32.1629906 100.5698967  52.5938702  50.7021141
 100.6363201  52.3112726  51.6142273 101.4261150  52.9743719  50.5062962
 102.9615688  72.2116280  20.1712751 102.1156502  72.2276115  20.6189322
 102.7651882  72.4938965  19.2779708   9.5631173  78.6592436  81.6930962
  10.0379041  78.2247877  82.4016476  10.1129583  78.5280275  80.9206390
 108.7297916  93.0381680  42.1489906 109.4477940  92.4115372  42.0593739
 108.2811451  92.7750397  42.9525518  58.2704114  26.7126824  87.3164454
  59.1509103  27.0875908  87.3362392  57.7586602  27.2722031  87.9006425
  20.9644464  82.4991798  62.4439430  20.2708104  83.0911446  62.7349234
  20.5568174  81.6331196  62.4462509  83.9043331  46.4010715  50.9989214
  84.0284538  45.5917168  51.4946699  83.0731392  46.2763166  50.5408907
  94.0916157  48.8792324  62.4356031  94.7031116  49.3796062  62.9759121
  94.0145111  49.3872976  61.6280413  65.3163862  64.9495316  22.3623252
  65.3805780  65.8973312  22.4797297  64.8833942  64.6384954  23.1573129
   1.7135385  47.2050571  28.1591845   2.0062402  47.1216154  27.2516632
   0.8983758  46.7045879  28.1949091  87.2336578  71.0512161  53.4052610
  87.9820347  70.7629633  52.8826952  87.3194218  72.0038843  53.4412956
  12.3775914  91.2806225   1.4773120  11.9154790  90.4675388   1.2733689
  12.6462320  91.1808300   2.3906076  65.9353781  67.5801182  31.4759374
  66.5297794  67.8604412  30.7799911  65.0972366  67.9848957  31.2525511
 103.2428169  56.6451693  46.9911623 102.6451206  55.8976698  46.9758368
 102.8117466  57.3076248  46.4511967  63.5426140  86.1359310  61.9712925
  63.7102413  86.0325050  62.9080057  64.3953609  85.9985542  61.5587711
  63.5502481  30.1892020  85.3079504  64.4698285  29.9990965  85.1222837
  63.4564447  31.1234023  85.1216418 103.6250401 105.1032257  18.1878293
 104.3474770 105.3332615  18.7721241 102.9376316 105.7358646  18.3963180
  78.5453272  73.0370331  39.2213845  79.2900038  72.6720190  39.6993494
  77.8351688  72.4130774  39.3716574  28.3815244  98.3751583  16.1379910
  28.2970861  97.6385307  16.7433667  27.4827245  98.5733414  15.8750784
 100.1628399  69.9178314  62.3093748 100.3481960  68.9804363  62.3656225
 100.7551861  70.3177452  62.9461050  44.9630550  16.9850558  34.7579336
  44.0479092  16.7105884  34.6995401  45.3281692  16.4526385  35.4646564
  17.8661588  71.1950016  32.0319343  18.3340505  71.9867706  31.7665744
  18.1128076  70.5406380  31.3783240  10.8034566  86.5899277  51.1604452
  11.1456159  87.4425602  51.4291191  10.5637887  86.1587429  51.9807339
  12.4986222  82.0850372  19.1707242  11.6615537  81.7348003  19.4754946
  13.0554155  82.0864105  19.9493170 102.7082253  75.9514523  19.0302420
 101.8692493  76.4112186  18.9991474 102.8153419  75.7104969  19.9504042
  85.0197029 102.1445560  11.3614929  85.0705814 101.8510437  12.2711623
  84.1486740 101.8741512  11.0709405   1.7949823  79.3041849  22.8796911
   2.0125535  79.7689438  22.0716763   2.3302415  79.7273874  23.5509777
  98.6200142  69.1693544  18.2312059  97.9692364  68.7461662  18.7912297
  98.6477852  68.6261034  17.4435902  38.0064968  17.0958442  62.0704985
  38.9513878  17.1070308  61.9178867  37.7228168  17.9903811  61.8819237
 100.2830315  54.2203903  40.7716227  99.6366215  54.3908548  41.4567041
 101.1207867  54.4600153  41.1678171  96.7527294  60.9994411  46.7430735
  96.3938236  61.8308735  47.0531416  96.5741253  60.9973049  45.8026838
   3.2879785  38.4432936  66.5536165   3.4997991  37.9444122  65.7646418
   2.3312238  38.4640145  66.5742350  17.8274396  82.9950523  52.0789051
  18.4493497  82.2837543  52.2322273  18.3727601  83.7782574  52.0051479
 105.7020092  95.6568241  17.8139472 105.0852394  95.1055908  17.3323274
 105.2100945  96.4551163  18.0062413  95.8746719  99.2266464  57.0830059
  95.1833344  98.6238098  56.8093777  95.6650639  99.4339657  57.9936743
  97.2733784  72.6582575   4.7289571  97.1600342  73.5033989   4.2940760
  96.7153645  72.0578098   4.2346695  82.8368855  61.5788364  50.6194782
  82.9833889  62.3112059  50.0208092  81.9299984  61.3171721  50.4604006
  29.5347790  16.4231128  59.9955177  29.8977665  15.9401340  60.7379484
  28.6554912  16.0623092  59.8819017   8.7848142  86.4444923  23.1633830
   7.9662278  86.9320869  23.2551122   9.4698957  87.0976543  23.3057737
   6.0310605  91.0562706  24.1845536   5.9453061  91.9370079  23.8196135
   6.9645360  90.9663200  24.3763089  23.1984333   4.3117923  57.1354914
  24.1502289   4.3658465  57.0495176  23.0331520   3.4080428  57.4041033
  93.7347794  93.2951832  69.0735579  93.2885933  94.1141033  69.2892218
  93.0647182  92.6207829  69.1850471   7.3713830  61.4641714  41.7360353
   7.6825479  62.3239422  42.0192289   8.1275228  61.0658407  41.3049698
  92.5272274  94.8090363  20.1888752  93.0278206  93.9932919  20.2027965
  93.1221771  95.4614830  20.5584621  68.8452482  65.0693750  50.0630140
  69.4628048  64.5685959  50.5960083  68.8437462  65.9426022  50.4550600
 109.6586037  85.4651451  23.8493967 109.4520092  84.5857525  23.5328245
 109.2351151  86.0511494  23.2221174 107.7999687  89.3535519  40.4181004
 107.0242691  89.8140049  40.0979328 108.2984543  90.0221348  40.8879375
  63.0169296 104.2183399  31.1745811  63.7620354 104.7122383  31.5168095
  62.3061800 104.4004440  31.7893219  11.4480069  79.0519571  38.8919234
  11.5503076  79.1396141  39.8395944  10.9832051  78.2231331  38.7768412
  27.9519562   3.1551665  39.9513578  27.8339199   4.0951079  40.0885010
  28.5268501   3.0947703  39.1884160  17.0235398 104.3111134   6.1919326
  16.2175992 103.8999081   5.8794987  17.2194245 104.9818134   5.5377024
 104.2130661  69.4354582  31.5664339 104.4956589  68.6905050  31.0359430
 104.9413395  70.0546551  31.5170288  21.8244222  88.2645035  63.9956474
  21.4223722  88.4716606  64.8392582  21.1460164  88.4659195  63.3511114
  49.3567895  37.8351237  77.0712137  49.5084619  37.2081496  77.7784109
  50.0095510  38.5203864  77.2145736  44.1808037  16.2098521   8.8302863
  43.7707905  16.9570369   8.3945757  44.9243835  15.9849471   8.2710612
 103.6916924  85.8233261  30.3298450 104.0136433  85.3303528  29.5751524
 102.9608154  85.3022099  30.6622314  84.9175262  83.3059216  29.1868949
  84.6346664  83.3699703  28.2746863  84.1865921  83.6647892  29.6900630
 104.3914032  56.7877054  64.4235086 104.8872471  57.3456144  65.0227690
 104.9289131  56.0014200  64.3282270  95.5962944  73.1242990  32.9004288
  95.8106136  72.3233080  32.4221897  95.4237652  72.8303194  33.7948775
  24.3802456   7.3349208  59.7859955  25.2136139   7.2031325  60.2380657
  23.7671760   6.7572803  60.2406406   7.1368650 102.7400112   9.2770493
   6.6684392 103.1667519   8.5596293   6.8635705 101.8238544   9.2300957
  71.1451674  61.9512939  61.5068483  70.9605455  61.9180059  62.4454880
  70.6099510  62.6758051  61.1830282  55.5152512  98.1388569  18.7911320
  55.3230238  97.3464966  18.2896864  56.0718441  98.6596012  18.2121122
  21.7104153  -0.1924592  79.7568417  21.9167141   0.6822413  79.4273329
  22.1299747  -0.2297097  80.6163883  88.7162304  69.0016031  43.5644817
  88.4773731  68.8533306  42.6495028  88.2398987  69.7944546  43.8109159
   4.8428062  18.7795562  48.8387012   4.1480688  19.2321223  48.3604193
   5.2425388  18.2006473  48.1896210  79.6013689  63.2108545  41.6290188
  79.4742346  63.6186695  42.4856138  78.7276268  63.1968594  41.2383604
 102.2995567  76.7072630  35.6655383 102.4071884  77.4534798  35.0757837
 102.8408813  76.9222641  36.4251184   4.4377568  81.4608765  64.0180159
   4.8387006  81.4348602  64.8868036   5.1051095  81.0985088  63.4352970
  92.8585815  49.5894194  11.8979847  93.7612247  49.5795393  12.2163665
  92.9119778  50.0095272  11.0395622 106.3482094  73.8372803  68.2571745
 106.9018459  74.1976309  68.9498997 106.7986298  73.0389166  67.9815435
  14.1827920  93.0319786  29.5676017  14.7411779  93.7806702  29.7771001
  14.6100095  92.6167774  28.8183880  82.9010010  73.5734558  52.0773506
  82.8805733  74.3930197  51.5832520  82.5650406  73.8070440  52.9426861
   6.3891843  56.6683149  36.2107420   6.5306047  56.5160179  37.1451068
   7.2661164  56.8164539  35.8567929  84.0743637  73.2964945  46.6737700
  84.3356228  73.6087561  47.5400639  84.4410419  72.4141598  46.6165876
   2.3912767  93.4023952  79.1534662   3.1708673  93.0619335  78.7146521
   2.4791196  93.1083298  80.0601292  12.1812490  49.7036076  40.9239006
  11.6508535  49.3098688  41.6166306  12.1061185  49.0945864  40.1892662
 111.1262512  77.6235962  64.6633959 111.1497402  76.6761780  64.5289326
 110.6501484  77.9614353  63.9048290  93.6725521  65.7674503  50.8622122
  93.8076210  66.2224102  51.6934776  94.1294956  66.3069153  50.2169132
  91.5255165  36.1925817  52.3281288  90.8083153  36.1756706  52.9618263
  91.1993599  36.7372513  51.6117525 100.3717041 100.2802086   7.5375545
 100.1493263 101.0684872   7.0421785 100.6889820 100.6077576   8.3791459
  90.7093334  65.6496000  16.3962388  90.0317955  64.9743891  16.4316571
  90.8586979  65.7902145  15.4612792 102.1611500  75.6703806   9.8165345
 102.0995903  75.1290417   9.0295178 101.7979717  76.5163183   9.5543754
  16.5168813  92.7669048  37.9856968  16.9221547  93.4924316  38.4606719
  17.2432473  92.1768570  37.7845311  74.6922207  77.5096226  67.7932167
  75.1157808  77.3188925  66.9562864  75.3724623  77.3507214  68.4476280
  20.7658532  82.4371529  72.8136492  21.6369203  82.2941017  72.4435091
  20.2820352  82.8866100  72.1207333 105.9100437  69.4968843  61.7089415
 105.0867081  69.0087938  61.7194939 105.6921864  70.3248262  61.2808228
 108.8242245  64.9920464  13.5306358 108.9583683  65.9051895  13.2768548
 108.5340500  65.0368071  14.4416916  32.2625783  81.2419891  52.0090771
  33.1153348  81.4509201  51.6277790  32.3721364  80.3640079  52.3742867
  98.5248852  90.2916622  30.4930353  99.0173340  89.8481274  31.1836863
  98.3914852  89.6196175  29.8246098  26.4607099  76.0402727  72.1578932
  26.1674073  75.8189774  71.2740183  27.1332029  75.3889132  72.3571920
  72.1988583  94.3621445  29.8739386  71.3391924  93.9671230  29.7284579
  72.0310354  95.0851250  30.4783940  12.1625951  89.9964142  88.1971264
  11.3381150  89.9018860  88.6741257  11.9706014  89.6666145  87.3192883
  98.6173058  66.3205004  39.4597197  99.2061424  65.7141829  39.9090266
  97.8206253  66.3180971  39.9903107 108.0344009 105.0718784  47.7814531
 108.9458561 105.1743698  47.5076246 107.5244808 105.4348946  47.0572805
 109.8212242  80.2905560  45.9198380 108.9440536  80.6298447  46.0978746
 110.2574730  80.2956295  46.7718267 104.9540710  48.4290981  41.1277676
 104.0438080  48.3829117  40.8353472 105.4674721  48.3800602  40.3213882
  84.2579746  66.3558674  49.5542669  85.0368595  66.8854570  49.7248745
  83.7558746  66.3992643  50.3680515  23.2770351   9.2438430  58.1849813
  23.0402569   8.8053531  57.3677397  23.6195473   8.5444469  58.7415409
   1.6766885 102.1435738  14.8912108   1.2314847 101.8805790  14.0856910
   2.5013497 101.6577721  14.8786497  18.8395074  67.2196054  21.5755200
  19.3494466  68.0111790  21.7475820  18.9414170  66.6921234  22.3677397
  85.2602005  54.7840071  57.6870155  84.5396042  54.7311258  57.0591879
  84.8695564  55.1771450  58.4674406   4.9030355  93.5515022  39.1146207
   5.0489667  93.1346130  38.2654142   5.7490495  93.4932232  39.5585752
 106.3038826  83.4585094  54.0216303 106.1645317  83.9631939  53.2203197
 105.6150055  82.7940369  54.0090275 108.6803055  68.8576412  34.4861245
 108.7863731  67.9065323  34.5052481 108.3169651  69.0407467  33.6197042
  93.4838486  89.0166473  33.6107135  94.0344238  89.6425056  33.1401896
  93.5255814  88.2180882  33.0846024 100.7878780  65.2847338  12.9069531
  99.9694252  64.9990034  13.3128142 101.2646008  65.7229185  13.6119103
  94.4520283  54.7628307  34.3363070  94.1470528  53.9019156  34.6227527
  95.1644707  54.5735884  33.7256980  38.8251260 103.6983871  18.4226024
  37.8885701 103.5022545  18.3977461  39.2411569 102.9303169  18.0311716
 102.1737194 103.5419655  33.1920457 102.0246124 102.7672958  33.7341595
 101.8363476 103.2993984  32.3297358 111.8056583  67.9585600  48.0320978
 111.2261486  67.2192955  47.8479862 111.2285328  68.6309195  48.3941603
  94.1449165  51.8568611  17.4520707  95.0714588  51.6406775  17.5570655
  93.6832333  51.0508060  17.6830673   5.5165437 103.1037903  50.7944393
   6.3402799 103.5802937  50.8976364   5.6156877 102.6301193  49.9685860
  42.3479370   0.1128119  39.7183013  41.9281010  -0.6232720  40.1634264
  41.6219429   0.6756038  39.4491577  95.4580212  70.7777023  37.6512289
  95.8431339  71.6213894  37.4143291  94.8830700  70.9759569  38.3903861
  48.8082889  26.2402171  76.6179609  48.1201843  26.8990153  76.5245152
  48.4086231  25.4299373  76.3018227   4.0138868  74.5601845  31.6849279
   3.8686517  75.4558802  31.3801956   4.4521382  74.6626997  32.5297093
   1.3320687  66.5297985  63.3159447   2.2220853  66.2555456  63.0948544
   0.8214143  65.7203197  63.3013535  97.3743343  78.5679197  45.6605148
  96.9540024  79.0195513  46.3923502  97.7258587  79.2715025  45.1149511
  98.4356785  59.6478605  44.6078396  98.7560558  60.1507807  45.3566170
  97.5772190  59.3271923  44.8843479 103.9819527  81.6275120  30.4750037
 104.2613411  82.1204472  29.7035193 103.1471825  81.2351513  30.2191663
  69.7107601  86.2009811  83.0688095  70.1310873  85.5253601  82.5367355
  70.3762722  86.8829727  83.1594467  16.6412881  56.8985701  15.3135598
  16.2444165  56.6555548  16.1500192  16.0314801  57.5312328  14.9339485
  81.9772434  79.5278263   8.2037854  82.8802586  79.3196630   7.9640591
  81.5513515  78.6755562   8.2958972 102.5518513  55.4613113   4.0241176
 103.3892536  55.3675699   3.5700220 102.7222633  56.1069107   4.7099707
  69.6454144  90.4712486  44.8406363  69.0899897  90.8187008  45.5384970
  70.2677441  91.1749840  44.6570492  91.5594959  70.2425623  61.1625671
  91.6764164  69.3027544  61.0235643  90.8691788  70.3029633  61.8229055
  74.6890831  54.7524786  33.5405326  75.2539492  54.4237804  34.2399025
  75.1136065  55.5593634  33.2490730 105.4984188  80.3731441  18.9606500
 104.8287773  80.6420135  19.5895541 105.3180981  79.4468975  18.8000917
   1.5813545   3.2077998  59.8321581   1.4526419   2.4165362  59.3091249
   1.5874628   2.8979129  60.7377911  47.3546604   5.1188678  44.4052887
  47.6277355   5.0584048  43.4898615  46.8555263   5.9342307  44.4529819
  99.3674660  82.3777390  14.1607356  98.7728119  82.5859737  14.8813355
  99.6175766  83.2295418  13.8028204  53.7120918  25.7566279  52.5196362
  53.3810619  26.5399188  52.9590797  53.3885769  25.0291270  53.0509615
 103.5338593  50.6500006  47.1119165 104.0268612  49.8300362  47.0830059
 102.6856232  50.4332447  46.7249489  69.9061871  71.2812519  43.4591532
  69.5965576  72.0605469  43.9207363  69.1829538  70.6581640  43.5292959
  33.2785180  70.4397488  32.9509854  34.0967229  70.9050179  32.7769136
  33.2964757  70.2676535  33.8924170   5.5803636  88.3152962  46.8171453
   4.8530152  88.7947655  46.4205313   5.9488633  88.9249897  47.4564552
  16.7633203  76.4420033  46.1181641  17.0643571  77.3366070  46.2771988
  16.8662503  76.3188457  45.1745176 105.0055695  48.3025551  32.6668453
 104.9682903  48.7467861  31.8197918 105.3498554  48.9626265  33.2685161
 100.9766388  62.0897913  35.4056597 100.4297638  61.4294481  34.9800897
 100.9964466  62.8195572  34.7865653  44.3458752   9.8083610  40.1359797
  43.7238411  10.2354163  40.7249880  44.0604977   8.8951320  40.1075029
 106.6410923  86.0833549  22.1070409 106.8085957  85.6904507  21.2504172
 107.3388577  86.7297077  22.2146606  95.8766842  90.4982471  50.0680542
  95.4539680  90.0151348  49.3580198  96.7379284  90.7300091  49.7205114
 106.8843842  78.6697245  42.3048258 106.2627602  78.2135010  42.8719950
 106.4664078  78.6712170  41.4437056 103.9891148  77.3742723  38.0267048
 104.0027142  76.4920378  38.3977962 103.5229683  77.9002810  38.6765146
  79.1724730  63.6577988  35.8591175  79.8260832  64.1973305  36.3040161
  79.6114445  62.8193665  35.7156801  73.0035305  94.8535061  50.1594162
  72.3639250  94.7547245  49.4541645  72.5316000  95.3239250  50.8466005
  21.8065456   4.1786975  44.1406059  21.7769054   3.2986564  44.5159483
  21.9149784   4.0346164  43.2005453  20.0810865  93.7460232  50.3847694
  19.9236634  93.5421562  51.3066626  19.4523481  93.2035160  49.9087477
  81.5824890  89.0456104  38.5574341  81.2113762  89.8540401  38.2039404
  80.8241177  88.5465050  38.8607192  63.0720238  16.1209697  62.2250128
  63.9140228  16.1866206  61.7745066  62.5893215  15.4554767  61.7347479
 104.0276814  92.2838688   4.8277390 103.7373066  92.6026821   5.6823015
 104.7017384  92.9068279   4.5560890  20.3295663  87.5464725  28.7799120
  21.2314561  87.2864914  28.5922194  20.2003911  88.3471870  28.2715678
  10.6891111  92.5716972  56.9093418  10.5925325  91.9390202  57.6211166
  10.2802232  92.1476746  56.1548615 110.7404423  39.1636199  89.7581482
 111.6718913  39.2039889  89.9749470 110.6390811  39.7687930  89.0234852
 101.9418908   9.4891089  25.7388401 102.0254756   8.5364932  25.6967711
 101.9953633   9.7747439  24.8268151  20.3023914  15.5029315  56.4136600
  20.5436996  15.4609698  57.3389959  21.1117939  15.7492942  55.9659958
  24.1293767  93.6527824  37.5815415  24.0799573  93.2131863  38.4303927
  23.7364534  93.0325699  36.9673967  15.3408722  15.7001132  27.1554828
  15.3883747  16.6372603  26.9664502  15.3315262  15.6487388  28.1112576
  29.6582559  61.2534285   1.8417890  30.4066136  61.3581753   1.2542340
  29.1029218  60.6049061   1.4090526   2.9745916  87.4604130  28.7559319
   2.5548413  87.6830578  27.9249859   3.0455258  86.5059662  28.7402701
  34.5465664   2.9748267  36.6067481  35.0026516   2.4762076  35.9288120
  34.0600208   3.6440104  36.1254096 102.5719738 100.7202911  22.3342991
 103.0604935 101.3400745  21.7925954 102.8615189  99.8590374  22.0332360
  11.9032815 104.4002438  75.3709888  11.1177590 104.8568916  75.0698853
  11.6178849 103.4967041  75.5066109   6.0518602  84.6015358  71.4599037
   5.2665761  84.2726994  71.0223627   5.9389165  84.3491077  72.3762846
  89.3838882  47.1220160  36.1737442  89.2313576  46.2948895  35.7167625
  90.2191734  46.9963837  36.6240215  99.4086456  96.6266155   3.1503928
  99.9079323  95.8963490   2.7848122  99.1938686  96.3480568   4.0406200
 102.6006699 102.1700573  45.9259176 101.7551613 102.0122910  46.3459921
 102.4354362 102.0272732  44.9939632  96.9092846  85.0186825  65.0922203
  96.2385464  85.5603504  65.5080652  97.5459671  85.6463337  64.7502899
 105.4855919  74.0980721  20.0696254 104.6813297  73.6680412  19.7790086
 105.2598953  74.4801521  20.9177446   3.7424710  84.4392109  46.7038393
   2.9955819  85.0340271  46.6360426   4.0462258  84.3324566  45.8024168
  34.8046307  10.0675029   6.7174989  34.8287491  10.3859252   5.8151340
  35.5883793  10.4380721   7.1232742 111.4980888  99.3348598  60.9808064
 112.4299908  99.3176842  61.1987257 111.1841106 100.1660252  61.3369226
  75.8730173  71.1388111  64.0578938  75.5681849  70.2395964  64.1792250
  75.0988293  71.6159105  63.7591696  22.5337223   7.8331584  55.8621264
  22.9008488   6.9748611  55.6505156  22.4414066   8.2695884  55.0152254
   2.3973802  84.6589565  15.7096362   2.0242170  84.5054817  16.5776384
   3.1991342  85.1541042  15.8777404  93.7838554  65.5979776  45.3037310
  94.5313549  66.1106300  45.6114101  93.9119244  65.5319595  44.3574381
 104.1883469  51.2455559  36.0144019 105.0250340  51.2840223  35.5510402
 103.9807701  50.3120995  36.0568833  87.5199318  79.6006632  24.1505671
  87.2305965  79.7125721  23.2450342  86.7294216  79.7360420  24.6730614
  84.3731117  92.0287800  49.7759247  83.8135147  92.4466610  49.1213512
  84.9150562  92.7402306  50.1170540  24.3406251  59.8266268  42.5052977
  24.3922666  59.7170258  41.5557957  23.4100774  59.7291994  42.7073765
  13.9665082 100.3671837   8.4485042  14.1899541 100.6340122   7.5568199
  13.2074407 100.9040833   8.6760634  99.7849846  72.7853775  39.9686861
 100.2061272  73.0958128  39.1671252 100.3304863  73.1310654  40.6751966
  60.1412872  26.6695518  43.3762312  59.2704491  26.6839046  43.7733221
  60.0048546  26.9986075  42.4877834  43.3057312  18.6845893  52.9344177
  42.5384239  18.1985206  53.2364368  43.8583282  18.7668628  53.7116575
  11.0408882  11.6209907  32.8655815  10.8048824  12.5413913  32.7498031
  11.9137577  11.6450519  33.2577085  61.2251377  89.6703434  49.4394302
  60.3396797  89.3264008  49.5573235  61.7768812  88.8915539  49.3666935
 107.6743698  89.7720242  50.6165934 108.3566666  90.1587772  50.0678444
 107.1928883  90.5225277  50.9646559  54.2475227   4.6602267   8.2954311
  53.7231449   4.6238822   9.0953922  54.7632030   5.4618472   8.3832920
  62.5340891  73.5450983  40.0526857  63.1398726  72.9484129  39.6131158
  62.3572159  73.1284285  40.8960915  42.9418758   6.2134189  49.0764713
  42.1183971   5.8903808  49.4422054  43.4276203   5.4219836  48.8442612
  17.1754220  97.1315384  37.6169586  16.7200425  97.9576206  37.7796030
  18.0970243  97.3776817  37.5375867  10.0924066 102.8767872  16.6627324
   9.3910268 103.2431984  17.2012818  10.6983712 103.6058235  16.5302110
   7.6002602   3.6351413  13.8770854   6.7624573   4.0978641  13.8627982
   7.3825840   2.7377719  13.6249459   2.1004537 105.0150394  28.3601213
   1.7700723 104.3405724  27.7666879   2.8236726 104.5928097  28.8237000
  75.4652500  52.5424814  25.2126074  76.3390732  52.5207281  24.8224831
  75.2175903  51.6217279  25.2968979  70.3052330  94.2083073  73.9362621
  71.1078978  93.8105392  74.2735195  70.5473614  95.1154900  73.7501717
 109.5116997  71.2553835  56.4681625 109.7738361  71.9774008  57.0393085
 108.5883808  71.4226103  56.2791252  39.8138213  11.0549545   9.6592635
  39.9522114  11.8840170  10.1172304  40.6589746  10.8613658   9.2537189
   1.2630271  61.7308169  49.9378300   1.8505453  62.2337895  49.3738508
   1.5375065  60.8215075  49.8193216 110.1261684  72.8971129  40.5321503
 110.2611204  72.3400241  39.7655535 110.2587219  73.7877112  40.2073479
  53.5256481   6.6627562  53.7045288  52.9985809   6.0767609  53.1613541
  54.0386009   6.0767591  54.2610550  17.3772716  86.5456062  54.4423914
  17.6986980  85.6473714  54.3643379  17.3390960  86.8655044  53.5410404
  20.9915113  59.8557073  20.2074385  21.0913562  59.1317731  19.5892286
  20.1676559  60.2733022  19.9562168  63.6853266  20.8403111  25.7978678
  63.5996962  20.9646344  26.7430902  62.7842855  20.7662296  25.4834390
  23.0600452   4.1010419  12.6085782  23.4615350   4.8288310  13.0833006
  22.1401548   4.3507150  12.5208557  50.8952092  87.4616223  43.7140083
  50.2884530  87.8289324  44.3567896  50.3512048  86.8936258  43.1684065
  74.7051001   5.5435824  41.2333918  74.9444437   4.6307474  41.3936377
  75.5424452   5.9980857  41.1411142  22.0884347  10.4374921  37.6014090
  21.7749357   9.9255621  38.3469796  22.9268885  10.7959044  37.8925633
  17.5032520  87.5447076  12.1434247  16.8806981  87.7660483  12.8360045
  17.8839015  88.3844501  11.8861902  52.0253325   6.7662811  50.7223701
  51.5514994   7.2351837  51.4092827  52.4250984   6.0220468  51.1724091
  74.7315693   7.4460524  44.3094015  74.9376678   6.5410364  44.5432806
  73.7875700   7.5205332  44.4492197  69.3410206  16.2839341  42.9542351
  69.4079828  16.0590911  42.0262289  70.1987123  16.0623431  43.3168554
  63.1464100  15.6799185  33.6983609  62.3139286  15.3644681  33.3466482
  63.4234381  16.3600731  33.0844569   4.7963285  74.4515973  27.4495292
   5.4328965  74.5651489  26.7437530   5.2783107  73.9882475  28.1345344
  57.2413873 101.4724749  27.7414179  57.4590348 102.4044102  27.7603269
  57.1441316 101.2680527  26.8113732  85.7136631  18.0675042  66.4300442
  85.8310604  18.0002522  65.4824591  85.6184387  17.1617019  66.7244768
  25.1375961   2.6208648  15.3819263  24.9207664   3.5459909  15.4975057
  24.7711444   2.3939371  14.5272624  59.8428869  12.7208352  31.7103553
  60.2128649  11.8546975  31.5396070  59.6375036  13.0688584  30.8426404
  55.2626514  13.0360341  32.9506755  56.1061478  13.4884775  32.9572368
  54.6172571  13.7306309  33.0819488  29.0741014  19.4298267  35.2273393
  29.0503478  19.1685534  36.1478829  28.4982228  20.1929498  35.1800227
  59.7789764  13.3577538  46.2962866  58.8885593  13.3280551  46.6462994
  60.3387547  13.4177911  47.0704174  63.0798912   1.9066930  48.4149170
  63.3740282   2.8048229  48.5668325  62.8404903   1.5829468  49.2833138
  69.7746419 105.0946809  29.0262938  69.8051118 104.2364915  29.4491601
  70.6858968 105.3873645  29.0124798  46.9456815  82.8901487  31.3477087
  46.0263204  82.9072577  31.0817838  46.9377279  82.4761730  32.2107220
  36.1885262   3.8360375  26.6794634  35.3138018   4.0833518  26.9793367
  36.0661125   2.9841989  26.2603951  10.2246331  78.7905723   9.0446943
   9.2751550  78.9074784   9.0771395  10.3843879  77.9888254   9.5426041
  75.4842806   3.7660849  31.1781573  74.6926117   3.7825349  31.7159462
  75.7175398   2.8393462  31.1235738  49.9951458  43.0932283  21.5941739
  50.0968361  44.0431786  21.5352035  50.8033705  42.7910948  22.0085669
  51.4625502  20.0459170  54.4583893  50.8093977  19.4458592  54.0984488
  51.7214680  20.5915928  53.7158012  50.8000230  94.9750298  47.8790522
  50.0351571  94.5338899  48.2486534  50.4817151  95.3641551  47.0644999
  41.6080618  24.2695308   0.5776845  41.2928247  23.3959961   0.8096252
  41.6728973  24.2550421  -0.3772073  54.8484421  24.7524071  26.8948698
  55.4624271  25.4322767  26.6173172  53.9921093  25.1795363  26.8728089
  36.1863612  67.5882321  30.8027577  35.5081224  67.9477721  31.3745594
  36.1316060  66.6414076  30.9322095  57.0611048  28.8841939  85.6301498
  57.9808760  28.6257601  85.5712891  57.0444107  29.5568562  86.3109398
  75.6680489   1.2076057  29.9286890  75.3648186   0.5879215  29.2651582
  76.5394878   1.4693573  29.6315050  68.5303258 101.5151712  21.4735699
  68.0694055 100.8987659  20.9045100  67.9301309 101.6607815  22.2048640
  60.7720947   2.8075516  47.1478033  61.5616274   2.3097563  47.3601151
  60.7941246   3.5568905  47.7429819 102.3997974   9.3060070  19.3566048
 102.2018433   8.9270234  18.5002065 101.5548325   9.6159798  19.6824479
   5.4404691  35.8369422  49.8712111   4.6481660  36.2929296  49.5873833
   5.8840898  36.4619160  50.4446602  19.9138831  73.1400043  26.1650586
  19.1990518  72.6796919  25.7253265  20.6521224  73.0698043  25.5598283
  45.6514025  34.1663170  13.6196089  45.5259752  34.8910165  14.2322361
  45.3252935  34.5000458  12.7838397  24.7756719  66.1522418   9.7041136
  24.7759675  66.5034753   8.8136828  24.4295072  65.2646619   9.6113604
  56.5451145   3.0590093   2.9203635  57.0867109   3.4819499   2.2540110
  55.7080269   2.9010791   2.4838115  71.2298727   3.1497687  22.1747303
  71.2297726   3.7849060  21.4586067  72.1556950   2.9594555  22.3259497
   2.8505944  92.8848964   7.2640836   2.0878910  92.3173600   7.1526563
   2.4815988  93.7474984   7.4537981  11.4879274 105.0966795  16.5061319
  11.0860633 105.9652561  16.4884615  12.1030759 105.1322426  17.2386324
  50.0573444   2.6176885   5.5950052  49.1485691   2.8927675   5.4738057
  50.2959824   2.9533416   6.4590776  51.3646554  94.1390770  39.2596674
  52.2657251  94.1155940  39.5817804  50.9552144  94.8550170  39.7454810
  11.6878652 104.8064589  51.5560436  11.8304109 103.9129784  51.8684626
  11.5332889 105.3164283  52.3511982  53.0070066  91.3620955  48.6040211
  52.6509618  92.2481459  48.5378313  52.7758836  91.0765093  49.4879103
  29.1308736  71.2583667  31.9162393  29.6286630  71.8721467  31.3761377
  29.6672153  71.1396438  32.7001214  50.9373379  29.6247220  17.3353636
  51.7879009  29.9478579  17.6326180  50.9000301  28.7221766  17.6519859
  37.6370905  31.9620235  83.9482749  37.3075484  31.0660608  83.8783848
  36.9422339  32.5027687  83.5727787  44.6560621 104.5526217  26.3025141
  43.7303495 104.6569521  26.0824847  44.9422216 105.4300101  26.5565419
  87.5923141  93.3631688  53.8702440  88.0125149  93.7867576  54.6187353
  86.9252511  92.7971881  54.2587376  10.7709622  -0.0920695  19.8644888
  10.2747715   0.7186981  19.7518730  10.5957389  -0.5927483  19.0677142
  57.5146389   4.4101387  52.9821348  57.6765013   3.5391685  53.3446884
  57.7924299   4.3446675  52.0684719  87.0760441   0.4795956  37.4459887
  87.9504395   0.1881601  37.7043128  86.4833355   0.0034381  38.0275416
  15.9833097  91.5874022  15.0678134  16.8302058  91.4562517  15.4942000
  15.3407621  91.3119679  15.7216477  99.2888113  79.7957879  36.6479349
  99.5384952  79.5806271  37.5465989  98.4807464  80.3008657  36.7382598
  73.2306051  19.0963972  48.5907888  73.1835508  20.0432014  48.7233782
  74.1460133  18.9313841  48.3648825  53.8359499   4.9681810  24.0378308
  53.3198071   5.3975981  23.3556056  54.4985151   5.6152165  24.2798805
  30.3864860 105.0665597   3.0844522  30.9597778 104.6376852   3.7197763
  29.6287297 105.3478100   3.5972226 105.5390068  98.6392677  39.1682363
 106.3736817  98.5570544  38.7069416 105.5039497  97.8713953  39.7386527
  62.4046183  18.9970660  47.1085501  61.7976713  19.4631040  46.5335226
  61.9033337  18.8394451  47.9086113  61.6664886  23.7474871  29.3046045
  61.1955833  23.0997109  28.7803268  61.1664391  23.8060355  30.1186991
  92.1842619  96.5867704  61.1757326  93.0621322  96.3439435  61.4700270
  92.1584650  96.3229286  60.2559757  97.8049516  92.3462420  32.4646211
  98.3849572  93.0602854  32.7291250  98.3953809  91.6204887  32.2623658
  96.4909740  76.9101078  90.4970332  96.9608732  76.3116844  89.9162455
  96.1268564  77.5747664  89.9123314  44.2017507  93.5628372  10.0055099
  43.9908265  92.6679653  10.2718675  43.6383294  94.1136163  10.5490386
  72.0514107  14.8030484  56.9781637  71.9063568  13.9562070  57.4001265
  72.3900509  14.5833099  56.1102533  40.2307367  17.0048189  20.8047986
  40.5182838  17.8809166  20.5478907  40.9870052  16.6264248  21.2532544
  81.0954666   0.7560211  31.0671234  80.6250763   1.5426803  30.7912087
  80.6106091   0.0342672  30.6668472  38.0172014  85.1689201  25.8319068
  38.4754895  85.5311459  26.5901899  37.7230167  85.9361106  25.3408813
  23.5144233  99.7952527  36.4187455  23.7429666  98.8972354  36.6586661
  22.5586366  99.8195815  36.4647102  73.5883875  21.8314321  85.2394515
  74.1689749  21.2388666  84.7619379  73.5424967  21.4625509  86.1215246
  56.8633699  10.5560064  48.7773371  56.2639475  10.3109646  48.0724430
  57.2329998  11.3933337  48.4971762  82.7704334   0.4132227  23.4173465
  82.5684643  -0.5149788  23.2995272  81.9362354   0.8098690  23.6683846
  87.4060345  28.4988904   0.2120115  87.3156166  29.4315743   0.4073423
  86.6381741  28.2900548  -0.3199772  85.4605675  27.8381371  34.5946980
  85.5836678  27.0439911  35.1147127  84.6860695  27.6578808  34.0618801
 111.6476747  89.4254726   9.7333908 110.8580729  89.6800357   9.2559391
 111.3306113  89.1612345  10.5970347   7.7024888  98.8852995  66.5277576
   7.8168248  98.5338109  67.4107122   7.0387458  99.5679873  66.6258192
  93.9639568   1.5389250  48.1155920  94.8147869   1.6395609  47.6887465
  93.3402348   1.4688110  47.3928976  41.3274860   4.1110384  59.9237061
  41.9101810   3.6825240  59.2967510  40.5123520   3.6118144  59.8730087
  51.8931150  31.9888091  24.7149873  51.6105556  31.8156409  23.8169885
  52.7835369  31.6401100  24.7573519  99.4273949  15.5905950  36.8299317
  99.9009323  16.4137650  36.9498587  98.5065079  15.8481455  36.7866278
  59.3667555  31.3159466  21.1416698  60.2787685  31.0343099  21.2133813
  58.8571692  30.5311131  21.3431430  66.2783766  29.8482847  34.8320699
  67.1401978  29.4696331  34.6585417  65.9995174  29.4428110  35.6530809
  32.7191806  21.1253047  41.2768507  33.1029463  21.7770934  40.6902266
  32.0660043  20.6756473  40.7407570  94.6824646  10.8260691  32.4213290
  94.9909306  10.6546795  31.5315485  95.3457165  10.4285157  32.9854965
  45.5506277   8.3489525  12.5955796  45.9955931   9.1573679  12.8499436
  45.4987383   8.3943176  11.6408634  90.0767422  15.6189823  54.6666861
  89.1621494  15.4229403  54.4634295  90.3000832  15.0135291  55.3736353
  96.8901730  16.9101155  45.0251198  97.5453758  17.6004708  44.9234343
  97.1202850  16.4810038  45.8492184 109.7823811   9.7708178  37.8000760
 109.9395657   9.7035623  36.8582678 109.2674255  10.5714309  37.9003859
  39.6003579  85.6856483  52.3777819  40.5150127  85.4128235  52.4499750
  39.3608379  85.4836362  51.4733171  84.5990562  29.4767284  51.0974598
  84.9385166  30.3651595  50.9893513  84.4062424  29.4061160  52.0323753
 109.0214916  85.8584767  18.0834138 108.1339022  85.9394520  18.4324944
 109.2746802  84.9564725  18.2796645  14.7812986  82.5991112   9.8274714
  14.3645906  83.2817989   9.3016177  14.3978404  82.7002722  10.6986523
  73.3635283   3.7595800   5.9871697  73.3970261   3.3128306   5.1412827
  73.7482691   4.6197915   5.8191210  38.3517241  26.3064432  45.8034515
  37.7178955  26.9790220  45.5541801  37.8808260  25.4805517  45.6921387
  44.8355579  20.9638953   8.8753098  45.7251453  20.8790326   8.5322815
  44.9382830  21.4603305   9.6872413   3.0213927  46.3891740  87.0541590
   3.7468623  46.9193579  86.7242569   2.5768136  46.0751475  86.2667787
  84.1099072   5.5963105  17.5812483  83.1763554   5.7578814  17.4448168
  84.1577625   4.6778315  17.8464615  57.3987961  26.0434675  43.7091494
  56.5490294  25.6043768  43.6727381  57.2728539  26.7575145  44.3340540
   5.2072095  88.6288959  20.6027055   5.5750608  87.7832383  20.3462291
   4.2778920  88.5623210  20.3832316 110.3418636  21.2677121  47.2045517
 109.9314117  21.9401288  47.7482605 110.5736160  21.7228317  46.3949871
  78.4085608  15.5048275  40.2670527  78.4080744  14.5679748  40.4633617
  77.5079250  15.6949997  40.0045252  88.0251408  24.3482018  25.5418324
  88.0033302  25.0815916  24.9271011  88.4226704  23.6321425  25.0463939
   2.2277474  81.2087160  39.5413923   1.5889358  81.0154158  40.2275324
   2.9447221  80.5951982  39.7019410  94.2691231  43.3946466  13.6023557
  94.6976471  42.8150606  14.2321825  93.3536625  43.4162283  13.8810778
  76.3206816  19.0839088  36.9049025  75.7445097  19.8232055  36.7107391
  77.0600080  19.4727457  37.3722672  90.5990219  18.2396221  32.8816152
  91.3933182  18.4261239  33.3821583  90.1985550  19.0973294  32.7395034
  73.9823771  12.1903110  26.3590574  73.1355953  11.8763292  26.6762471
  74.1563320  12.9755867  26.8780088  65.7243299   9.4479048  37.3885560
  65.1500988   9.9781364  36.8359733  66.2116051  10.0861681  37.9095268
  53.7042379  20.8898354  80.0905514  54.2876339  20.1376581  79.9900007
  54.0912104  21.3996243  80.8023071  51.1149453 104.6283521  16.0839784
  51.8451547 105.1985321  15.8433008  50.4605531 105.2206595  16.4543390
  74.6822786  40.6992006  76.6522884  74.5999956  41.5306568  76.1852312
  75.1050186  40.1128387  76.0248327  83.0021381   5.5170655  49.4875622
  82.1775436   5.5923361  49.0073442  82.7526379   5.6061697  50.4073668
  60.2037191  91.4076310  44.3704796  60.0544786  90.5036074  44.6474314
  60.4841279  91.3354391  43.4581280  57.9396534   8.9834046  61.7327070
  58.3893251   8.1403619  61.6752100  57.2013569   8.9027303  61.1288548
  72.8592157  10.7559538  46.0844040  73.7254190  10.6864297  45.6830454
  72.9832220  10.4372871  46.9784451  43.9608049  29.0467358  40.2601147
  43.6486149  29.6894336  40.8970690  44.9128437  29.0543914  40.3590775
  99.8680687  23.3522105  24.7666192  99.4316864  22.6594710  24.2707157
  99.1688251  23.7551904  25.2813053   8.0347303  25.8866858  15.0319779
   8.8186982  26.3570189  14.7483945   7.7282479  25.4357481  14.2452419
  62.8954601   1.4128885  28.3580375  62.2435284   0.7149536  28.4220958
  62.4970436   2.1552275  28.8123846  29.6584224 104.8957989  26.2929583
  29.0940570 105.6260904  26.5467310  29.1494226 104.1140160  26.5073562
  85.6483269  11.7486322  15.4108202  85.9373951  11.7841005  16.3226378
  85.3245544  12.6306081  15.2277255   6.6233396 104.2892424  22.9200888
   6.0960721 104.1830629  22.1282887   7.5197601 104.3883724  22.5994062
 102.8187943  12.2883177  35.0679708 102.8790855  11.7402983  34.2854929
 102.1220589  12.9138398  34.8691916  65.7278585 104.2110873  34.8027921
  64.9061345 104.6694331  34.9786448  65.6489515 103.3858432  35.2813077
  11.3921344  11.7122436   5.0678480  10.6189346  12.2610104   5.1991874
  11.1597610  10.8723080   5.4637533  65.6408119  31.7639685  38.6265492
  65.9482050  31.2177229  39.3499827  65.2606821  31.1446357  38.0035233
  43.9053822   9.1490304  19.4856811  44.7770214   8.7579125  19.4264972
  43.3537436   8.5883796  18.9401543  41.2272643 103.5913110  32.2839952
  40.5255365 104.2323832  32.3972797  40.9460973 103.0572001  31.5410948
  54.1914797  29.4191098  16.2511873  54.0009546  28.6450338  15.7213402
  55.1362801  29.3809271  16.3999295  97.5852680  13.8107264  44.6500874
  98.2888031  13.4330440  44.1222429  96.9170856  14.0634668  44.0129948
  80.0617981  16.7233932  42.1053553  79.6560526  16.1415994  41.4626122
  79.8920774  17.6043761  41.7717457  30.1012849 103.6017680  17.3529458
  30.8026885 102.9984754  17.5985086  29.4680928 103.0558754  16.8867886
  43.9127684   6.4119428  22.6493144  43.3437347   6.6516495  23.3807349
  44.0441608   5.4688662  22.7471614  83.2296181  25.3500819  27.3101616
  82.5353813  24.7063732  27.1690798  83.9203930  25.0953054  26.6984797
  16.9952487 105.0765748  35.1993990  16.2177228 105.2097123  35.7415771
  16.6561269 104.7231920  34.3769956 110.4737949  11.8934655  19.7142732
 110.7634830  12.7923119  19.5580947 110.0578117  11.6298544  18.8934839
  86.5416431   0.8479620  44.3820238  85.7675743   0.3831631  44.6998358
  87.1072674   0.1597480  44.0317869  70.5257988  12.6703596  16.1113310
  71.4314318  12.6284599  15.8042288  70.1086998  11.8960881  15.7334888
  31.5512919  45.8188438  22.3052216  31.9725609  45.7597685  21.4477396
  32.1049666  46.4202833  22.8031635 107.8060818  25.8217597  45.9801531
 107.1012878  26.3420630  45.5944300 108.3224773  25.5250931  45.2307844
  76.6379805  43.3785672  85.1339591  77.5326295  43.7014277  85.0262469
  76.5520902  43.2201053  86.0740358  42.8936672   2.5340891  13.2329166
  42.7322674   3.4316713  12.9421794  43.6694622   2.5985762  13.7898815
  30.8603048  94.4010406  18.0336750  31.7702722  94.6924549  18.0908036
  30.6385802  94.4884127  17.1066177  46.0818242  99.4608646  24.1350627
  45.5948495 100.2844709  24.1627669  46.9411134  99.6784174  24.4963360
  28.3782243 104.9629029  36.4813280  29.0444040 104.3756717  36.8385339
  28.5444402 104.9684768  35.5386853  86.0411549   4.1279674  47.9142380
  85.4457569   3.5933021  47.3890114  85.4966259   4.8458925  48.2371950
  50.7833910  30.6939268  45.8281612  50.8664322  30.2154374  46.6530132
  51.5215731  31.3032818  45.8293819  86.2846756   3.7665296  38.5440946
  86.1668587   3.0353317  39.1504788  87.2335720   3.8764310  38.4828973
   6.1350548  40.6976509  21.7641973   5.2783692  40.2846241  21.8725109
   6.6299850  40.4291534  22.5382686  26.8255138  86.8235033  38.1811738
  27.0293760  87.3990792  37.4440289  25.8912467  86.6371017  38.0882573
  81.0524273   7.2522813  55.8230448  80.3568745   7.3466456  56.4738369
  81.7255211   6.7348796  56.2651730  33.1978511 100.4548514  59.7836924
  34.1041087 100.7054829  59.6045017  32.7913474 100.3920501  58.9193773
  75.2813244  27.6666856  24.9996328  75.7224321  27.9023719  24.1834760
  75.1252699  26.7252970  24.9243402  61.2925053  39.1503811  86.8918896
  60.6756115  38.4246922  86.9870281  61.0990953  39.7275615  87.6305962
  24.5458554  97.0743119  85.5406380  24.5059013  96.7660653  86.4459705
  24.7428703  98.0081367  85.6140423  64.7224998  32.2077751  28.9092088
  64.6242094  33.1358862  29.1217589  65.4062653  31.8972445  29.5027280
  54.3774366  88.9963215  30.1570344  53.4461927  89.0417510  29.9403429
  54.7092675  89.8751443  29.9732137 105.5661201   9.6532315  67.6406145
 104.7024345   9.6644318  68.0531025 105.4062843   9.3156135  66.7593098
  51.9669867   2.1220779  35.1954651  51.3941574   1.3555679  35.2191710
  51.4737749   2.7743787  34.6979976  38.1683683  80.3470975  39.9923992
  39.0734576  80.4828578  39.7120214  38.2429218  79.8801356  40.8246374
  38.3897734  38.8685441  24.1117668  38.7099171  38.2857370  24.8002958
  39.1817594  39.2527008  23.7357163  51.0650253  28.9446211  47.9439974
  51.6810703  28.2899380  48.2727957  50.3914022  29.0012884  48.6216831
  68.0954504  49.9919128  21.0382462  68.2024002  49.0983391  21.3643074
  68.5603952  50.5360508  21.6738319  85.9825134  47.0874262  49.3827152
  85.6262112  47.9259825  49.0892792  85.3439903  46.7653465  50.0189400
  71.8749571   3.8099858  47.8288269  71.2899685   3.4576342  47.1581030
  72.2457409   4.5986664  47.4329281  29.9975634  34.7174883  35.2068925
  29.0875912  34.5484281  35.4510260  30.1731491  34.1014147  34.4956565
  18.0931472  75.5790764   4.7223487  18.6919307  75.6221920   3.9768082
  18.4523391  76.2017947   5.3543580  84.1197343  62.0030595  80.9078026
  83.1722160  62.0963127  80.8090520  84.2776819  61.0625560  80.8257258
  71.3311386  31.8195176  28.6299944  70.7033634  31.2491131  28.1864071
  72.0882845  31.2582231  28.7970567  43.0929279  20.6799459  34.5739055
  43.2885599  20.0445437  35.2625442  42.5902224  20.1849008  33.9270258
  40.2641869  15.5776966  26.3067794  41.1109304  16.0239637  26.2967658
  39.7973704  15.9662962  27.0465803  27.4455142  25.7807183  23.2278943
  26.8017030  25.2332783  22.7783918  28.2077432  25.2123642  23.3383894
  92.3743725  26.2815380  28.0553484  92.7812481  27.1404386  28.1692505
  91.5139484  26.3677788  28.4658003  78.2188749   4.1025701  13.2179129
  79.0837574   4.1707331  13.6223423  78.1492853   3.1849593  12.9545128
  54.6892643   2.6179001  22.1851873  55.6378555   2.7377403  22.1399760
  54.3959808   3.2673806  22.8242421  76.3473511  17.9316556  19.3224728
  75.7058430  18.1709552  18.6535680  76.5967894  18.7640929  19.7237957
   3.0846214  87.4456006   7.1370542   3.0172920  88.2443708   6.6139239
   3.8900661  87.0272869   6.8329161  53.4958315  41.8918896  47.3481417
  53.4356594  41.2453222  48.0513906  53.5986662  42.7290821  47.8006554
  70.4349709   9.0244436  20.9705734  70.3139067   8.1165457  21.2485957
  70.8092070   8.9580375  20.0920701  37.1071195  96.9715351  24.2227077
  36.3830566  97.4415391  23.8091111  37.8926324  97.4260115  23.9183211
  52.0413733   1.5350382  45.8266973  52.2245407   1.8525589  46.7109251
  52.8241634   1.7607991  45.3241968 107.3034377  55.2729763  84.5262361
 107.6805969  55.7523639  83.7885571 107.9132934  54.5513850  84.6798968
  27.0964717 104.9633125   9.9013340  26.4882230 105.1078549   9.1765088
  27.4593257 104.0924664   9.7394776  31.5127277  98.7221402  31.8743968
  32.3266792  98.3627182  31.5215063  30.9851407  98.9239323  31.1016321
  88.1459045  28.1219316  87.2847939  88.2960701  28.2286716  88.2240963
  87.2010899  28.2332349  87.1791172  54.6492577  26.8181896  31.0625815
  54.7961283  26.6058016  31.9842911  55.3530216  26.3658381  30.5974698
  44.7578477  90.5906182  26.6546774  45.4090356  90.7017523  25.9619713
  44.0248346  91.1441487  26.3853717  19.5230758  15.0787795  32.5950885
  19.7895181  14.2393732  32.2200727  20.0574923  15.7266831  32.1359015
   9.9780749  42.6438267  58.1042290   9.2772482  42.0374901  57.8645945
  10.3139876  42.9644753  57.2672224  65.5516958  14.2972124   4.4691741
  65.3981733  15.0378895   5.0557399  65.1347685  13.5548663   4.9065864
  27.4526595  93.0500751  36.8057585  27.7360963  92.1732956  37.0648956
  26.5198039  92.9533976  36.6142845  30.3536367  70.5817061  27.1620798
  30.0991582  71.4756161  26.9331837  29.6515512  70.2718574  27.7341819
  81.5268612  16.7624950  27.7810001  81.4585209  17.0487893  28.6918211
  82.4285603  16.4532566  27.6941538  55.2189683 101.7369494  20.9515810
  56.0911130 101.4014444  20.7441688  54.7766637 101.0048598  21.3812828
  70.3347063  10.7349396  29.9358869  70.2690887  10.6082284  30.8823919
  69.4882488  10.4445994  29.5961189   3.0880355  89.4283241  56.1593676
   2.7806472  88.6338073  56.5958166   3.9854955  89.2249232  55.8958769
  71.4749479  21.7808628  11.6127169  72.3001862  21.9370055  11.1535525
  71.3757610  20.8288193  11.6100013  33.0934047  76.9262773  16.6831911
  33.7875747  76.3087135  16.9133472  32.8469609  76.6874796  15.7896173
  65.8297300   7.7985913  50.4775143  65.5863667   8.7161362  50.3545570
  65.2422571   7.4850523  51.1651182  85.3489399   1.5157391  20.5310464
  84.7023106   1.9093299  19.9452257  85.3034306   0.5783321  20.3428197
  56.4155102   9.4797748   6.0662514  56.5130997  10.4169905   6.2345809
  57.0259094   9.0624273   6.6740900  83.3977222  30.9550142  79.2064524
  84.3029022  30.6744552  79.0716982  83.0852222  31.1843300  78.3312416
  59.8310423  17.2519052  20.5821586  59.7721958  16.3183975  20.3788567
  60.6750393  17.5229478  20.2209997  69.3425894  23.5431385  33.8066959
  69.5047760  22.7135396  34.2558002  68.5070658  23.4132791  33.3580661
  92.9499245  32.9534030  49.3852234  93.6362743  32.6527143  48.7896252
  92.7196217  32.1776009  49.8964214  70.7780552  17.1600175  56.6745710
  70.9180069  17.5275218  57.5472641  71.1538649  16.2809443  56.7217922
  42.6168776   7.6205623  39.4966865  41.8926477   8.0990529  39.0932393
  42.7998877   6.9050264  38.8877964  60.0936079  19.3410671  39.9636197
  60.5993223  20.0043297  39.4939733  60.0665617  18.5933232  39.3666434
  76.6475725  13.5526419  77.0669603  76.7878962  13.1449366  77.9215479
  77.5254297  13.7887204  76.7671776  52.1640348 100.0465357  73.7504292
  51.9348573  99.2002785  74.1345596  51.6737127 100.0773400  72.9289246
  79.4848775  86.2939995  57.0597792  78.6655950  86.7829936  57.1365452
  80.1284074  86.8307346  57.5223970  19.0480327 101.7992678  48.8583088
  18.3869313 101.8977773  49.5434904  19.8653602 101.6503164  49.3337297
  92.1743011   4.5834044  39.1231632  92.1933651   5.4163909  38.6519933
  93.0592442   4.2321458  39.0245461   9.4859174  12.0012271  36.5122771
   9.8509267  12.8628922  36.3109350  10.2512410  11.4387536  36.6311860
  99.9013710  20.3431416  15.6331956 100.6366062  20.5699682  16.2026000
  99.6844387  21.1606431  15.1850140  98.4747601  34.2657256  17.3511529
  97.8489399  34.0437150  18.0405676  98.9466190  33.4498143  17.1841943
  51.5424299   6.2326604  39.9198318  51.1578083   5.7532841  39.1860104
  50.7969093   6.4560425  40.4770803  71.9851875  23.1273818  42.1110725
  72.5503588  22.3606658  42.0164108  71.1573792  22.8659892  41.7077875
  60.4638624  12.3146260  15.1608908  59.9021626  11.7922044  14.5883489
  60.3892803  13.2062876  14.8208785  61.0784674   4.4841757  16.3382089
  61.2230778   3.5699901  16.5823078  61.1646223   4.4940528  15.3849459
   2.0264199  25.6687403  42.3552895   1.1332276  25.4187226  42.1188164
   2.5559953  24.9025345  42.1345901  79.7422791  12.8707457   5.9717369
  79.5649767  12.8356135   6.9117165  80.6706333  12.6506090   5.8947182
  68.7302589  20.7094216  32.8661346  68.5898399  19.9758124  33.4647441
  67.8868484  21.1612630  32.8390455  97.4712753  10.6979609  74.9533367
  96.8133545  10.5669761  75.6361389  97.0778561  11.3391960  74.3615007
  55.8298159   3.7779260  48.4776306  56.7493439   3.5156375  48.4339952
  55.4501867   3.2096151  49.1478062  25.8634377  32.7454948   3.0808717
  26.0665250  32.3444939   3.9259666  25.2053952  33.4105086   3.2832760
  71.7133856   1.3503447  62.5620651  70.9062672   1.8598135  62.4897194
  71.4222336   0.4385079  62.5579309  71.7899083  93.0927402  70.7478571
  72.1191072  93.6336249  71.4657021  71.5227651  92.2748381  71.1672688
  81.8803692   7.6239258  33.2114100  82.7585506   7.9082471  32.9580402
  81.9579411   7.4056214  34.1401505  59.4189691  87.2579950  58.3728027
  59.8572397  87.0719951  59.2031956  58.4854841  87.1989840  58.5761786
  70.6923628  14.5604217  13.1728959  70.8075476  15.4948843  13.3453596
  70.9746838  14.1312218  13.9805543  75.3812551  92.6705986  21.2631893
  76.0716390  92.0287853  21.4295530  74.7516870  92.2073704  20.7106543
  64.9757767  27.4920201  27.9418755  64.4822502  27.4051189  27.1263313
  64.7870922  28.3810019  28.2424450  28.5017013 101.1251527  65.2566290
  27.7389096 101.3043111  65.8064318  28.3063459 100.2845734  64.8425150
  94.5642090  13.6928821  35.3850842  94.0525913  13.2341206  34.7187376
  94.7860146  14.5318818  34.9812102  71.5605688  20.1276851  15.0742221
  71.0726261  19.4199419  15.4952264  70.9362459  20.8514285  15.0227511
  63.4657049  33.4343648  35.5287004  63.4277630  32.5801110  35.0985360
  64.4004774  33.6320543  35.5866241  41.1436224  23.9009714  39.3125701
  40.8599949  24.0724087  40.2105665  41.2778091  24.7697377  38.9337945
  60.0420856  47.4588108  41.0598707  60.1840687  48.0716610  40.3384209
  60.9220886  47.2490931  41.3726807  50.6677723   0.4398187  18.4183574
  50.8681154   1.1337844  19.0464544  51.5042114   0.2542811  17.9915416
  42.1873426 102.0357388   9.6309978  41.7748546 101.6800296   8.8438791
  42.1142244 102.9849541   9.5316166  57.7860688 100.8937779  13.0217814
  58.1896638 100.2779859  13.6334562  58.5168409 101.2291354  12.5024140
  70.4157162  17.5931454  38.9602923  70.8555889  18.4422994  38.9193082
  71.1259985  16.9603503  39.0665841   2.4743222  61.1511291  87.4485022
   3.3492468  60.8204145  87.6518908   2.6039217  62.0847697  87.2819164
  93.6875820  39.6857715  31.6096878  94.2009544  38.8782406  31.6336274
  94.2864132  40.3598976  31.9308949 102.2326469  35.7643127  71.8220282
 101.8553925  35.0382209  71.3253355 102.3458767  36.4624453  71.1770344
 107.5562954  35.5942416  16.2105024 108.2298851  36.2521958  16.0384572
 106.7777061  35.9259486  15.7632840  61.8141270  34.4906759  37.2709918
  61.1611509  33.9124274  36.8766809  62.5734377  34.4245768  36.6919303
  94.9306393  33.6217690  17.2243798  95.1141739  33.5592318  18.1617355
  95.1068592  34.5370007  17.0063567  49.7291470  20.1401567  20.0315976
  50.0982237  19.7896886  19.2209256  48.9491081  19.6082473  20.1892233
  95.8760496  57.3086319  90.2872352  96.3791795  57.1266074  89.4935356
  96.1784454  58.1717224  90.5698378  76.8833113  24.2360115  38.3165884
  77.1010351  25.0698495  37.9000020  77.4193335  24.2171979  39.1094065
  75.0430489  30.5544138  24.0433598  75.6933880  30.3207994  24.7057152
  75.1541805  29.8972440  23.3563304  68.7708855   7.5835133  27.0420742
  69.3938160   7.0542651  27.5401545  68.4325743   8.2154852  27.6764154
  86.1346245   0.8115385  32.6790738  86.2608528   0.8232290  33.6278439
  85.1868534   0.8780184  32.5627089  92.0440483  37.9043794  11.3108552
  92.9091358  37.6171756  11.0186887  91.9296074  37.4886036  12.1654105
  14.4254830  49.5363092  45.5221081  13.4916070  49.7460556  45.5327606
  14.8484185  50.3415012  45.2237415  74.0003347  28.0360699  34.2148376
  74.3804216  27.2169232  34.5322680  73.2710743  27.7620435  33.6586690
  67.7536058  52.7828312  27.8807163  67.2443676  53.5348034  28.1831193
  68.6637354  53.0262232  28.0499887  94.7008705  17.7409458  25.9301782
  94.5083237  17.1621943  26.6678786  95.4566765  18.2528102  26.2182450
  84.0883923  48.5477877  25.0875354  83.5260773  49.2967701  25.2851582
  83.9200115  48.3588552  24.1643953  61.8278599  55.1892471   3.5304722
  61.9479179  54.4664097   4.1463640  61.4388657  55.8889246   4.0552279
  87.0470142  14.8318315  51.3684845  87.8004074  14.6563578  50.8047056
  86.8648243  15.7629633  51.2418652  76.4686918   6.3071281  18.7207901
  76.9593811   5.7274157  19.3033600  76.3716269   7.1195912  19.2174923
  67.0542908  20.5189085  19.0590084  66.6288710  19.6935797  18.8264477
  67.5473166  20.3183818  19.8545873  84.2682362  27.4590349  24.1049767
  84.2142105  26.5410614  24.3707585  85.0838757  27.5166965  23.6073351
  58.0601311  13.1238186  34.1411519  58.6347151  12.6175272  33.5669065
  57.7359772  12.4867177  34.7777510  40.6872701  77.4505764  17.4005830
  41.1544656  76.6542941  17.1478081  40.5780219  77.9342943  16.5818560
 106.7442131  53.7146521  23.7808776 107.0056820  54.6198463  23.9496636
 106.4758110  53.3794022  24.6363306  82.2083569  23.8418865  21.2995601
  82.4550438  23.6626363  22.2068882  82.2112656  22.9832745  20.8764648
 105.1626587  12.7851880  79.8152447 104.7484398  13.5085666  80.2857494
 105.4967594  12.2112107  80.5045605 106.2549877   4.6035618  54.9614763
 105.5090904   4.0343916  55.1509571 106.2947083   5.2025288  55.7070541
  87.3536015  23.4662032  41.1321306  87.0944691  23.5992408  42.0439339
  87.7813435  22.6099062  41.1271954  70.2326727  19.9026477  79.8672485
  69.3103075  20.1538825  79.8187113  70.7088947  20.6844211  79.5874691
  78.2040691  12.9197967  41.0918951  77.7508926  12.7850103  40.2596140
  78.9735556  12.3528349  41.0401917  96.1628532  29.8012209  19.0562856
  95.2436543  30.0589561  18.9865446  96.2332249  29.3966341  19.9209189
  88.0808926  15.7224703  16.2637925  88.2413101  14.8053217  16.0416770
  87.3367977  15.9747028  15.7170439  24.3526891  21.0147285  56.4382458
  24.9641564  20.2968478  56.2739992  23.7421182  20.9825277  55.7017660
  93.7569046   0.6495965  18.3264220  93.8778496   0.4676649  17.3944855
  93.9229774   1.5885046  18.4106874   7.0871447  90.9521277  84.3541574
   7.7293013  91.3057454  83.7386817   6.2837122  91.4377744  84.1674060
  75.9588575  13.3824575  45.7209396  76.5083551  14.0426910  45.2985907
  75.7546568  13.7541187  46.5790796  83.0863762  34.4614673  15.5541348
  82.7883625  33.5729074  15.3594995  82.9714680  34.5507836  16.5002060
  29.6916150 104.9762980  42.8834772  30.3782510 105.5950520  43.1322956
  30.1643943 104.1855295  42.6238680  25.4238084  13.7505496  12.6351440
  24.7900441  14.3981111  12.3265254  25.0127462  13.3623075  13.4074974
  59.9041128   1.3233727   6.1697853  59.9731207   1.9382897   6.9000912
  59.0879965   1.5633459   5.7309210  69.5348167  19.5774579  17.9702258
  69.2087412  18.6785948  18.0143702  68.7467289  20.1198912  18.0004656
  87.2936916  28.0705500  63.2512188  86.5399361  28.1483793  63.8360453
  87.9883957  27.7104068  63.8025093  59.4934893   6.7432743  34.4500256
  60.1266384   6.0677457  34.6929479  58.8760328   6.2958574  33.8714075
  99.1680527  10.3558826  60.7008553  99.5196438  10.9238553  61.3864374
  99.1920948  10.8931518  59.9090242  66.6294241  13.3906960  62.1064949
  66.2190342  14.0596902  61.5585327  66.1500978  13.4317756  62.9340172
  91.9796848  34.8081565  25.3243423  91.7605972  34.4740582  24.4545078
  92.8750992  35.1349688  25.2368522  60.9165335  47.2379446  13.4099650
  60.0141096  47.3055696  13.7218726  61.3703918  47.9688025  13.8295996
  86.7268372  11.6255510  17.9120743  87.0624828  12.4664295  18.2227159
  87.0672417  10.9859514  18.5375905  99.5213127  53.0181408  34.4449949
  99.8384190  53.1550360  35.3377056 100.1583385  52.4204779  34.0535498
  90.6673527  10.0960398  30.2367282  90.0919437   9.3752307  29.9806476
  90.2263260  10.5008030  30.9836507  57.9805422  46.4142895  15.9585333
  57.3849392  45.8945656  16.4983225  58.7934923  45.9091711  15.9444702
   2.0877221   4.2990866  55.1262474   2.8631547   4.4530904  54.5866108
   2.4195436   4.2853749  56.0239887 110.5292416  22.8464341  19.1657138
 110.2309132  22.7670693  20.0717688 110.5634975  23.7896919  19.0065861
  84.4023991  19.0632594  43.9321518  83.7802792  19.2084062  43.2193232
  85.1628780  18.6647880  43.5089302  90.1262951  12.3435593  54.3270683
  89.2576408  12.3833394  54.7271872  89.9802685  11.9250262  53.4786940
  98.6719704  32.7273703  28.8937092  98.2957268  32.1929359  29.5930362
  98.4674454  32.2489786  28.0902505  42.6848888 103.3213027  38.2284904
  43.3441114 103.7722595  38.7560225  43.1156205 103.1667332  37.3877716
  61.6322184  26.0017800  55.7000017  62.5260305  26.3270640  55.5926514
  61.7394495  25.0808311  55.9378815  63.3700657  48.3303308  31.9955635
  62.6789856  47.9389763  31.4612579  62.9525185  49.0838718  32.4127746
  91.1954403  20.6507492  53.2781029  90.9809399  21.2661386  53.9791870
  91.1174393  19.7877407  53.6847544  77.1010351   7.9953557  41.6215897
  77.1837521   7.4226230  42.3840666  77.4304628   7.4712628  40.8914995
  62.5884104  19.8370326   8.6708134  62.0678663  19.2897451   8.0828166
  63.3667135  20.0629187   8.1614488  86.3822651  46.6595793  34.8984981
  86.9897270  47.2960377  35.2755117  86.5831566  45.8399820  35.3503180
  92.2303200  19.6171153  26.9735265  93.1525326  19.6227741  26.7171717
  91.8741512  20.4252815  26.6044092   9.8555043  36.7163277  23.9126515
  10.6733659  36.3193369  24.2121959   9.6692136  37.3975492  24.5587635
  72.0081997  23.8710380  33.0763912  72.4905586  23.0590439  32.9207301
  71.0963964  23.5943055  33.1673050   9.2037919  42.7121115  62.1419334
  10.0024751  43.0934238  61.7773247   9.4876245  41.8815756  62.5238800
  23.9931773  78.6081798  77.4107707  23.7183093  79.2095024  76.7186069
  24.6263216  78.0286486  76.9870889   2.9664658  66.0609765  78.1861305
   3.6081265  65.8234234  78.8555121   3.4756802  66.5208549  77.5187123
   8.6986350  69.5362837  79.6070242   8.8955210  70.4565174  79.7820663
   9.2749785  69.3022282  78.8795054  67.8618145  48.3835459  18.1245697
  68.0654955  48.3860111  19.0598452  67.8183985  47.4562073  17.8913426
 105.5832481   1.9905099   8.6584628 104.9571419   1.8748365   7.9437304
 105.1269341   2.5479710   9.2887378   1.5125421   9.5232177  44.4347000
   1.0804132   9.9292833  45.1861000   0.8906129   9.6289098  43.7147999
  90.8239079   8.4585953  48.3154583  90.5301189   7.6033056  48.6291504
  91.3057899   8.8318181  49.0535164  89.8401260  22.8228664   3.2885930
  90.3940105  22.9514623   4.0586019  89.9582767  23.6204243   2.7726737
   8.3966254  57.2597773  75.9747005   8.0725668  57.3005490  76.8744516
   8.7080668  56.3604112  75.8728218  64.9769925 101.3419693  50.2504826
  64.8781728 100.4423710  50.5622339  65.1980733 101.8443018  51.0347128
  73.3289337  39.5401955  23.9300156  73.7289762  39.0827799  23.1904435
  73.3290625  40.4614782  23.6702728  50.6294823  28.4194398  24.8797178
  51.0302210  28.8282394  24.1125631  50.2704191  29.1515064  25.3811002
  96.6606808  13.8658178  49.1444588  96.8617821  13.3289242  48.3779478
  95.8879757  13.4529245  49.5300388  21.0440873 100.5385226   6.7841423
  20.6998538 100.8008262   7.6379186  20.6004428 101.1130959   6.1602211
  92.3624706  91.8051338  19.9748862  92.7640152  90.9446239  20.0953221
  91.9774151  92.0110893  20.8266735  88.6515045   8.2899439  26.6430688
  89.5173836   7.9013592  26.5185857  88.1237316   7.5842094  27.0167375
  73.2203722  25.4680586   4.3667382  74.0618563  25.8900213   4.5401654
  73.2504320  25.2474070   3.4358019  75.0215530  23.1404066  46.9412327
  75.9201813  22.8355885  47.0668507  75.0832224  24.0943789  46.9898558
  44.7309494  21.0204077  19.7753513  44.3111658  20.5553794  19.0516376
  44.2069387  20.7917118  20.5430365  58.9379072  34.8276973  18.5003471
  58.2585859  34.8435116  17.8261757  59.6176004  34.2567968  18.1421304
  10.2237275  10.9178519  47.9531193   9.7325090  11.0583889  47.1436834
  11.1395124  10.8908212  47.6759100  72.8381491  25.8102512   7.1429616
  72.1282673  26.4341354   7.2948456  72.9617691  25.8145142   6.1937869
  67.7409172   4.5960203  24.5430899  67.1801805   5.1872903  25.0452924
  67.3845005   4.6244323  23.6551738  98.3947372  37.3372245  52.4326134
  98.1895542  36.4685464  52.0868826  98.6020947  37.8603435  51.6582870
  53.4095049   6.4650059  17.0348728  52.4554825   6.5133464  17.0959842
  53.6203861   5.5659205  17.2866786 105.1660919  56.0664558  24.6183038
 104.7907257  56.8522787  24.2210555 104.6510887  55.3455400  24.2559814
 105.9961319  20.1558161  29.5712471 105.1051140  20.4662752  29.7322655
 106.5275383  20.5996966  30.2321672  68.3074807  85.9459549  14.8755455
  68.6832284  85.1152950  14.5839036  67.3636197  85.7879811  14.8955452
  68.0671739  75.8230477  40.7127237  67.2377633  75.3619152  40.5875635
  68.7330388  75.1376420  40.6572199  85.4744339  23.9026856  58.7162590
  86.0513783  23.6797953  57.9857254  85.6813526  23.2558894  59.3908453
  90.2973080   2.5668845  49.5574760  89.8961163   3.3634311  49.2099190
  89.6432400   1.8842603  49.4076347  14.5104074  88.0375153  21.8986535
  14.5533895  88.6734849  21.1845613  14.9187707  87.2487575  21.5418148
  11.0422948  55.2856350  10.7544935  10.2448991  55.0789785  11.2420309
  10.9391072  56.2038946  10.5047262  24.5829534  99.0105527  33.9654803
  25.1728009  98.3805114  34.3794394  24.2357873  99.5271957  34.6926570
  75.7327557  12.6943576  30.2084684  74.9849463  12.1223009  30.3809905
  75.8410835  13.1970072  31.0158348  10.2799466  20.6822705  12.8633785
   9.9301580  20.1665568  13.5899591   9.7552827  20.4179597  12.1076632
  51.7131089  95.5712527  43.3363581  52.2672223  94.7920197  43.3809566
  51.4830541  95.6488818  42.4104643  74.8987103  17.1932638  54.0873814
  74.7266150  16.3685060  53.6330795  74.0531349  17.4420679  54.4606495
  69.9880934  38.5735941   6.0903162  69.9898338  39.2584729   6.7590237
  70.9144020  38.4008312   5.9220022  34.6909928   1.1896762  30.4854083
  34.0652752   1.9063817  30.5905032  35.3052473   1.5033886  29.8217010
   0.1552728  26.6937828  31.2391758   0.1716951  25.7391262  31.1714077
   0.5030492  26.8779731  32.1117353 101.4791489  31.3592911  21.8052793
 100.9562874  30.5578804  21.8296909 101.3780117  31.7379427  22.6785636
 102.4629879   1.4487241  15.7191277 102.5941944   2.3681697  15.9507227
 101.7754650   1.1478318  16.3132727 104.8047352  38.2300091  23.3193970
 104.7376060  38.1264687  22.3701835 105.7304764  38.4171176  23.4750462
  55.1055574  30.0029302  31.2023878  55.7014036  29.5432734  31.7939281
  54.2444897  29.9101067  31.6100311 108.2486820  31.0899734  30.8593488
 107.4201202  31.2695312  30.4149652 108.1645012  31.5248203  31.7079091
  77.4331045  24.8668075  21.6854978  77.5353003  24.3987417  20.8568239
  76.5118551  25.1261425  21.7020655  86.7993355   2.9382765   8.7902826
  87.5399971   3.4334332   9.1402411  86.6874123   2.2104642   9.4018334
  92.3190975  31.7173195  38.3072519  92.6776505  30.8298182  38.3048773
  91.5615273  31.6680145  38.8902521 103.8314629  23.6862850  31.4497542
 102.9602337  23.9166474  31.7724466 104.1837788  24.5067239  31.1048055
  57.0292234  47.1085787  18.9775503  56.7820835  46.2312508  18.6852372
  56.2324476  47.4627781  19.3724298   3.3168748  41.6361809  66.5952873
   2.9203466  41.0911894  67.2749805   2.8611711  41.3860369  65.7915545
  52.3629140  85.0896078  38.7550640  52.8393983  85.7354444  39.2766786
  52.7925634  84.2575365  38.9532900  43.7509679 100.4182169  28.5580873
  43.2873773 100.0365352  29.3034983  43.9269971 101.3212117  28.8223720
  11.7464256 103.2126420  37.4349022  11.4912938 102.2915357  37.4868941
  11.1115264 103.6685806  37.9874015  96.4435387  24.4691491  36.6573310
  97.0012379  24.5096493  37.4342275  96.2377262  25.3833914  36.4623165
  68.1615257  16.9811022  37.2690320  68.8720274  17.1504450  37.8876925
  68.4764528  16.2505352  36.7367506  27.4927329  84.1469343  73.6550021
  26.7384146  84.0207369  74.2305994  28.2100867  84.3741662  74.2466092
  60.3839922  29.1659856  89.9821377  60.7230425  28.9099550  89.1243935
  61.1421251  29.1151333  90.5642700  99.9916744   6.8768197  77.0757627
  99.0737724   6.8570095  77.3464775 100.3991127   7.5186890  77.6573372
  38.5742234  99.8407548   8.7569523  39.4890069  99.6290159   8.5710090
  38.4333657 100.6872898   8.3329606  64.2077208   8.0508715  57.9857111
  64.2652655   7.8912014  57.0436764  65.0767422   8.3708251  58.2279253
  52.6429749   5.8252180  30.3467917  52.3697996   6.3626993  31.0902452
  51.8242502   5.4980755  29.9740958  91.6796684  35.1010394   6.9344735
  92.4197197  35.1191497   7.5412905  91.5372753  36.0188317   6.7029363
  79.6641970  30.7328653  14.1895211  79.3921471  31.6505122  14.1773772
  79.1210556  30.3309822  14.8675466 105.6742382  27.9963899  30.9687018
 105.3980732  28.4724021  31.7518878 106.5756035  27.7328730  31.1539745
  19.7714662  97.7022248  37.7579069  20.3682994  97.9331141  37.0460725
  19.9560355  98.3446264  38.4430981  81.2082100  33.3298945  44.3061161
  80.9583855  32.5370550  44.7806931  80.9619522  33.1531811  43.3981752
  13.8694190 105.2676303  64.2115927  13.9513777 104.3226011  64.3398046
  13.5199259 105.3596647  63.3252406  77.6642895  31.2415457  22.4513721
  78.4865904  31.6633511  22.2021151  77.7916384  30.9903550  23.3662033
  31.2249468  45.8345033  82.1729350  31.9999407  45.4308553  81.7821914
  30.8629607  45.1558841  82.7427375  52.0577192 101.8354368  38.8838005
  51.1783551 101.8870693  38.5092616  51.9852304 101.1777204  39.5754528
  84.9368668  54.5887375  17.2523570  84.8524952  54.3166637  18.1661892
  85.5565548  55.3178978  17.2757852  72.2300196  12.8342199   6.2431145
  73.0355072  12.7036488   5.7427430  72.5285578  13.0199814   7.1333963
  54.4397545  36.9237995  31.3451076  54.2090654  37.6973820  30.8307290
  54.5193100  36.2217569  30.6993222  98.1197548  51.0896206  28.6172652
  98.3211327  51.3710880  29.5097089  98.2288933  51.8788958  28.0868220
  49.2388153  52.0805025   3.0345508  49.2864704  52.6023722   2.2335446
  48.5844374  52.5263834   3.5723346  82.2835159  21.4700508  19.7485912
  81.3865662  21.4772272  19.4144344  82.6294994  20.6165671  19.4876504
  36.2308788  86.7337471  60.4973841  36.0135745  87.4012989  59.8467064
  37.1415138  86.5051394  60.3110695  83.8418484  46.5241575  43.4801674
  84.5532513  46.8938255  44.0031195  83.9838219  46.8746853  42.6008463
  91.1799812  19.3534052  36.9000101  91.6824436  18.9899027  37.6291418
  91.7812634  19.3225908  36.1558676  64.3740845  28.1524205   3.2301238
  64.1815042  29.0182805   2.8703582  63.8171482  28.0860567   4.0057826
 105.8276272  22.1077490   1.5577032 105.4732418  22.9880261   1.6832046
 105.1937199  21.6734767   0.9869213  61.6457415  25.9354091  21.4752507
  62.4592066  25.9076047  21.9789720  60.9785271  26.1920977  22.1117759
  15.5446199  37.7808118  42.7767134  15.0735906  37.3475671  43.4885120
  14.9475911  38.4662294  42.4767303   3.3083962  69.0018315  89.3075459
   3.9568804  69.0184111  88.6036798   2.8316020  69.8264749  89.2134087
  58.2389020  95.6346935  34.0643907  58.2258462  94.7262996  33.7629247
  57.4080705  95.7456231  34.5266032  20.3978251  71.9930799  88.2522407
  20.5707930  71.7912156  87.3326951  19.4505404  72.1238263  88.2946715
  77.3648548  24.7835112  29.0163302  76.6110706  25.0551510  29.5400190
  77.9305649  24.3195057  29.6335053  79.4349098  26.3269067  19.2290318
  79.1472435  27.0475388  19.7895396  79.0088701  26.4927936  18.3880770
  11.7519811  11.3459635  79.8951387  11.1994699  10.9799349  79.2044926
  11.1548856  11.4874411  80.6297779  14.1581967  37.2673440  10.4330528
  13.5436395  36.5336871  10.4160297  14.8007444  37.0261145  11.1002696
  90.1549244  18.0947995   7.8068423  90.1517963  17.1932268   7.4853015
  89.4771576  18.1104481   8.4825730  94.1472244  15.5800152  49.6336174
  93.9166927  15.4847336  48.7094879  93.3549213  15.9270477  50.0435638
  96.6410446  41.2520170  18.0823171  96.7499065  41.2215710  17.1318150
  97.4812889  41.5732765  18.4094596 106.5438271  39.7553897  18.5223150
 106.3551235  39.6232176  17.5932539 107.4995518  39.7525811  18.5753608
  93.5186672  59.3253422  46.1077213  93.8176918  59.8388624  46.8581295
  92.7936363  59.8332357  45.7435608  91.0201645  20.9479046  40.6617165
  91.2645626  20.0259066  40.5815935  91.3840675  21.2198043  41.5042591
  66.9036054 105.1035911  28.5623288  67.8223085 104.8362224  28.5353208
  66.4142465 104.2947465  28.4122229  21.5427259  17.5622392  40.8781433
  22.4933293  17.4501503  40.8721542  21.2014535  16.7005324  41.1173582
  70.3085756  33.1885529  17.5803459  70.8372402  33.3480740  18.3622015
  69.4301319  33.4828830  17.8210413  96.5251923  33.3805466  30.7774663
  96.7418575  32.4699306  30.9776425  97.2807789  33.8801098  31.0869217
  87.8918934  17.8695965   9.7157794  87.0173550  17.8504896   9.3271363
  87.8010178  17.3815072  10.5341578  70.4805231  52.1709919  10.1402509
  69.7272825  52.2208405   9.5517147  70.6712627  53.0821991  10.3628540
  72.2614431  23.6478114  25.3674936  71.5838861  24.2223859  25.7238817
  72.5790787  23.1543326  26.1236787  76.8210268   5.2683127  23.0370045
  77.1893549   5.4137069  23.9084530  75.8744144   5.2476937  23.1774640
  62.0255756  12.7937233   6.5621090  62.6557446  12.1776903   6.1884445
  62.1186447  13.5838854   6.0299301  96.9957256  36.6595888  28.4874678
  96.2728691  36.1234283  28.8134193  97.7832794  36.1714482  28.7277007
  81.4891148  17.3589623  21.3589716  81.6467381  16.5712810  21.8794918
  81.7287350  17.1083832  20.4667711  14.9223135  82.0014341  70.7706475
  15.1550482  82.0463736  71.6980338  15.6885527  82.3490841  70.3142977
  28.9413451  88.0382400  11.4632535  29.8195981  87.6742261  11.3518810
  28.3978843  87.5448149  10.8489144  10.6657174  51.3125563  26.9416642
  11.4795068  51.6103315  26.5350747  10.3604081  50.6038046  26.3753724
  95.1312828  67.4128723  49.3425751  95.4473305  68.2932186  49.5458937
  95.3562546  67.2845030  48.4210873  53.0447292  36.7792273  25.5833411
  53.0034351  35.9803224  25.0577211  53.1177902  36.4686632  26.4858079
  53.7437296  32.3808241  33.4901142  54.5683575  31.9942856  33.1954861
  53.9286184  33.3176374  33.5566831  68.9685392  41.6985226  14.7877872
  69.3016768  41.7417812  15.6841040  68.6284208  42.5766182  14.6160400
   0.7587007  43.1726980  39.1066313   0.3602365  43.5564899  38.3255005
   1.6564992  42.9709578  38.8430333   4.8967221  23.3364034  20.2721786
   4.3321756  23.9486122  20.7441115   5.4648355  23.8948679  19.7415257
  58.0280161  36.6971111  34.6903825  58.1987000  36.2309647  35.5087996
  57.2128057  37.1723723  34.8509669   7.8858045   6.4787728  53.1850433
   8.3800557   5.9491038  52.5594234   6.9770482   6.4091092  52.8925467
  67.2642756  51.0829592  18.6311388  67.4522161  50.2255392  18.2493782
  67.3359728  50.9454966  19.5756996   5.6446794   6.1284363   4.2953891
   5.2097562   6.2587100   5.1380646   6.5686944   6.0146570   4.5178220
   7.2193006   0.5460433  42.8213406   7.2693113   0.7130919  41.8801594
   6.4140466   0.0406030  42.9324293  66.0711336   5.5565494  30.4891515
  66.6277409   6.3179266  30.6526303  66.1391926   5.0340915  31.2882996
  66.9918299   5.0791073  12.6012301  67.1029186   4.4108731  11.9249499
  66.9871855   5.9072274  12.1212018  75.2725840  45.9045362  15.0224411
  74.9359894  45.1659536  14.5150614  75.6918907  46.4696312  14.3735325
  34.2901849 104.1780124  35.7974505  33.4190654 103.9921935  35.4469466
  34.5253181 103.3888751  36.2855148  91.4379692  55.8551121  43.9566994
  91.7973614  54.9891281  43.7639809  91.1134529  55.7853746  44.8545027
 102.5328636   5.4421818  39.1890788 101.8513966   6.0573155  39.4600844
 102.3381996   4.6401891  39.6739960  47.9870652 102.3896909  35.1289630
  48.8661241 102.6222378  34.8299408  47.8948354 102.8353050  35.9710741
  70.4015160  20.0382161  45.2206326  70.8406305  19.4435942  45.8287716
  71.0459137  20.1933670  44.5300484  97.6911831  24.6688366  26.4677548
  96.8365765  25.0598288  26.2860513  97.4876308  23.8150859  26.8497348
  54.5477819  48.5283995  14.9101889  54.4817305  49.3803310  14.4788122
  54.8504496  47.9347944  14.2229831  75.6957722  54.0297747   7.1539497
  75.2891588  54.5960474   7.8098708  75.2090311  54.2076111   6.3491589
  96.7282295  17.0531833   1.0576056  97.5879860  16.6472840   1.1684968
  96.4175224  16.7289317   0.2122946  81.3821125  32.3184276  24.2412138
  82.1242809  32.0938683  24.8024559  80.6567478  32.4614763  24.8491645
  97.2640514  38.9142275  20.0537348  98.0948448  38.4405231  20.0938892
  97.0773411  38.9914370  19.1181004  70.6966972  88.8101006  12.7257669
  69.8342371  89.1008377  12.4293506  71.1138248  89.6028423  13.0630922
 102.1958828  76.4874792  27.3048401 101.2768936  76.4309740  27.0430946
 102.1673489  76.6189241  28.2525420   4.7506765  37.3125601  30.5854726
   4.7902921  38.1240916  30.0794315   5.1989225  37.5195217  31.4055181
   5.1147702  10.1642394  46.7456055   5.2273610  10.2423763  47.6929426
   4.5607427  10.9078002  46.5081167 110.6085300  15.1794112  26.6203761
 110.4791832  14.8761284  27.5189972 111.2235737  14.5512259  26.2417674
   1.9239953  36.8728471  40.6123972   2.5529912  37.0549250  39.9142170
   1.0753110  36.8502855  40.1702976  78.7027931  33.9046359  19.3650997
  79.0987730  34.7402310  19.1176867  77.7618408  34.0798020  19.3773460
  69.7825956  51.0302877  12.5591302  70.1668215  51.4919996  11.8138611
  68.8510942  50.9678745  12.3478472  23.4817460  14.9820840  31.2832522
  23.3906701  15.8510566  31.6741800  22.8635743  14.9822390  30.5524349
 105.8251953  48.3956814  19.2977679 106.4000797  48.5114431  20.0542998
 105.0084400  48.8267660  19.5494044   8.3101895  20.2436638  10.8666706
   8.4942487  20.9491920  10.2465236   8.8827279  19.5275807  10.5916142
  98.7333488  12.3571336   7.8448921  99.1198826  13.1000793   7.3813677
  99.4746017  11.9320011   8.2762170  97.2203922  12.2432280  46.9922638
  97.5995350  12.4443913  46.1366844  96.5290165  11.6083920  46.8045807
  88.7948799  71.7509556  32.3123455  87.9522514  72.1192265  32.5780439
  88.9021969  70.9760380  32.8639054 101.0466571  61.7104078  86.9664007
 100.8190389  61.0764660  87.6465034 102.0026298  61.6847272  86.9253117
  96.0746193  30.1215839  48.7550449  96.0065079  29.3848133  49.3623018
  95.7750988  29.7695756  47.9168272  69.6577072  43.2666063  17.0116389
  69.7535086  42.9721022  17.9173541  70.5553102  43.3986568  16.7065060
  94.1260433  36.8743253  60.9299040  93.4575272  36.9430256  60.2482843
  93.9299393  36.0501838  61.3755131  48.0197382  36.5523958  12.8751123
  47.4737835  36.3419724  13.6326647  47.4724197  37.1242023  12.3368657
  75.9200859  50.4900265  56.5366936  76.8486834  50.6418848  56.3609600
  75.8876753  50.2502251  57.4627972  77.3371983  36.3452744  54.0605450
  77.0724678  36.8395972  54.8362970  76.6786003  36.5635991  53.4011412
   0.1509336  28.0832028  19.0064967   1.0128167  28.4309363  19.2355537
  -0.3742453  28.8578653  18.8056862  87.7173424  17.7183449  21.0058522
  87.5751686  17.5017297  20.0843883  88.6053181  18.0746412  21.0338879
  91.5853024  72.5990152   3.7161943  91.5183353  73.4561014   3.2953003
  90.6775761  72.3260450   3.8494557  77.5888920  57.4318695   5.1252502
  78.2697535  58.0005169   4.7656661  77.3431349  56.8620825   4.3964317
  18.1629275  91.9365103  80.5425978  17.7710150  91.9980795  81.4137161
  18.8676070  92.5842769  80.5506623  86.7130470  31.3056540  47.3583603
  87.3747063  31.9931650  47.2824717  86.0257339  31.6934562  47.9000711
  72.9765415  13.7594104  15.2337599  73.6262560  13.3138454  15.7774282
  72.8352880  14.5998204  15.6696379  90.0722980  46.1154509  23.4994340
  90.5587292  46.3830280  24.2791939  90.2523613  45.1791954  23.4143710
 101.7192745  56.6680861  13.1228662 101.6187286  56.0877323  12.3683393
 101.9147205  57.5242805  12.7421176   1.8897012  69.7592592  33.5447884
   1.4052537  69.3085575  34.2364669   2.4428990  70.3869343  34.0097857
 103.7860775  36.9147253  10.6173134 103.0745983  36.8323135   9.9823010
 104.1448021  36.0303664  10.6912005 109.2495632  52.6992130  46.2157774
 109.9655056  52.5769567  45.5923080 108.4554863  52.5735283  45.6962824
  97.7694988  41.6498232   0.1497811  97.5568008  41.2617397   0.9985364
  98.6940289  41.8875885   0.2200654  64.9763726 101.6355654   7.7062923
  64.5569658 101.5232301   8.5593545  65.5708455 102.3759630   7.8273094
  29.9524358  43.8860893   0.0071706  29.3568948  44.6157265  -0.1636982
  29.3817857  43.1735134   0.2949791  77.3415709  49.7872734  22.6647425
  77.3551512  49.5084429  21.7491531  76.6092443  49.3066454  23.0506492
 101.3516045  52.2321081  31.5038586 101.6397572  52.2232056  32.4166131
 102.1271038  51.9745731  31.0053492   3.5174130  89.7921975  72.9605091
   3.4028338  89.7900302  72.0101929   3.2520102  88.9146836  73.2357574
 102.6708508  34.9155307  52.0308590 103.0763340  35.3237557  51.2658882
 103.2650661  35.1178646  52.7534962  57.4066400  12.0807005  87.0729429
  57.0106553  11.9599654  87.9359883  56.6856622  12.3783900  86.5181416
 103.1086349  25.9619904  24.5669961 103.0055428  25.0125623  24.6317458
 103.9172459  26.1482072  25.0441861   9.3729642  38.2542968  50.9557104
   9.3286470  39.0808058  50.4749298   9.7588399  38.4885907  51.7997694
 107.5496097  84.0788681  79.7275841 107.5477500  85.0025375  79.9787116
 107.1216245  84.0625389  78.8715506  54.9670219  37.2228909   8.0085313
  54.0109062  37.1834230   7.9858929  55.2275229  37.2491455   7.0878345
 109.6019459  33.7325096  53.5088444 108.9706326  33.9776134  54.1853094
 109.1537476  33.9193559  52.6839542  40.0008535  21.0741879  72.6388812
  40.5657911  21.4293457  73.3251345  39.1140603  21.3055970  72.9150701
  81.2974548  19.2048669  25.1597214  81.6320324  19.0890849  26.0490394
  81.9791889  18.8368762  24.5975375  85.2443409  25.0363111   1.3632064
  84.4676590  24.9526858   0.8100310  85.0681686  24.4656897   2.1112630
  77.3947716  30.4671741  25.4051709  77.8494024  29.6863770  25.0890946
  77.8051710  30.6583571  26.2485290  76.1179829  53.4064150  21.6973162
  76.2916327  54.3065500  21.9727063  75.1639986  53.3534193  21.6395903
 100.4439640  59.5007181  46.9057941 100.0188828  58.6773205  46.6658831
 100.9148407  59.3003607  47.7147198  27.2930577  38.2049608  33.4696484
  27.9520372  37.5232768  33.3381724  26.8222097  38.2466483  32.6373029
 105.4377651  82.8280735  13.9717889 105.3470135  83.7398052  14.2487967
 105.5623055  82.3414516  14.7866046  77.3931885  61.5371180  14.9296677
  77.3141336  62.4805403  15.0708687  77.7957344  61.4572716  14.0649045
  96.1192417  59.8812485  32.8074431  95.4450321  59.7466612  33.4734440
  96.0236835  60.7987404  32.5518775  72.7219868  47.5283527  30.5636859
  73.4709263  47.2759724  31.1037064  72.6952553  46.8705797  29.8688078
 100.9144592  48.3523655   6.8002856 101.3598061  49.0420675   7.2924370
 101.3293076  47.5416946   7.0951474  79.2777872  35.6734991  22.9631567
  78.5301590  35.2537823  23.3887386  79.0188646  36.5907049  22.8741622
 100.9557056  66.2855864  29.2179537 100.0295258  66.5122652  29.1340590
 101.2025547  65.9621334  28.3515382   2.0135263  80.6919765  11.4495718
   1.8972448  80.1836777  12.2522783   1.1531022  80.6778812  11.0303915
   0.6021455  32.2471571   2.0157266   1.3153794  31.8437099   1.5209910
   0.8093980  32.0592618   2.9311356  46.9909382  42.7676105  22.9765964
  46.5950441  43.0877161  22.1660209  47.9333735  42.8546715  22.8335214
 103.8833809   9.4991910   3.2859460 103.3739662   8.9701819   2.6720458
 103.6815357  10.4039145   3.0472788  12.3896268  47.5271940  16.2323284
  11.6011193  47.9184723  15.8563125  13.1089738  47.9037285  15.7253861
  92.3063850  36.3288760  18.2573414  93.2353210  36.4961267  18.4165061
  92.2922707  35.7878900  17.4678063  71.5581465  22.8183770  67.8906059
  70.7129192  22.7741861  67.4435425  71.3391495  22.7774501  68.8215160
  86.4869976  21.2673211  28.6649203  85.8199501  20.9081864  29.2499876
  86.1276340  21.1422777  27.7865958  60.3950643  25.0687338  84.7833544
  59.5719766  24.6640707  84.5094943  60.1541185  25.9638382  85.0220370
  46.0373211  35.3171134  27.1052527  45.2791595  35.2323961  26.5271187
  45.6836462  35.1854157  27.9849124  53.3674955  19.1417433  67.2076583
  54.2378377  18.7524010  67.2922587  53.5102700  20.0787665  67.3412061
 102.9081631  41.4789581  34.6077299 103.8486290  41.6214037  34.5006633
 102.5082397  41.9709015  33.8905931 109.4576073  41.9206142  20.5131531
 108.9234161  42.7145386  20.5367136 108.9527416  41.2773848  21.0107422
  32.0841979  18.3008887  67.0241761  31.2174606  18.4484984  67.4026084
  32.2431945  19.0730692  66.4813232   9.5465329  23.0207086  29.9965048
   9.6860650  23.0516815  30.9429741   8.9684632  23.7617970  29.8152471
  82.9685211  15.0275159  45.7017422  82.9193115  15.1858819  46.6444683
  82.3522663  15.6533694  45.3212500  70.4038477  73.7881756  22.5127673
  70.2904510  72.8934097  22.1921849  69.5242071  74.1647959  22.4878883
  19.1350129  49.5051050  67.6366520  19.3411401  49.1377544  68.4961843
  19.8709825  50.0851345  67.4413300  91.0715008  98.2499981   3.6479235
  90.8435726  97.3213387   3.6045933  90.3658295  98.6462212   4.1590792
  62.2258996  99.1174090  23.5511279  62.1197557  98.5954493  22.7558160
  62.6862478  99.9049371  23.2611012  17.0076179   3.3867861  85.9272206
  17.3491763   4.2752530  86.0281825  16.8332814   3.3022858  84.9898309
  99.1681194  24.8583078  34.5375538  98.9346409  24.0307546  34.9581242
  98.5546780  25.4949045  34.9045205   7.8964327  91.2191112  89.0177849
   7.7959059  92.1433098  89.2457791   7.1302412  91.0205014  88.4795052
  90.8631897  24.8898172  10.1724362  90.8165550  24.1649032   9.5490938
  90.4369068  24.5550776  10.9614027  89.2876910  99.8272331  81.2159348
  90.0584506  99.5852287  80.7025349  89.6443270 100.2140863  82.0155525
  73.5190392  62.6389933  17.5811195  73.6433458  62.8863096  16.6648161
  72.7196550  63.0941772  17.8457355  29.5226911  27.8713632  36.3248897
  29.6814778  27.0593214  36.8061447  28.8856748  28.3457446  36.8591213
 108.7058735  47.1018362  21.8789148 109.5256901  47.1769333  21.3905478
 108.7997723  46.2926483  22.3815393 108.0633640  48.4708834  33.7392950
 107.5896263  47.7017927  33.4225869 108.5650730  48.7719011  32.9817271
 104.4488811  37.2009277   6.8716848 104.6480274  37.4813008   5.9783947
 103.4947586  37.2495604   6.9308960 109.3167973  50.5685902  48.3967352
 109.4336033  51.3578987  47.8679800 108.4792709  50.6998253  48.8412142
  90.2369976  15.4643726  33.9585590  90.8313370  15.1416707  33.2811618
  90.2095127  16.4113486  33.8217616  89.6243477  39.0485072  49.7086048
  89.5522308  38.1244040  49.9474812  89.1087437  39.5081329  50.3712749
 110.2059078  54.3770218  48.4639835 109.8631096  53.8882780  47.7157497
 111.1566353  54.3392086  48.3595228 106.9157219  23.7117887  32.9019976
 106.0324669  23.7872672  33.2631159 107.4553585  24.2589498  33.4726477
 111.6412258  25.0547385  34.7846365 111.1636639  24.3853354  35.2746034
 111.1092281  25.8450031  34.8778772  13.7300447  14.4956899  19.5997488
  13.7941793  13.5520530  19.7469521  14.6231130  14.7660303  19.3862450
 103.0226898  12.2137761  51.3403702 102.4788380  11.6154504  51.8526840
 102.5881577  13.0626512  51.4229822  95.4441738  51.6917467  20.8863592
  96.1763096  51.8070889  20.2806377  94.8437214  52.4066639  20.6752181
  74.9031401   7.5821161  13.8715458  73.9786100   7.3555470  13.9722586
  75.2836418   7.4254948  14.7357905  30.0906085  79.9190266  88.9548667
  30.8642767  79.5299132  89.3626086  29.9459742  80.7305295  89.4414631
 107.9248428  69.1897202  53.7269592 108.0401421  68.2632780  53.5156727
 108.8148022  69.5197964  53.8503981  38.4131430  95.6132753  89.7025488
  37.6877783  96.0729797  90.1253375  38.5017584  94.7989423  90.1977694
  82.7548504  19.7967446  42.0584917  81.8059063  19.6833992  42.0045996
  83.0403423  19.8625338  41.1472321  45.2387384   6.6607845  16.2161386
  45.3833345   6.0706818  15.4764748  45.9937814   6.5186769  16.7870653
  96.4849186  41.7535162  24.6208787  96.4368439  42.6709318  24.8897123
  95.7378483  41.3382101  25.0517273  86.2586021  62.4959803  41.5628338
  85.5024242  63.0680418  41.6938925  85.9546852  61.8363380  40.9393358
 111.1422157  45.6598520  28.9013553 110.6240273  44.8837328  28.6884046
 110.8233261  45.9320545  29.7618484  69.3788433  39.5562577  23.0619144
  69.6594763  40.3642797  23.4915423  68.7540150  39.1649389  23.6723971
   1.2386373  31.7261434   5.2546173   1.5649751  32.0398235   6.0980272
   1.9777825  31.2526608   4.8728955   0.1170729  69.6864207  77.6253223
   0.7197808  70.0494761  76.9763482   0.1794432  68.7386961  77.5063229
  72.5886869 101.6945621  17.8111863  73.3679818 101.9849857  18.2850862
  71.9247102 102.3529792  18.0157733 100.1086998  71.8519163  12.8554988
 100.1666260  71.8420124  11.9001055 100.7801914  72.4765205  13.1297040
  31.5242147   4.0826537  86.0251665  31.1660671   4.9604489  86.1572123
  32.4303579   4.1457726  86.3270798 106.8976307  24.2893910  38.0384207
 106.7960358  23.4072709  38.3958721 106.2838650  24.8240638  38.5420585
  76.3144254 101.9866314  16.8839097  77.0447015 101.3899204  17.0477986
  76.6631555 102.6274276  16.2642312 108.2841492  46.0759544  17.4119413
 107.9096985  46.9124651  17.6880968 107.7914333  45.8408880  16.6256845
 102.9124355  44.3035221  23.9447927 102.9066658  45.1831770  24.3221688
 102.0057297  44.0055752  24.0179324   8.9236449 102.8874977  76.4674020
   9.3300818 103.2448156  77.2569418   8.6102675 103.6560209  75.9905422
 107.4365807  60.2032757  37.3581195 107.4689388  59.6119595  38.1101346
 107.7750874  61.0340643  37.6919484  50.0979852 104.9558986   9.0150034
  50.8631467 104.9219635   8.4408903  49.4184350 104.4808368   8.5367215
 106.1189175  50.4691124  34.0715861 106.3907719  51.2430573  33.5782981
 106.8615627  49.8689842  34.0040469   9.9223760  14.9013340  20.1051974
   9.8392060  15.5667460  20.7882357  10.3297666  14.1555369  20.5457067
  93.5967731  67.6582575  13.2849848  94.5499802  67.7266169  13.3393371
  93.3773232  68.0402279  12.4351788  94.0952778  27.2335529  63.7361670
  94.8431683  27.6124382  63.2742786  94.4569111  26.9294643  64.5686245
 105.9160233  39.0535355  26.4276791 105.5302525  38.8000798  25.5891252
 106.2541294  38.2358074  26.7926955  83.2672977  44.7560501  29.6246028
  83.4834099  45.3167677  28.8795376  82.3913288  44.4238710  29.4282365
  46.1917638  25.1851059  79.2595184  45.7947873  25.8726908  78.7248552
  46.6760492  25.6577231  79.9365282   8.3718255  40.1665497  43.8397455
   8.9547208  40.7008648  43.3003283   8.9207318  39.8726082  44.5667458
  61.8329052  14.2337722  51.5872145  62.1287063  13.3241099  51.6225481
  61.3565830  14.2987651  50.7594967 105.6378174  22.9821134  53.7673092
 105.1838779  22.2855949  53.2929373 106.4645863  23.0922818  53.2976866
  81.1602306  65.1256561  73.0980253  81.1363506  65.7563162  72.3783493
  80.3879642  64.5768881  72.9613161   3.5527375  75.0458193  62.7387285
   2.8495935  74.6384907  62.2328663   4.3552735  74.6616983  62.3857164
  16.9474080  67.2376204  52.1795177  17.5676301  67.3392248  52.9014826
  17.2035745  67.9092073  51.5473890  79.7489929  40.5939913  16.6980863
  79.3690300  39.9267673  17.2696364  79.1045761  41.3017750  16.6948235
  93.5567284  58.7587309  21.3265991  93.2730770  58.2874680  22.1099782
  93.4689617  59.6832943  21.5583634  14.2956021  53.0210972  49.8460150
  14.8217157  52.9259634  49.0520430  14.9379590  53.1269550  50.5477285
  78.8329268  76.6811180   9.9319291  78.5142565  76.2925625   9.1172481
  78.4437180  77.5554609   9.9485713  60.8815526  21.6412140  90.3976953
  61.3290834  21.2753464  89.6347474  60.5233621  20.8794476  90.8533768
   3.4254029  37.9533672  24.7952104   2.8584722  38.2983303  25.4850078
   4.2357686  37.7175713  25.2467966  47.2971200  32.2706248  90.8299645
  47.9560804  32.8227641  91.2508621  47.2153615  32.6272513  89.9454498
  71.8804646  65.5620384  13.7525237  72.3373175  66.0487461  13.0664968
  71.4850855  66.2379980  14.3029702  39.2239431  43.7569475  41.1651039
  39.3110040  42.9860878  41.7258453  38.7301782  43.4464931  40.4061222
 108.5492229  39.0005422  13.9193249 108.4831333  38.5325480  13.0869520
 108.7143612  38.3152843  14.5669234  47.1538256  91.3728506  89.0705635
  46.7299555  90.7810671  88.4489831  47.3918532  92.1386702  88.5479766
  98.9244843   1.3545531  22.7586484  98.4375144   0.9466285  22.0426226
  99.7606469   1.6063899  22.3666859  69.3791533  57.3721981  12.1511328
  69.8799706  58.1630754  12.3509502  68.8707590  57.2038126  12.9444849
  94.1789246  55.9774685  31.5766811  95.0751495  55.9430265  31.2422752
  93.9811039  55.0744820  31.8251061  66.4533757  13.7207819  88.3703780
  65.9018564  14.3646647  87.9260105  67.0410585  14.2441679  88.9152873
 103.2031918  26.1895752  10.2332759 102.7480698  25.8858061   9.4478977
 103.6164856  25.4032588  10.5898154   5.2354768  60.7205629  43.0487204
   6.1455587  60.8127403  42.7667952   4.9031499  59.9768972  42.5459766
  77.4806976  60.0210524  51.9041443  77.9559040  59.8311663  52.7130699
  76.8882418  60.7360268  52.1366024 102.3030472  68.2114744  43.2718372
 102.6473713  68.2250452  44.1648579 101.9972038  69.1056061  43.1194496
  28.7911657  81.4630604  15.9574246  28.1019357  81.6658115  15.3248930
  29.0512040  82.3143673  16.3094068 110.8897495  45.2140427  18.0354989
 110.1721001  45.7948208  17.7827215 110.5028629  44.6219110  18.6804235
   4.2022946  82.0192623  11.4879239   3.7326291  81.8499374  12.3046112
   3.6680081  81.6004562  10.8131135  83.2138920  41.8316269  16.2743127
  83.2099342  42.0078421  17.2151446  83.7049294  41.0147667  16.1856961
  94.5001602  40.8411360  11.7837584  94.5963669  41.5346956  11.1311078
  93.5541821  40.7471609  11.8957162  14.2476991  81.6814804  21.1179423
  14.7887185  81.1607838  20.5243015  14.5049432  81.3913250  21.9930816
  91.8366814  16.6712368  67.4732018  91.7930508  15.8651710  67.9875803
  90.9346199  16.9906688  67.4515438  96.4711094  73.1704998   7.9970646
  96.1964035  74.0250874   7.6647228  96.8631840  72.7341175   7.2407055
 112.0126820  25.1482868  45.7752800 111.5926552  24.9661303  46.6158915
 111.2982178  25.4392123  45.2085972  76.5814495  29.9724293  11.4082193
  75.9671831  30.6195045  11.0615230  77.4453402  30.3168964  11.1817884
  85.4828930  30.6698442  65.3672981  85.4989338  31.2246966  64.5874834
  86.3823414  30.6899786  65.6941223  19.2467641  23.1481720  77.4861109
  19.6045160  22.9319788  76.6250050  19.4375562  24.0794922  77.5977945
 106.0310936  55.9424400  57.0726728 106.8307114  56.3398647  56.7278671
 106.1660767  55.9158373  58.0199337  64.0533208  10.9508873  65.2552223
  63.9092015  10.4037119  66.0272717  63.1731939  11.1693741  64.9488282
  83.9707661  52.2383070  32.3818111  84.9058151  52.2279787  32.1773410
  83.6337566  51.4264584  32.0029235  83.6392212  51.9410181  35.3656316
  82.7066422  52.1097994  35.4999542  83.7302589  51.8397045  34.4181705
  87.2640896  46.9296169  24.6916056  87.8150082  46.2293291  24.3418622
  86.3994026  46.5299273  24.7853756   4.1197923  33.9423704  22.3034406
   4.5634606  34.1620779  23.1226587   4.0459874  34.7765517  21.8398356
  93.4926128  50.9647512  29.6472454  94.1308403  51.0610199  28.9404011
  92.6515293  51.1730480  29.2405248  11.7606118  46.9568253  39.9666977
  11.0915235  46.7800236  39.3054128  12.4633840  46.3381624  39.7677231
  63.1577825 103.7856580  10.4407156  63.2194566 104.1184389   9.5453471
  62.8266477 102.8929820  10.3421772 104.0836525  29.7144771  29.2706966
 104.4344807  29.0105653  29.8162770 103.1437969  29.5382786  29.2275095
  14.3498853  84.9727345  32.8461862  13.6532643  84.5988083  32.3066163
  14.3015245  85.9143257  32.6809835  96.4121723  51.3919163  46.4752817
  97.2591877  51.6415834  46.8446970  96.4079762  50.4353809  46.5107822
  84.1843796  41.2971163  47.8671694  83.3224773  41.2514544  48.2810020
  84.3511581  42.2340012  47.7638960  97.6221085  63.3193684  30.9363008
  96.8022346  63.7402344  31.1949635  97.3570728  62.6382017  30.3182340
  96.5299129  57.8036880  36.1153698  97.0317936  57.4835634  35.3657913
  95.8310699  57.1594286  36.2284565  99.8600483  81.8792534  54.1845083
  99.5640087  81.0841656  53.7412977 100.2457142  81.5675926  55.0032616
 105.7554436  52.1572542  55.6472397 105.5567646  53.0912828  55.7132101
 106.6869545  52.0950174  55.8585405  92.9864120  79.1021299   5.5585021
  93.8572693  79.1593266   5.1653463  92.4911404  78.5399246   4.9627966
  13.1922773  32.5666142  27.0044875  12.9857209  32.7331281  26.0847926
  12.5280812  33.0545735  27.4912858   7.2983506  53.5086966  42.9271364
   6.7419675  52.9840469  42.3514509   6.9091371  53.4055662  43.7955284
  76.0389853   2.4866487  19.2912173  76.4303398   2.1940413  18.4681404
  76.6773558   3.1000015  19.6552396  81.6567612  28.9899206  15.8448899
  81.2036133  29.0106320  16.6877770  82.0499802  29.8587656  15.7629490
 101.7556572  45.6112719  39.5635843 101.8920040  45.0663137  40.3386068
 101.0867596  45.1478291  39.0595794  25.5683039 104.9079330  86.3537157
  24.9992274 105.5846841  86.7203173  25.6607913 105.1465804  85.4313689
  85.6642628  64.8145199  54.3856001  85.9526443  65.5442047  54.9338913
  85.6774426  64.0562630  54.9696398  22.5934652  84.4198895  17.8133476
  21.9319204  83.8747597  17.3873937  22.2949269  84.4944954  18.7197363
  12.8667501  51.8233538  36.2000299  12.6135591  52.6239586  36.6595507
  12.2731164  51.1539698  36.5402722 105.9705448  63.0898380   2.4332424
 106.7542648  63.5579443   2.1453449 106.0727215  62.2083330   2.0744321
  66.7126369  30.0593352  11.0594273  65.9215832  30.5559850  10.8501184
  67.0658731  29.8015094  10.2079690  98.3184719  40.3104067  29.7535563
  97.9828072  40.0753498  28.8885069  98.9295197  41.0280085  29.5864916
   7.3355630  50.2254438  14.8820579   8.2474950  49.9370718  14.9201477
   6.8271783  49.4388485  15.0796461 102.1036243  64.5423746  24.0577149
 102.4284363  64.3875074  24.9447012 101.1648083  64.6921682  24.1691923
  61.0917757  83.1283409  86.3610157  61.1301993  82.8735978  87.2828948
  61.9442271  83.5274775  86.1870915   3.8813832  58.4056902  30.5579138
   3.1294492  58.4783220  29.9700713   4.6242669  58.2407284  29.9772763
  83.0534649  75.6978559  66.6111422  82.7206326  75.2619028  65.8266640
  83.9979172  75.5438662  66.5882635  14.9072602  77.0380306  24.9451971
  15.2943280  77.6347542  24.3046188  15.1120332  76.1640978  24.6127224
  92.2702503  66.7152452  34.9648094  92.2890949  65.9013224  34.4614172
  91.5138817  66.6212702  35.5438709  26.7042115  63.7311602  23.9676428
  26.7507127  63.4811926  23.0448270  27.0540002  64.6218109  23.9924502
  66.9109534  77.7704985  88.3765936  67.5914286  77.0982153  88.4115139
  67.2367476  78.4706647  88.9421473  93.2235527  72.2755194  39.0791821
  92.7554226  72.4163151  38.2562208  94.1126156  72.5844002  38.9048743
  96.9263744  62.8898573  35.1537871  97.4835491  63.5190344  35.6119585
  96.8936157  62.1306419  35.7358146  97.4022102  47.9505873  28.6823773
  97.3390198  48.8982773  28.8012338  97.2947598  47.5910664  29.5629621
  66.5158939  83.8779354  25.3304791  65.5837822  83.6602402  25.3334308
  66.9548845  83.0488682  25.1403189  85.5678558  26.1606789  20.4769921
  84.9973488  26.7120838  19.9415517  85.8235264  25.4446912  19.8954165
  95.1049709  58.0250025  25.9700966  94.8237324  57.2855949  26.5089917
  95.1525021  58.7613583  26.5798140 107.5193882  71.7933512  22.3736739
 107.9421902  72.6334238  22.1955013 107.5502968  71.7069674  23.3264661
   7.8226617  36.4330268  17.8556323   7.2461751  36.4366961  17.0915091
   8.6355546  36.8311357  17.5442910  73.0346250  35.9303118  84.9394172
  73.8566350  35.5219485  84.6678162  72.5141954  35.2089526  85.2930194
 109.5474815  33.0153513  28.9840221 109.2942429  32.3787427  29.6524763
 109.4514084  32.5444722  28.1562090  86.1904144  62.7304840  21.4030051
  85.3641129  62.2542000  21.4843225  86.2230301  63.2879782  22.1804166
  97.8437996  53.5887146  58.1301785  98.7518501  53.7345076  58.3955431
  97.3495388  54.2728996  58.5816431  93.0732346   7.7040434  40.8217812
  93.1498051   8.2756567  41.5857363  92.4505901   7.0282227  41.0897636
  93.3524323  57.6503992  38.1392574  93.7560558  56.7853069  38.2094860
  93.5507679  57.9355431  37.2473025  73.3985519  44.5116043  18.8414061
  73.0713463  43.6200476  18.9609599  74.2771864  44.4971800  19.2209136
  26.4497617  75.7227325  40.0709057  26.8944219  75.9704781  39.2602730
  25.8279851  76.4329529  40.2297068   5.2668241  65.9832621  12.9145896
   5.8135369  65.7426167  12.1666443   5.8879998  66.1302900  13.6278605
  96.9277096  47.8848743  31.3082719  95.9736633  47.9588795  31.3318038
  97.1245670  47.1429729  31.8801618 102.2763729  32.9214287  12.5925744
 101.4437294  32.6403141  12.2132230 102.0549202  33.1893754  13.4844244
  68.7708139  47.3282146  10.3846550  67.8804827  47.1733809  10.0691116
  69.1559553  46.4545965  10.4531813  59.4618558   6.5702416  83.0070496
  60.3737306   6.7135216  83.2604080  59.1965818   5.7919432  83.4970629
 111.6013241  44.0899324  15.5461597 111.2950897  44.4650173  16.3718486
 112.1101761  44.7908974  15.1387954  22.0954564  76.4218378  26.7974687
  22.0923665  77.1773005  27.3852563  21.3172963  76.5391588  26.2525487
  93.3689976  41.7651129  35.1210141  93.7449265  41.6141367  34.2537689
  92.4421597  41.9361258  34.9538326  99.7397804  73.7808704  26.3624263
  99.5495033  73.9540195  27.2844052  99.7972012  74.6486855  25.9626365
 110.1578808  37.9299140   8.6509919 110.3471565  37.0019579   8.5120553
 109.2494297  38.0340481   8.3679688 102.8903866  46.9810772  16.1986041
 102.5437641  46.1699867  15.8268332 103.5220623  46.6919518  16.8571043
  86.4854240  50.2302217   9.1862231  86.0472012  49.3792534   9.1795993
  87.1732521  50.1402903   9.8457962  82.3940659  54.7224236  37.6114964
  82.5355244  55.6133413  37.9316401  83.2318115  54.2813921  37.7525449
 102.6058006  79.2492199  27.1454644 102.8325081  78.3193970  27.1617794
 102.4318409  79.4694281  28.0606031  85.0331830  21.4287449  71.7432296
  85.2436685  21.1217810  70.8613563  85.8433103  21.3080670  72.2385716
  20.2526811  44.4412327  28.3064079  19.6433213  44.8734283  28.9048338
  19.6904901  43.9812374  27.6830506  46.3526539  19.4107837  39.6463227
  46.6353134  19.1392631  38.7730455  47.0946125  19.2020339  40.2139091
 103.6455345  40.8051491  51.0477209 103.3826828  40.2185631  51.7569876
 103.9549637  40.2206326  50.3557444  80.5506802  55.3856373  45.3038168
  80.1327324  54.7419024  45.8757877  81.4591026  55.4184198  45.6036854
 103.4540653  44.8639345  20.7582331 103.6565971  44.4808197  21.6117191
 102.5218487  45.0758886  20.8059692  95.9652519  73.0147362  18.0982995
  96.8510342  72.8708696  18.4313309  96.0574436  73.7366438  17.4765420
   5.7079843  29.7813106  42.8830242   5.9120515  29.0099502  43.4117937
   6.4683202  30.3529024  42.9898596  27.7644399  84.6656418  50.0821877
  28.4102014  84.1844082  50.5995178  27.7590135  84.2226219  49.2336941
  72.5916529  41.7685461  18.6937118  72.6963329  41.6487789  19.6376038
  72.5571585  40.8790541  18.3417857  25.6275938  93.8814981  88.0505025
  26.2623976  94.4406659  88.4983668  24.7953604  94.3462140  88.1380108
 106.5205956 102.6860142  43.8323307 107.2259331 103.3068562  43.6498737
 105.7540989 103.2355785  43.9957094   0.6724694  53.2529163  37.8758001
   0.0648358  52.7068567  38.3746362   1.0604528  52.6562834  37.2356963
 104.5740223  68.4234238  48.5619354 105.3098965  67.8849792  48.8531446
 104.0068531  68.4895515  49.3301630  82.4682617  43.9421558  87.1369648
  83.1783867  43.4458542  87.5439453  82.3589420  43.5407639  86.2748909
 108.2441139  56.4523411  67.4853230 108.0291271  56.0736418  66.6329145
 107.3952007  56.6557360  67.8780222   8.6620858  74.1624832  26.0783291
   8.4286073  73.3647680  26.5530539   8.0749562  74.1718817  25.3224087
  99.2086887  42.3842621  17.6007438  99.4522285  42.8811169  18.3818030
  98.8511276  43.0397081  17.0017636  12.9544213  54.2256594  20.8629227
  13.4150842  54.0957832  20.0339746  12.0313028  54.0930796  20.6472683
  92.7129269  49.8173618  36.0492373  92.0566559  49.3363667  36.5534043
  93.2704067  50.2268744  36.7108607  97.3361969  92.3527050  43.7382746
  97.1821117  91.4744854  44.0864277  96.5095615  92.5928497  43.3196688
  79.2929316  70.8441353  72.5605822  78.4568596  71.2283659  72.8243589
  79.9364281  71.5326643  72.7281332   4.0018514  84.6434212  28.4235430
   4.7168687  84.9914646  28.9563131   4.2241433  84.8986149  27.5281715
   1.5898851  89.7205830  39.7224641   2.4193242  89.6304226  39.2532682
   1.0313657  90.2210045  39.1275978   2.7468351  48.8322115  17.7093244
   1.8736127  49.2237329  17.7296340   2.6209310  47.9883289  17.2754514
  96.0063648  52.8254652  61.1590242  95.0553894  52.9212475  61.2110519
  96.2936211  53.5705805  60.6312847  94.2310238  79.4194698  69.6616364
  94.7589111  78.6261940  69.5706844  94.7135448  80.0856876  69.1721869
  15.9376958  38.4496641  55.8878946  16.5553048  38.1699347  56.5635777
  16.4537480  38.4614897  55.0818014  88.0980396  56.2516308  16.1408556
  88.2338428  56.4821243  17.0599103  87.4031448  56.8404150  15.8464170
  89.3436241  49.5570135  22.0427871  88.7303066  50.1694632  21.6366100
  89.8291397  49.1816950  21.3081837  12.7747300  58.5029030  18.6893904
  12.8287557  58.2091331  17.7799881  12.0317891  59.1063118  18.7024307
  98.6658192  45.8847475  20.4044247  98.7277699  44.9540329  20.1895666
  97.9122734  46.1966085  19.9032807 110.4798508  59.3167830   9.5615202
 109.7662544  59.3660021  10.1975942 110.6849003  58.3836126   9.5033360
  84.2228699  62.1081448  17.0783579  84.5072079  62.2259378  16.1719871
  85.0300026  61.9311428  17.5615084 100.2277756  62.0120859  14.7374117
 100.3938198  61.1560202  15.1321399  99.4862652  62.3633623  15.2303708
   2.3749498  83.8420868   1.8187524   1.6056016  83.9867783   1.2679315
   3.0951741  83.7271881   1.1988294  17.8571032  89.4385226  87.8907293
  18.0570029  88.5083659  87.7854791  17.4304675  89.6861298  87.0704186
  83.8418293  20.4485106  16.5735137  84.3975258  21.2237144  16.6540933
  84.0205860  20.1160669  15.6938767  25.7908681  42.5803375  50.5154943
  25.5718473  41.7084789  50.1866817  26.6780904  42.4893284  50.8630562
  15.0120118  66.8389368  29.8225641  14.5840505  67.6244497  30.1632428
  15.1599267  66.2928152  30.5946398  83.6624097  31.3366057  89.6833326
  83.7272882  31.9423891  88.9450636  84.1929578  31.7391898  90.3708439
  72.6091909  68.3115768  43.7898207  71.7931890  68.1393099  43.3200359
  73.1597090  67.5518370  43.6001921   8.6817220  39.6285439  36.6359806
   8.9546445  39.4294381  37.5315809   9.4879964  39.8931646  36.1931181
   1.2027028  97.2781372  63.0269861   2.0918038  97.2929764  62.6727104
   0.6396344  97.1939659  62.2574997  86.8369198  79.3123055   3.6746845
  87.5820732  79.6787643   3.1985712  86.0759068  79.7699738   3.3174285
  76.8691397  64.4188452  52.0746708  76.4674377  63.6369324  51.6958809
  76.8367147  65.0687742  51.3726950   0.3555539  76.9199467  47.5547552
  -0.1283023  76.4948893  46.8466282   1.2142995  77.1105576  47.1773338
   3.0599645  35.1537108  71.2524509   2.4178365  34.6466660  71.7492437
   3.7739518  35.3077865  71.8710899  98.0581951  24.8248219  42.5491190
  97.1652317  24.6709967  42.8576326  98.2399273  24.0886426  41.9649553
  34.4046548  63.1897020  33.2997727  34.3464521  62.4443960  32.7019787
  34.9887517  62.8922176  33.9973116   6.9424489  49.8496580  46.4653587
   6.2186101  49.7149563  47.0770407   6.7060617  50.6435299  45.9856558
  82.4349594  83.3116627  33.9431691  81.6835690  83.7484264  34.3442822
  82.3791599  83.5423756  33.0158663   7.7672818  25.2918720  67.6362181
   7.1151593  24.9253702  67.0390177   7.5503972  26.2228680  67.6855898
   4.0465406  44.5611334  38.6743188   3.2527879  44.9542379  38.3114648
   4.7383168  44.8083115  38.0606604  90.7564068  44.1429138  46.3791513
  91.2072945  44.4928074  45.6107092  91.1844254  44.5681477  47.1222591
 108.5003281  62.1216297  15.8989239 108.3580589  62.9378128  16.3783276
 109.4446659  62.0959902  15.7446063   4.0575460  76.0836220   4.8474053
   3.4846357  75.3666592   4.5754287   3.5955289  76.4956188   5.5774933
   1.3494065  73.7439346  29.0787649   1.1271241  74.0382433  29.9620557
   1.7318299  74.5143700  28.6587453  95.1057148  26.7092586  26.9334197
  95.0930214  27.6648283  26.9877791  94.2931652  26.4843178  26.4802241
  95.9545612  80.3231049  14.3535006  95.5225277  80.1392269  15.1876307
  95.2645874  80.2187920  13.6982942   9.6042918  82.7788741  90.2248588
   9.7783183  83.0522330  91.1255382  10.3476141  82.2208888  89.9960494
  90.1708794  80.2502441  17.7559209  89.7593117  79.6773529  17.1088922
  90.7527065  79.6734190  18.2508838 106.8192673  55.7072353  12.4052191
 106.1552048  55.6289196  11.7202961 106.5228844  55.1136398  13.0951715
  29.6526197  89.6890163  41.9421339  29.8502305  89.0187263  42.5962734
  29.7011998  89.2280579  41.1046457   7.8115419  79.0275955  18.2985127
   8.0701783  79.5320559  19.0697837   7.1789220  78.3903933  18.6301744
  84.7343826  32.8078508  61.0569715  85.2094841  32.8184032  61.8878698
  84.6411133  33.7312293  60.8226538 105.7171249  66.4976549  50.5532503
 106.2566757  66.0192680  49.9237537 105.1947021  65.8210039  50.9838867
  96.3809204  77.4639750  14.5855927  96.5728188  78.3943224  14.4678414
  97.0826817  77.0133400  14.1158056  92.9227543  72.0349360  11.1696315
  93.4385300  72.8274822  11.0210490  93.0240059  71.8549967  12.1042991
 100.1768970  47.9812336  48.1864738 100.2550602  48.1210995  49.1301680
  99.4327450  47.3864269  48.0933237 104.7678280  65.3103590  23.6590385
 103.9513206  64.8466825  23.4731579 104.5112610  66.2301779  23.7249136
  96.7748165  69.1382265  23.5733223  96.7175865  70.0172424  23.1987691
  95.8661461  68.8919353  23.7462449 100.9713459  65.7478142  37.3422647
 100.8759308  65.1068020  38.0467010 100.6976223  66.5770388  37.7343011
  78.5935735  13.3059479  70.5306029  79.4307660  12.8569104  70.4135203
  78.3110284  13.5214688  69.6418142  74.4309330  50.4604053   3.6244172
  74.2413473  51.3623524   3.3659881  74.3367052  50.4593468   4.5769677
  96.6386795  86.5599155  21.8525314  96.2265110  85.8036041  22.2700548
  96.4613152  86.4443779  20.9190321  73.2016516   3.2953814  15.0422704
  72.7808332   3.3382237  15.9009385  73.0754232   2.3899403  14.7585881
  82.0489788  68.3290195  49.1407156  82.9961395  68.1978893  49.1845846
  81.7564487  67.7335596  48.4507275  20.4559568  33.8658500  32.4829412
  19.8068574  33.1950974  32.6950550  20.1249936  34.6603727  32.9017878
  90.0226498  59.0473366   5.2213401  89.5268726  58.7432528   4.4611013
  89.9483299  60.0011301   5.1898712  20.2926210  83.8464642  47.6953697
  21.1572507  83.6300564  47.3463488  19.6984342  83.7266541  46.9545460
 102.7237225  30.6632066   4.1237518 101.9928646  30.0672221   4.2877367
 103.4331036  30.0952387   3.8230607 106.2240124  35.4053831  12.7952814
 105.5980873  34.7752833  12.4383163 105.6803989  36.0662031  13.2242775
  89.6893501  95.1502419  10.1259315  89.0413189  95.8465385  10.0188863
  89.5063019  94.7836113  10.9909785  96.3637733  87.9189396  11.9828629
  96.5197182  88.7802505  11.5954792  95.4209995  87.7817917  11.8902040
  84.4427490  59.5440722  22.6555991  84.8506737  59.4913197  23.5199142
  85.1736450  59.4762611  22.0412493  20.6909421  68.6332321   4.3351731
  19.9457887  69.1758490   4.0772128  20.3299764  68.0188656   4.9743068
 103.1979084  72.2063494  40.1928663 103.4660530  71.6611433  40.9325171
 102.6364613  71.6369629  39.6667433 106.9970226  52.3420000  40.7881212
 106.9795990  53.1687975  40.3061104 106.2363243  52.3864126  41.3674307
  80.8585453  43.9927912  12.3663449  80.1915455  44.1627598  13.0315161
  81.1035156  44.8607254  12.0455396  91.7012596  61.6267395  33.4599781
  91.2931538  60.8401489  33.8218570  91.5056419  61.5889692  32.5237417
 111.6998386  83.7903786  27.9097986 110.7436657  83.8190365  27.9436541
 111.9141102  84.0104675  27.0032239 110.2075958  48.0147600  48.5376787
 110.0401306  48.9569998  48.5569334 109.5776844  47.6724482  47.9034424
  70.6994152  56.6198111  50.1593637  70.5090666  55.8262444  49.6591091
  71.4322996  56.3763905  50.7249308  89.5904160  81.8274498  25.3066039
  89.0049648  82.5224113  25.6074619  89.1466331  81.0163879  25.5545259
  77.1098518  25.6060195   8.1991005  77.6874113  25.4776788   7.4466479
  77.4569368  26.3827991   8.6377066  73.7056017  60.3902817  42.3131227
  73.9640045  59.8775911  41.5472174  73.3903885  61.2186432  41.9516134
  77.4679375  89.0036011  48.9265108  77.9469252  89.2210674  48.1268215
  76.5459585  89.0931702  48.6853266 103.7279129  97.9239464  46.6409445
 103.7894154  97.1290588  47.1706581 102.9215050  98.3467388  46.9362068
  80.7179642  60.8635187  36.5331364  80.4178905  60.7783031  37.4380803
  80.5055714  60.0216913  36.1300921 103.0279874  29.0892245  69.8728156
 103.3716439  28.2424284  69.5880890 103.4838151  29.2684294  70.6952143
 106.1949348  85.7448101  14.7184908 105.9247303  86.2568855  13.9562571
 106.7352962  86.3457489  15.2314305  10.5352262  70.8185053   5.1802361
  10.9823087  71.6590643   5.2793205  10.1373819  70.8598757   4.3106169
  42.7137902 104.5776558  42.3588514  42.6659635 103.7805462  42.8866482
  43.1653741 104.3085194  41.5589380  72.7308798  66.0675955  25.8199763
  73.0847263  66.9433784  25.9749937  73.4888983  65.5463743  25.5554557
 109.4492340  66.2514019  34.7938037 108.5098457  66.0804749  34.8614621
 109.8266315  65.4130697  34.5273471   4.3022874  77.7326155  70.0259972
   4.1313413  77.7825642  69.0855122   4.0445474  76.8434811  70.2693892
   9.5452455  76.9089222  41.0142946   9.7400144  76.7634058  40.0884867
  10.1703027  77.5802422  41.2879086  73.2713461  74.1865587   3.0993637
  72.7777481  73.4231710   2.7996367  74.1493225  74.0604734   2.7395114
 100.5568409  45.9174633  56.3425207 101.1030674  45.8772564  55.5575037
 101.1511517  45.6960106  57.0594454  13.2183507  67.2630453  10.9563684
  13.7707761  66.4840508  11.0213470  12.3879769  67.0016861  11.3543653
  59.2227792   7.7618863  88.7142143  59.7330903   8.4574105  89.1290137
  59.3800115   6.9914080  89.2599893  98.5672379  51.5726757  31.2525558
  98.3354187  50.9908819  31.9764376  99.5050812  51.4317036  31.1228943
  15.2964452  65.7626534  15.8618653  15.3355458  66.4368010  15.1834655
  16.1109594  65.8696795  16.3531196  85.9630394  83.2369232  12.1100211
  86.2854195  83.8623619  11.4610732  86.2103462  82.3806572  11.7609107
  50.4025459  92.9789066  19.9194634  49.8379469  92.7788925  19.1728377
  49.8904753  93.5889912  20.4503202  35.2869847  72.3325062  35.3154516
  35.5903390  71.5804052  35.8239341  35.2785257  73.0568981  35.9410834
  98.0269718  61.4602661  18.7841511  98.5572433  61.8786049  19.4624114
  97.8969193  60.5658913  19.0994465 105.6955051  60.1306581  26.5866089
 105.1102161  60.7062340  27.0789361 105.8779716  60.6094599  25.7781005
   5.4891065  54.9345827  47.4956703   5.5582097  54.9434900  48.4503317
   5.9493878  55.7254648  47.2148275  46.7726373  21.6706015  80.1364923
  46.9791745  22.2497202  79.4028771  46.1323785  21.0537554  79.7818005
  93.8578987  56.2590075  58.7904596  93.5880280  57.1464109  58.5539913
  93.5025215  55.7069683  58.0939007 103.4956837  64.5493555  35.8162713
 103.0742645  63.7468290  35.5087185 102.9826069  64.8115349  36.5806293
 100.5506420  52.8705311  36.9759154 101.3804626  53.0009937  37.4348378
 100.0520325  52.2839165  37.5446916 105.4553413  59.6688890  57.2076178
 105.8492851  59.5725060  56.3405800 104.5256710  59.8157120  57.0333242
   0.6542924 101.0306072  57.9279613   1.5170148 101.4386749  57.8543472
   0.6408551 100.6560898  58.8087463  51.6189288  93.4348686  90.6169237
  51.9410990  94.3226726  90.7726232  50.7485007  93.4226901  91.0149694
  99.7163391  86.1631107   5.5857098  98.9895248  85.5692482   5.3978395
 100.4952717  85.6081486   5.5467832  65.8929586  78.5706091  59.7626972
  66.5994596  77.9314470  59.8552322  65.2629089  78.1483316  59.1787863
  47.5429872  67.2697496  57.6292372  47.4244455  66.3615990  57.3509598
  48.1327775  67.2148132  58.3811474 103.8171577  58.7811518  31.6239214
 103.6186409  59.1918516  30.7824039 103.0983162  58.1651020  31.7652750
  93.0523919  30.5778052  80.4147196  93.4568261  31.2849165  79.9120605
  93.4873723  29.7838236  80.1038754 102.8862381  52.5260258  38.2107902
 103.3764267  52.0646143  37.5303125 103.5040188  53.1708002  38.5555243
  94.0785980  89.8869514  36.1505318  94.0367794  89.0987682  36.6920471
  93.8458347  89.5865822  35.2719927   0.9937814  81.6956615  65.4583311
   1.7097619  82.2993279  65.2603674   1.4245370  80.8540535  65.6079388
  26.6580537  74.3560123  32.5349164  27.2573331  75.0809908  32.7123952
  26.2422040  74.5868778  31.7042518  98.9371490  67.9691124  46.3187981
  99.5702744  68.6862707  46.2859917  99.4445801  67.2152090  46.6194201
 105.1438427  83.4042072  49.4255257 105.5218601  84.1373920  49.9110889
 104.2880440  83.2643414  49.8308325   0.3345254  32.9928899  31.8264627
   0.3605512  33.6106157  31.0957313   1.0263684  32.3610210  31.6306973
 102.4123573  55.7034492  26.1721134 102.3281479  56.6002798  25.8483386
 102.5811863  55.1806784  25.3882504  29.3159249  47.7938175  28.1377125
  28.9026216  47.8206253  29.0006638  30.0779679  48.3673048  28.2192063
 108.5921669 101.4792728  49.0868044 109.5283318 101.6735744  49.1324806
 108.1653881 102.2914219  49.3597746 106.9725704  71.4135599  26.6133308
 107.8206730  71.8464565  26.7110562 107.1138287  70.7623386  25.9261727
   2.1842721  16.7476058  67.6411772   1.8095163  17.4590039  67.1218491
   1.4444402  16.3983321  68.1380558   9.8995069  81.0626888  13.1697118
   9.8789933  81.3735294  14.0748012  10.6558946  80.4771328  13.1346548
  85.5080318  57.8267288  54.1190052  85.4702377  57.4457645  54.9963140
  85.7505035  58.7410975  54.2651844  87.9344273  94.0982819  31.6395926
  87.5050068  94.9265385  31.4255667  88.8601112  94.2527294  31.4512110
  69.0882111  64.6993780  27.7260399  69.5130634  64.0897179  28.3293986
  69.6656942  65.4625988  27.7106237  94.2606258  67.5577068  30.6592488
  93.4990406  68.0327129  30.3266954  94.3510151  66.8080902  30.0709128
  88.4331512  49.9634409  28.5750675  88.3158588  49.2777014  27.9176211
  89.3452835  50.2363920  28.4763479  27.8742841  81.4382267   4.1906974
  27.7484086  81.8397522   3.3309495  27.3138860  81.9467258   4.7768855
  81.2154484  70.9038734  21.4352775  80.2615833  70.9267044  21.3588548
  81.4660358  70.0615644  21.0558581 104.5297050  79.8682404  59.0673876
 105.4138660  80.0049019  58.7270880 104.1127014  79.2924690  58.4264278
  61.5048551  24.0690733  82.1722305  62.2372960  24.4854857  82.6265109
  61.0537385  23.5695340  82.8528029 110.4804993  85.2385044  45.5848265
 110.3908062  86.1750412  45.4085207 109.7901440  85.0470924  46.2196589
   8.1889299  88.9493752  11.4976740   7.5608972  89.3191814  10.8771467
   7.6964143  88.2728863  11.9624496  28.8920597   9.4655913  31.1006236
  29.5330719   9.5709914  31.8036366  28.0499367   9.4044322  31.5515327
  30.0431588  78.6076593  53.8118887  30.9195283  78.6324263  53.4277010
  30.1966050  78.5521603  54.7550774  28.1140999  22.1526736  19.3534434
  28.9872364  22.5231284  19.2245269  27.5496391  22.9129428  19.4934785
   1.9200853  49.3113518   9.5108587   1.8639615  49.1691494  10.4557729
   1.2121919  49.9263430   9.3187386  20.2386048  63.6040783  17.0709395
  21.0174420  63.5170889  17.6205552  19.5512727  63.1467962  17.5554097
  73.4054565  63.3797598  38.9703798  73.9120150  63.4514380  39.7793889
  73.5755014  64.2003393  38.5078168  28.3538627  95.2346211  20.6036735
  28.2823562  95.7490712  19.7996449  28.6868524  95.8524722  21.2545252
  82.1787071  36.1779332  22.4177313  81.9926453  36.0027385  21.4952779
  81.3396263  36.0491252  22.8599763  25.0341748  97.1717018  40.4765749
  25.0207662  96.9024902  41.3950396  25.5750608  97.9613656  40.4663181
  34.2836045 101.6968229  16.4872992  33.4788036 102.1247855  16.7794919
  33.9839172 100.9205246  16.0142446  58.0385828  22.0608020  41.0724401
  57.6818037  22.2799897  40.2116871  58.7842178  22.6512885  41.1800909
  75.6639147  24.9755764  33.2020307  75.8562994  25.5742455  32.4803543
  75.5476093  24.1234469  32.7818155 101.6249657  16.2310314  33.3680439
 102.5224209  15.8981895  33.3620477 101.1605358  15.6566036  33.9767861
  50.3252362 101.4428276  12.3247933  50.3679418 100.5314615  12.6143110
  49.4126271 101.5691468  12.0651591  93.4614182  20.8214831  22.0649886
  92.9146099  20.2334213  22.5859666  92.8390217  21.4018416  21.6267681
  91.3389206  19.3447363  29.5764613  91.7351437  19.3934977  28.7064815
  90.6457043  20.0046182  29.5612526   0.2744435  71.7269952  68.1509829
   1.0196494  72.1382589  67.7130795  -0.4423429  71.7969961  67.5204659
  90.9399128   2.7332759  16.0704947  91.1208630   3.2076132  16.8819714
  90.7541180   3.4187305  15.4287291  12.1852206  55.1414088  84.5460421
  12.7407549  55.6134168  83.9257002  11.9028662  54.3610584  84.0690058
   8.6861037  84.7525294  88.3809003   9.2899226  84.1675050  88.8384837
   7.8163527  84.4585473  88.6517188  23.2209110  94.4402021  46.5314579
  23.0533027  94.1560966  47.4300289  23.7551069  95.2289051  46.6253328
  38.0016278  86.3543397   4.2754811  37.3429584  86.1627000   4.9430576
  37.5440788  86.9024676   3.6379597   4.2017506  55.0785230  90.5275959
   4.3048905  56.0292936  90.4872264   4.8173855  54.7993852  91.2053195
  93.8219166   6.7052603  43.8280296  94.5171452   6.1222082  43.5231733
  93.8100052   6.5876085  44.7778988  75.5951165  91.7849105   6.5348840
  75.0049638  91.2078279   6.0501933  75.4124116  91.5959793   7.4552947
  51.5542078  17.1103621  34.0274501  51.4535046  17.8848791  33.4740853
  50.7161999  16.6535258  33.9548492  26.6255283  96.4524466  30.3935361
  26.7822837  97.3456233  30.6999612  25.7233810  96.2651163  30.6528926
  72.8453350   0.6372566  14.6008396  73.5688829   0.0105938  14.6015549
  72.0791912   0.1182244  14.3561757  38.6659288  90.4737335  13.0556834
  37.7492236  90.7489687  13.0669951  38.8560294  90.2366191  13.9633572
 103.9721775   2.0969667  45.0026083 104.0772629   2.5832087  45.8203840
 104.8546886   1.7940398  44.7889709  11.0739326 100.6362238  30.2194381
  10.6523036  99.8390782  30.5403996  11.8806838 100.3302431  29.8049974
   0.7763818   7.0891684  26.8133569   0.7690385   6.5452194  27.6009464
   0.1222852   7.7668154  26.9841838  16.5821791  26.5294099  32.8978729
  16.7438757  26.6191936  31.9587111  15.7666326  26.0314441  32.9539657
  33.3199310  90.5504387  34.5895123  33.7423991  90.1764327  33.8162899
  32.8124189  91.2884027  34.2517686 111.5172863  31.0061526  45.8397436
 111.4759731  30.0852489  46.0975456 112.2596836  31.0531569  45.2373505
  77.6933670  18.4638274  11.4228868  77.1865988  18.2118297  12.1948433
  78.4891796  17.9345477  11.4755511  24.5633077 103.4114586   8.2060528
  24.6494197 102.7063682   7.5644422  23.7713527 103.1929114   8.6972541
  12.0740464  10.0207949  53.3943176  11.5888360   9.1969091  53.4391832
  12.7306893   9.8752558  52.7132416  64.3588305  11.6155505  10.7885098
  63.7444544  12.3404789  10.6733811  63.8026857  10.8541822  10.9535873
  36.5811538 101.6002115  17.7783668  35.7074498 101.7709714  17.4266434
  37.1008252 101.3458776  17.0158112  83.1110477  22.5175095  59.7975779
  82.3593807  22.8871822  59.3343544  83.8727665  22.8620648  59.3314409
  56.9343805 101.1582118  32.4860454  56.8158197 102.0471856  32.1515322
  57.8825425 101.0269510  32.4865055  31.3197947  12.2120988  33.5966015
  31.1541128  11.2729645  33.6791134  31.5563416  12.3336971  32.6770949
  71.2682343  34.5343137  27.8799272  71.1913824  33.6720920  28.2884574
  71.6830921  34.3626809  27.0345473  93.2154460  82.3006875  67.2734666
  94.0815063  82.6288016  67.5153685  93.2966657  81.3484199  67.3265934
  64.6610832  24.0591002  53.8540649  64.3513155  24.9073792  54.1713953
  64.4062996  24.0408850  52.9315758  52.9427671  11.8927288  31.9833875
  53.6690140  12.4289858  32.3015523  53.3496237  11.2741697  31.3766861
  71.9570494   8.3479595  29.4210124  71.5964842   9.2265570  29.5405531
  72.7219534   8.4772235  28.8602567  40.7770299  91.0173946   8.0591822
  40.3549814  91.6051048   8.6858428  40.0752877  90.4363245   7.7656758
  73.8594723  37.2451973  15.1342630  73.2041979  37.5763369  14.5201027
  73.3481026  36.8819523  15.8573043  66.5703392  16.2188768  32.4143028
  66.5455770  16.9653463  33.0129719  67.0618963  16.5357685  31.6565561
  98.9317417  16.2962532  26.5209794  98.1920052  16.5549672  27.0706081
  98.5787678  15.6138813  25.9500027  43.0859040  83.6892324   5.6226736
  42.1533441  83.4909588   5.5374980  43.5232591  83.0076939   5.1123279
  48.1417465  30.8778048  62.5967550  48.0222082  30.6254840  61.6811800
  47.3254013  30.6198072  63.0248356 105.7182975  83.2801492  81.8601578
 106.3135238  83.6807425  81.2265456 105.9059759  83.7310560  82.6833779
  37.6421594  74.4033772  21.5569925  36.8567847  74.8288041  21.2128615
  37.3091649  73.6875659  22.0982504  59.2454099 104.4455304  37.0086741
  59.1839551 105.0807605  37.7220726  58.5216188 103.8389779  37.1650481
  24.3935826   2.6748669  10.7281721  24.0518525   3.3220723  11.3450813
  23.6148027   2.2375944  10.3838933  41.2817239  97.9069501  54.2475367
  40.4433059  97.7729583  54.6895123  41.7088174  97.0509118  54.2794895
 101.2427902  31.4839649  29.3689036 101.7507553  32.0982909  28.8389969
 100.3302383  31.7084503  29.1870213  91.1547470  14.2064178  15.1597607
  90.5157185  14.2405915  14.4479263  91.0513687  13.3309031  15.5326116
  19.8924306  17.6621282  14.2251801  19.4265512  18.1743193  13.5642326
  19.5842507  16.7653871  14.0943503  68.5977648  90.9953244  75.4034781
  68.8790415  90.1192124  75.1397669  68.3495711  90.9005244  76.3230669
  61.1267996  24.9584317  26.0435677  60.8594036  24.1463709  25.6131172
  60.5118704  25.6157899  25.7180333  44.6614789  97.6974696  17.0106864
  44.6828508  98.6427766  17.1595788  44.5356702  97.3206222  17.8815436
  32.0842504  65.8856684   4.8567453  32.9702424  66.2257749   4.9815440
  31.7112064  66.4360481   4.1681579   3.4256604  48.7747240   2.2280611
   4.1228727  48.1535673   2.0175907   3.6346868  49.5532990   1.7119643
   1.3278535  15.2227163  40.1400089   0.6514505  14.5456719  40.1581097
   1.9970086  14.9090838  40.7483625  87.2148323  54.2128992   5.5094594
  87.3818684  54.7047043   6.3134861  86.7951965  53.4051561   5.8055764
 109.7872257  20.0439358  15.1635301 109.9658203  19.1035521  15.1675069
 110.4254627  20.4115272  15.7748914  93.1171799  29.3458033  43.7422180
  93.6651421  30.0136924  44.1544008  92.6984882  28.8939190  44.4748354
  51.0840702  30.2612877  14.3059421  51.0370636  30.2512550  15.2619350
  52.0213795  30.2510118  14.1121066 111.2410450  34.4531751   5.1120603
 110.5356026  34.1149592   4.5605195 112.0312405  34.3464279   4.5825070
  61.4941072  94.8678356  60.9052610  61.6187333  94.5636564  60.0062752
  60.5538797  95.0336927  60.9738207  61.2303400  49.6340990  37.3433423
  61.2584114  48.9390421  36.6858172  62.1263266  49.9693394  37.3758888
  80.0975800  33.7154412  16.8037713  79.7443771  33.3548737  17.6170814
  80.5307293  34.5265770  17.0695972   9.8786691  35.6628966  50.8983278
   9.6687749  36.5966153  50.8797932   9.3451932  35.2835703  50.1999426
  85.9681606  60.4937220  39.6045732  85.1128292  60.8345413  39.3428898
  86.1582279  59.8071718  38.9652300   0.7431749  58.8127804  45.4164457
   0.1321271  58.7217617  44.6853018   1.0652307  59.7116470  45.3489637
  68.2078218  22.6126647   4.9280065  68.1605482  21.6574359   4.9671885
  67.4544621  22.9108596   5.4376763  78.5245037   1.2139370  21.2792349
  78.1599808   1.7306761  21.9977999  77.8364658   0.5842633  21.0639596
  84.8065090  27.7995706  49.1563320  85.4520035  27.1595550  49.4562578
  84.7809219  28.4575391  49.8510647  76.8539762  19.5120561  70.7660723
  76.5294409  20.3263283  70.3815365  76.0635757  19.0338159  71.0166454
  60.3944588  11.8457186  36.3450694  60.1344156  11.0245788  35.9275317
  60.6620932  11.5911365  37.2281289  10.9503458  68.3688135  74.1262674
  10.0030516  68.3184726  74.2540610  11.3052557  68.4825904  75.0079286
   1.4723638  43.5806704  27.7182698   0.5175737  43.5216188  27.7518606
   1.7064336  44.1115522  28.4795880  82.2569656  29.4342065  49.0963984
  83.0739212  29.1132212  49.4782066  81.6254616  29.3955564  49.8146868
  61.6795349  20.5718374  18.7783456  62.0837975  21.1345458  19.4387734
  61.6898441  21.0965347  17.9778361  34.5647477 104.9535536  26.9201994
  33.7068176 105.0348468  27.3368263  34.7637843 104.0182218  26.9622827
  46.7562388 100.7063777  61.1334944  46.0903071 101.0696084  61.7173076
  46.3147830  99.9841173  60.6866217  77.0860243   1.2818097  27.3174882
  76.4463997   0.7499841  26.8439102  77.0350695   2.1431634  26.9031143
  77.2940874   0.1145876  44.8038006  78.2363129   0.2497572  44.9046421
  77.1895409  -0.1770725  43.8981295  94.4495201  52.4351120  13.6616719
  95.1527786  52.0202112  13.1621504  94.8845482  52.7937603  14.4352043
 105.9716983  81.8996007  88.2334590 106.7548843  81.3572795  88.3269465
 105.2502532  81.2723024  88.1860393  44.1370248 101.8340823   1.3229732
  44.6159791 101.1370969   1.7713489  43.2442044 101.7673087   1.6615772
  86.4214467 102.4523309  43.7323523  85.5194902 102.3910960  43.4177971
  86.7986821 103.1799242  43.2378483  53.6890793  20.1625061  -0.1428685
  52.7468109  20.2147412   0.0172211  54.0861559  20.5577922   0.6332191
  65.7395744  16.6396737  25.7009816  65.1455212  16.7462361  24.9580312
  66.1515284  17.4976206  25.8032274 107.1173000  23.9037991  19.7597623
 106.7909813  24.3836093  20.5210280 107.3609829  23.0447292  20.1045156
  40.7807158  92.2035534  79.6558964  41.2920474  92.4557073  80.4247856
  40.4411887  91.3342388  79.8686099  86.0166264  51.6488600   2.8597310
  86.1368656  50.7771492   3.2364202  85.1118660  51.6520405   2.5472704
  88.4489632  43.1015110   4.8275334  88.0512142  42.4576950   5.4136419
  88.4130192  42.6926041   3.9628166   4.7969912  73.4139593  83.4821743
   4.1402100  74.0713556  83.2526106   5.0335597  73.0100090  82.6472533
   1.7814115  20.4933572  45.0366068   2.6322606  20.3461385  45.4496574
   1.8266633  21.3913965  44.7084188  97.4912262  27.7953410  47.1254730
  97.0047474  27.5252390  47.9043293  98.3866882  27.4984837  47.2874832
  93.1123208  90.0417834  28.0229163  93.9095830  89.5122307  28.0365348
  92.4777555  89.5070773  27.5457978  68.0238152  24.7919321  17.2502911
  67.1961689  24.7532272  16.7709816  68.4971857  25.5224705  16.8522203
  73.2117319  13.3605063   0.6196414  74.1226959  13.3563614   0.3257722
  72.7781582  12.7120328   0.0649069  76.5601587  89.1762417  58.8672924
  76.9427251  88.8294285  58.0613184  75.6395005  88.9175623  58.8260555
  87.9999256  75.5469227  14.6630192  87.2335529  75.7608700  15.1951194
  88.3972931  74.7971535  15.1059413  63.5582447  50.6014824  15.6485236
  63.7614775  50.5768013  16.5835750  62.6246881  50.8096886  15.6117404
 101.1559486  24.3952370  48.3149910 101.6878414  23.9328170  48.9626694
 100.5395126  24.9106193  48.8352108  96.1332035  61.5707254  15.1752865
  96.5999031  62.1071005  15.8161616  95.5824757  62.1918821  14.6987355
  89.1330814   9.4407725  10.4582083  89.5616722   9.9215281  11.1663139
  89.3310928   9.9474311   9.6706045 103.9757156   5.5952644   4.5800966
 104.7977829   5.2627504   4.9404725 103.7213039   6.3005996   5.1750821
 100.5261898  44.6251631  29.2196321 101.0818768  44.6033335  28.4405494
 100.0358963  43.8037062  29.1872144 100.6812096  39.9106717   4.8918280
 101.5139389  39.4874072   5.1007313 100.5635643  39.7581053   3.9542168
   5.0890592  21.3264918  16.9680512   5.1736119  22.2655630  17.1330631
   4.8942712  20.9491563  17.8259027  49.0173960  11.4734089  27.4947643
  49.6354961  12.1598673  27.2438431  49.5529032  10.6832039  27.5657606
  66.7006779  23.9931774  44.2792273  66.4586496  24.4481230  45.0858736
  66.6775846  23.0649066  44.5116282   7.6860288  51.8471384  17.6939416
   8.5821584  51.5979528  17.4679124   7.6341298  51.7211533  18.6413944
  70.3689813 100.0598073  16.8426383  69.9911832  99.9025446  17.7079499
  71.2416887 100.4095906  17.0222914   3.2803491  24.1081834  39.1204429
   3.1403115  24.9853349  39.4771290   2.8974488  24.1421556  38.2438207
 102.5393772  62.8178120  15.7371545 103.0491734  62.4250031  15.0286019
 101.6399288  62.8246737  15.4097772  92.6369190  24.9611902  57.5882101
  93.5568810  24.9227190  57.8497791  92.2632980  24.1387534  57.9048109
   8.4834956  56.7775671  88.1740716   7.9313181  56.1838327  87.6653397
   9.2881106  56.8547208  87.6613504  65.0010777  46.6739273   4.4147474
  64.8279333  47.5345469   4.0331906  65.8923101  46.4633465   4.1362014
  76.2105465  15.1750731  59.0012884  76.2423038  14.3413174  58.5321665
  75.9865856  15.8193636  58.3297539  70.2943230  28.7628627  30.5841684
  70.1390457  27.9545498  30.0955462  69.5484304  29.3216705  30.3659773
  78.9996433  24.1174483  12.2196031  78.4675741  24.8927760  12.3984993
  78.3664465  23.4454679  11.9671559   4.8589566  15.1709270  50.3321600
   5.3207448  14.3329906  50.3613234   5.4601052  15.7902241  50.7460785
  70.9745121  16.3889563   9.0425110  71.6477442  16.5922976   9.6918505
  70.7834578  15.4608774   9.1781545  85.1249504   5.9228784   0.5905407
  84.9011612   5.0229293   0.3533899  85.6205654   5.8397043   1.4052057
 101.5908623  58.7753296  25.2257752 101.1504078  58.2467270  24.5603418
 101.9208717  59.5360327  24.7475863  18.1139277 103.3273847  78.3595085
  17.4093340 102.7945669  78.7281466  17.9393099 104.2115981  78.6818552
   5.2672055  32.0660067   3.1555945   5.9808400  31.9154859   2.5356799
   5.0150254  32.9784060   3.0135822  94.3705559  37.0575190  25.4397321
  94.7782040  36.2120008  25.6272435  94.0360069  36.9694424  24.5472360
  95.9526253   0.8583799  39.1466832  96.3500214   0.5878387  39.9744010
  95.0109196   0.8458459  39.3177271  60.3588056  93.1031877  38.2419944
  59.9725198  93.8212830  37.7406454  60.3282212  93.4020012  39.1508436
  54.4170664  45.3003795  89.6504936  55.3190897  45.0032772  89.5307912
  54.3852232  45.6107647  90.5554128  91.7864132  14.9749064  25.3988004
  92.7428341  15.0108922  25.4128027  91.5105438  15.8801556  25.5425096
  87.3047447  38.4559846  54.5683813  87.4649143  39.1056943  55.2528191
  86.9330502  37.7058554  55.0324774  98.5728168  37.6045036  36.3282490
  98.2181931  38.4413671  36.0280180  99.5223141  37.7213049  36.2959313
  85.5874920   7.1497130  20.4409981  85.1787853   6.9759637  19.5930541
  85.3931713   8.0704278  20.6163692  52.7684784  15.7558227  27.2245455
  53.4835148  15.1197147  27.2066641  52.6247549  15.9285200  28.1550026
  77.1022749  34.5193243  23.9749217  76.2728357  34.2846513  24.3910909
  76.9066477  34.5260644  23.0379510  96.1399841  21.8970418  21.6728449
  95.2882290  21.4744806  21.7832732  95.9473324  22.7024913  21.1928797
  39.6319006  77.9153902  83.8709080  39.6003245  77.6813919  82.9432875
  40.3255747  78.5724385  83.9287025  94.9943638  43.5686731  42.7961016
  95.0132751  43.3172703  43.7195015  95.3065014  42.7929401  42.3302317
  59.7003412  26.3258410  23.5913205  59.6844101  27.1649265  24.0516615
  58.7980223  26.0098243  23.6380887  88.8875771  21.9263649  21.1091924
  88.1185913  22.2851801  20.6663084  89.1007042  21.1345983  20.6153154
  92.0878124  21.9374466  31.8183541  92.6797485  21.4914322  32.4240923
  91.2798119  21.4253879  31.8524218  49.6167135  16.7632580  37.6363969
  49.5299673  17.1571589  36.7683244  49.2431450  15.8872187  37.5403142
  27.6198576  80.1663668  84.4042277  28.5606669  80.0881989  84.5622885
  27.5393675  80.9013207  83.7962806  68.6391734  99.2779024  77.5142694
  67.8115939  99.1874273  77.9866743  68.9751624  98.3841808  77.4463999
 101.6162491  16.5056443  27.3117876 100.6884098  16.5191221  27.0768976
 101.6215611  16.5349996  28.2685232 111.8308349  76.4202673  52.3955274
 111.9012304  77.3067219  52.0413065 111.2482639  75.9649856  51.7876077
  97.5329781  26.0602927   3.5253996  96.7406750  26.5640593   3.7117311
  98.0466175  26.6262007   2.9490739  94.7183800  19.9496222  19.8631096
  94.3830013  20.0035787  20.7580066  94.1359711  20.5139589  19.3546259
  90.2615643  61.8478107   5.8268183  90.9650421  62.1530056   5.2539271
  90.5388546  62.1069670   6.7055559  87.1041393  71.3470173  16.8227959
  86.9200325  71.2871027  15.8853817  87.5561810  72.1845388  16.9250524
  10.0733851  56.1147801  62.7229071   9.2564677  56.4350180  63.1054306
  10.2799510  55.3263138  63.2247877 107.7575298  71.1272008  80.6890035
 107.8306146  71.7727442  79.9860346 107.4090190  70.3452523  80.2608311
  67.7658556  51.3221547  82.9201943  68.4755324  51.8132719  82.5061917
  67.1972273  51.0651557  82.1943557 107.5055313  56.5559483  22.1989679
 106.6856861  56.7366934  21.7391539 107.4337101  57.0458269  23.0181718
  19.7877645   3.0847193  89.9197590  19.4083976   3.9503600  89.7681507
  19.4325113   2.5410344  89.2166007  16.5002111  18.3207512  31.2314796
  17.1732476  18.3241284  30.5508637  16.6723779  19.1116095  31.7424941
  80.4821014  76.3104391  28.7865901  79.7908783  75.8792591  29.2891121
  81.2775898  75.8271456  29.0098882   5.9323552   4.1982082  20.3915119
   6.4081052   3.8793337  21.1584616   6.5880731   4.2190403  19.6944964
  29.7615388  34.1510057  25.3603435  30.4303125  34.4957209  25.9520721
  29.5352033  33.2961535  25.7267165  50.9632967  78.6428959  76.9636726
  51.9100665  78.7838275  76.9632244  50.8574198  77.7266295  76.7077935
  26.8987177  72.2411032  86.0696793  27.1689318  73.0955036  85.7331955
  27.3661517  72.1520347  86.9002238   5.8114198   9.5524544  25.7784843
   6.1696485   9.8459852  26.6161823   6.5691236   9.5118892  25.1949883
 104.5523834  21.9270015  33.4313917 103.6426640  21.6292906  33.4290147
 104.6437550  22.4243641  32.6186705  18.1537393  60.3342819  21.1364102
  17.2405103  60.3318977  21.4231658  18.2546666  59.5151758  20.6515265
  99.9773598  22.6460528  14.1173053  99.4030666  23.3220100  14.4771540
  99.8424721  22.6960659  13.1709778  72.5850725  11.4641047  21.6716695
  72.0983648  12.2782481  21.5431499  71.9123220  10.7834899  21.6917133
  75.9393311  32.9069734   9.9362189  76.3026571  32.3868346   9.2195040
  76.6468334  33.5029006  10.1822722  14.3826345  31.6453958  16.3882053
  14.0572408  30.7802439  16.1394739  13.5973790  32.1358824  16.6311586
  69.9176502   8.5199457  39.7240829  69.2286968   9.1281956  39.9916863
  69.6904898   7.6960647  40.1551867  92.1564198  48.7364578  52.1928310
  92.8925228  48.8349009  52.7967310  91.4399338  48.4134102  52.7391911
   0.4215959  41.1282253  43.8935375   0.8542493  40.2764559  43.9530611
   0.6465963  41.4506769  43.0208206  95.1596165  87.9891396  28.7405348
  94.6061134  87.2211075  28.8819671  95.6953239  87.7616215  27.9806137
   0.7146505  36.1877441  24.2387390   1.6648820  36.2090826  24.3520594
   0.3659871  36.2468266  25.1282167  20.3457311  48.9560080  12.5126481
  20.9992459  48.4701443  12.0095646  20.8544591  49.4338846  13.1676805
  41.8267725  94.5384033  91.2022997  42.7754496  94.4148834  91.1708899
  41.5050124  94.1272361  90.4000260   0.1127961  58.4873724  17.4741876
   0.7575181  58.3255196  18.1629288  -0.3719375  59.2557478  17.7756333
  91.8494511  42.4938107  51.9435740  90.9328651  42.7696323  51.9385052
  92.1721554  42.7508879  52.8072882  33.5537294  35.3297424   0.3758026
  32.7347806  35.7487559   0.6403540  33.4137586  34.3990088   0.5500840
  21.6958521  93.3349330  89.3516614  21.0096358  92.8792722  89.8392183
  22.3178576  93.6183364  90.0217514  86.6290379  16.6799676  27.1370554
  86.8970013  17.1469116  26.3456059  87.0102406  15.8072317  27.0408916
  18.6326459  43.0559254  57.8479481  17.9780439  42.3668051  57.9612589
  18.1203321  43.8517141  57.7047920  10.1045087  12.0420134  11.4123976
  10.0410703  11.3356709  10.7695222  11.0439160  12.2049463  11.4972925
  62.2393083  92.5978189  48.5645199  61.8109369  92.4934393  47.7149153
  62.2174691  91.7231923  48.9528275 108.8499069  44.7718668  23.0216646
 109.4321442  44.7237730  23.7798929 108.2126236  44.0720320  23.1642747
   7.4970105  51.8354702  20.8916831   7.0164159  52.6513195  20.7515192
   7.2138932  51.5361118  21.7556620  10.0666192  51.9968939   5.6552333
  10.2706388  52.9137039   5.8398145  10.7442430  51.5030766   6.1169809
   0.9220937  34.2273259  20.1598501   0.2542070  34.5918489  20.7406068
   0.4816106  34.1377282  19.3147588   8.7281469  62.0289469  36.3387585
   8.3367589  62.0735979  35.4663754   9.6371415  62.2986698  36.2075520
  99.7153473  48.6808920  56.5604210  99.6225357  47.9130363  55.9964895
 100.5909538  49.0157270  56.3669348 108.3429527  22.9793549  29.6554136
 108.4926128  23.8029051  30.1197386 107.8445816  22.4436045  30.2725315
  94.4580078  31.5334415  25.3001046  94.7493362  30.6219435  25.3230453
  93.5213852  31.4904451  25.4927874   4.4537023  12.3217571   9.2596459
   3.5933545  12.5238538   9.6273416   5.0321725  12.9937088   9.6203226
  85.2814102  23.7109065  64.8292637  85.5996418  24.5295429  65.2097845
  85.5179977  23.0408072  65.4705334  95.4038239  20.0140047  11.2319577
  95.2169895  19.2925596  11.8326592  96.0781956  19.6696115  10.6464314
  85.2740860  60.2383995  50.9082174  84.3793011  60.4836941  50.6727743
  85.8205986  60.9171057  50.5120850  88.2596111  13.8566577   4.6715298
  88.6230755  12.9825997   4.8134533  88.9791393  14.3553126   4.2844343
  30.0887445  49.5707989  12.0847261  30.7991079  49.2797232  11.5129817
  29.4198754  49.9025869  11.4857602  39.2775153  79.9262769  86.7503259
  39.7822760  79.8026283  87.5541672  39.9384974  80.0142367  86.0635966
  65.6511735 101.9022134   4.7873083  65.9593724 101.8627566   5.6926733
  64.7041940 101.7780524   4.8510391  83.1357384  13.3099687  36.0817289
  84.0280437  13.2678676  36.4256096  82.9689598  14.2449260  35.9622598
   9.1958617  51.3647979  84.5419872   8.2974909  51.3207645  84.2145270
   9.1073225  51.3042047  85.4931551  51.0406541  13.6163403  72.5127578
  50.5046891  14.4082619  72.4699891  51.3272905  13.5700919  73.4248626
  96.2324142  40.8145714  13.8879704  95.6895256  40.2052450  14.3881941
  95.8030605  40.8726692  13.0344439  67.3089456  18.1620146  90.9161105
  66.3925313  18.4376027  90.8942484  67.6056623  18.2449175  90.0098464
  40.7698205  47.2657156  30.4107380  41.0528520  47.3853922  29.5042038
  41.0802320  48.0495548  30.8640313  81.2601089  40.3901005   0.8276372
  81.3021564  40.7130384   1.7277339  81.1409569  41.1771870   0.2961028
  20.8084105  98.0320699  73.2004023  21.4853858  98.2065589  73.8542283
  20.8524321  97.0867784  73.0564570  86.4085197  87.5324821  24.3365932
  86.0393429  86.7819500  23.8711405  85.6471252  88.0502605  24.5981455
  11.7566107  49.8011504  87.4132827  12.5654410  50.1497732  87.0384741
  11.4644145  50.4779194  88.0238867  93.6352348  57.6283121   9.6654224
  93.7352467  57.4545622   8.7294513  93.4601974  56.7698765  10.0510156
  95.8737850  28.3476567   0.3125040  96.6347694  28.9127898   0.1792716
  95.9636688  27.6643395  -0.3517479 105.2917576  13.2348561  16.3846183
 105.9369373  13.9273608  16.5275192 105.6245327  12.4903464  16.8858194
  89.3590684  70.9068520  77.9169321  88.6919828  70.2279026  77.8156579
  89.3403907  71.3864131  77.0887399 104.4556236  10.3432345  21.9971991
 103.7802792   9.7236192  22.2732639 105.0566673   9.8212969  21.4656329
   0.5792573  36.8185401  69.3855333   1.3903955  37.1561003  69.7654581
   0.0876382  36.4790177  70.1333714 111.3645458  27.7135968  22.3966169
 110.8581638  27.0783925  21.8903279 112.2539902  27.3599410  22.4035454
  16.2842992  82.2167683  32.8811574  15.5947641  82.4212074  32.2495127
  17.0143464  82.7827644  32.6303506  82.2275733  72.1978767  89.3718554
  81.4602850  72.5431616  89.8282282  82.9736422  72.5592322  89.8504423
 108.5661172  16.2325407  63.4439850 107.7061414  16.2715460  63.0254722
 109.1552114  15.9295155  62.7530599  95.7666397  24.4506741  14.2430604
  96.2964058  24.5335340  13.4501410  95.9293175  25.2611971  14.7255778
  20.4710820  23.5003281  13.7221467  21.1564210  22.8424120  13.6051452
  20.1966527  23.4008098  14.6337461 108.2500505  97.8755003  19.3514431
 107.9755067  97.6930380  18.4527981 107.8306913  98.7089044  19.5654655
  70.8639050  30.1425910   6.6240770  70.0960684  29.8567319   6.1291623
  70.5962467  30.9695983   7.0248926  91.7522335  34.6639800  16.2028503
  92.0331287  34.6203184  15.2888346  90.9229088  34.1863894  16.2216234
  45.4559564  82.2494942  23.1467080  46.1841726  82.4972874  23.7163806
  44.6820306  82.6166183  23.5738945  98.3981466  28.8391711  85.4189914
  98.3799314  27.9970004  84.9644023  97.4771737  29.0444971  85.5798209
   9.8124269   3.3840016  47.7115679  10.6954625   3.4758058  48.0694199
   9.9063733   3.5997605  46.7837477  93.9522839   3.1027189  36.0880399
  93.3533764   2.4764012  36.4945817  94.3596745   3.5576507  36.8251300
  81.2532711  37.6946020  12.0878386  81.7247486  37.9146218  11.2843895
  81.1644936  38.5284400  12.5494266  28.6803296  19.5357096  18.8659632
  28.4348920  20.4304171  19.1015291  29.2542699  19.2497957  19.5766509
  21.7962602  27.3004460  21.8102622  22.2745755  27.4449468  20.9938335
  22.4021581  26.8009567  22.3576474  15.0405839  25.3553534  22.3074603
  14.4523385  25.7598543  21.6698241  14.8168615  25.7737327  23.1388092
 108.1349373  27.2016597  19.8887944 107.1880627  27.1505070  19.7582817
 108.2868385  28.0965424  20.1926756  88.7080479  36.4604616  59.5166159
  88.3619690  35.5693030  59.5645905  88.6803722  36.7770767  60.4195118
  19.9635886  99.8306091  82.3165500  20.6345271 100.0633867  82.9583293
  19.5098303  99.0826423  82.7049929  58.7840319  27.3181963  13.1123936
  58.0016422  26.8366671  13.3811426  58.4624243  27.9681540  12.4876094
  72.2027540  43.8496113   4.1644788  73.0955982  44.1231251   4.3748507
  72.2624302  43.5006142   3.2751682   9.3756345  24.8719978  23.0077839
  10.1109269  25.1021934  23.5757446   9.1078904  25.7024336  22.6141810
  84.2560577  19.1339743  14.4720721  83.7393093  18.3879769  14.1676176
  84.3568611  19.6875107  13.6976898  83.3291721  23.7229681  42.0600176
  83.8137436  24.5388675  41.9346094  83.4412670  23.5180831  42.9882908
 106.4307022  44.6124077   4.7432399 107.2868156  44.9365330   4.4635177
 106.1874294  43.9712954   4.0753889  91.3946724  22.2768593  25.9721184
  90.9155369  22.8469872  26.5734601  92.1295738  22.8107452  25.6702590
  94.0046978  18.3592546  29.1285563  93.1235218  18.7301052  29.1758251
  93.8822079  17.5019789  28.7207508  83.8072205  60.6540442  32.6064229
  83.7588310  61.3815594  31.9862509  84.7399330  60.5696249  32.8042912
 104.3144035  15.4609597  18.1313300 104.0085411  14.9012327  17.4176157
 104.5586967  16.2819135  17.7040315   7.4724916  23.0910182  23.4459567
   6.7107442  23.6329031  23.6517191   8.1631234  23.7191105  23.2343960
   8.6253217  58.8220787  24.2824554   7.8631833  58.2430124  24.2744470
   9.0737203  58.6164904  25.1027632   7.5228551  37.1808457   7.8836256
   7.7714208  37.7991295   8.5707700   7.4364331  37.7191615   7.0968741
   9.2182019   0.8277436   8.3519375   9.7152951   0.8885171   9.1676831
   8.6377862   1.5887243   8.3678889  29.1895674  84.5433624  86.6742897
  29.5550536  83.7439926  86.2952551  28.3255957  84.6265061  86.2707192
  98.7090588  27.7550673   5.9734321  98.8819408  26.9881916   5.4273134
  97.8251076  27.6134467   6.3122749  39.6139573  14.3385960  74.0668619
  40.2426814  15.0528742  73.9632225  39.2993783  14.1657759  73.1795025
 103.2784462  66.1992168   9.6764237 102.3530865  66.4425611   9.7034967
 103.3716011  65.5353165  10.3596473  96.5364789  10.7811142  86.3374951
  96.8664693  10.2814080  85.5907458  96.6809320  10.2089955  87.0911843
  75.8557129  47.2666359   1.6678818  76.4610434  46.5871906   1.9648051
  76.3835573  48.0648470   1.6461781  41.8291524  68.1388998  24.0961099
  42.4825528  67.4720049  24.3071938  41.0072950  67.6538897  24.0217113
  81.3282013  43.9998913   4.5708326  81.6025257  44.7773266   5.0572151
  81.4881992  44.2223215   3.6536884   0.5192235  51.4744425  30.1904511
  -0.0442740  52.1868324  29.8884559   0.5818513  51.6033602  31.1368608
 107.6342487  19.7906291   2.7234697 107.1869659  20.5649424   2.3819876
 107.7364349  19.9661064   3.6588824 105.0079632  24.8080564   1.9511436
 104.0786362  24.9856782   2.0961910 105.4624653  25.4462385   2.5010410
  31.1913159  46.1186695  33.0117583  30.3803113  46.4102507  33.4282732
  30.9454492  45.9470701  32.1027279  18.6692956  72.6880026  11.1280179
  18.5492376  71.7406464  11.0622311  19.1381696  72.9261208  10.3282094
  90.0114155  71.2249613  27.4722958  90.6690311  71.7374420  27.9425430
  89.4038868  70.9334040  28.1521058 102.7833366  54.2442799  50.2279139
 103.2402897  54.2786932  51.0682917 103.4768200  54.1008949  49.5838976
 111.7096806  15.6178463  13.5727036 112.0383358  15.9001935  12.7191842
 111.5453529  16.4325583  14.0475440  18.8816789  86.4637470  37.2664738
  18.1725171  85.8258533  37.3465705  19.5872930  86.1063862  37.8055787
  97.8962231  61.5591526  12.9972005  97.3604584  61.3291788  13.7563467
  98.7546253  61.7695856  13.3647609  20.8605626  31.6556764  22.0484352
  20.8133176  31.8072438  21.1044931  21.6062692  32.1811247  22.3383522
  47.0703935   7.4364687  88.1013289  46.5118741   6.6622378  88.0316544
  47.4043130   7.4110056  88.9980367  99.2056561  34.7474647  21.8278623
  98.6540222  35.5288696  21.7912579 100.0043583  34.9961185  21.3625884
  86.4641571  20.2708435  45.0686502  85.6909466  19.8139322  44.7375727
  86.1714935  20.6765246  45.8847427  19.1413739  75.5495691  27.9009199
  18.7220243  74.7180414  28.1221652  19.3874601  75.4563046  26.9806075
  11.8417695  49.7389603  37.7499914  11.1668637  49.1436577  38.0760980
  12.4560979  49.1721153  37.2835994  82.1366501  32.6258707   8.5373068
  82.9234219  32.2181177   8.1754255  81.8229580  33.2017136   7.8400010
 100.2305698  57.1244955  23.6667943 100.4553509  56.3429165  23.1619763
  99.2786503  57.1920300  23.5925126 107.9603577  25.3538489  23.6336040
 108.4150219  24.5946598  23.9984965 108.4727478  25.5912280  22.8607321
  87.2086334  45.0948429   9.5537841  86.9264889  44.1872215   9.4404519
  88.1436634  45.0823021   9.3493217  61.6768693   8.9395071  72.9931641
  60.9802675   9.3719221  73.4871292  61.2355088   8.5743309  72.2263014
   0.5100682  39.1884327  11.8994796   0.6054071  39.7567868  11.1352038
   0.4029801  39.7918177  12.6347983 105.9914684  41.9880152  30.9675884
 106.0354042  41.6105652  31.8461275 105.6238651  41.2902117  30.4252172
  85.4130745  70.2132463  34.2880583  85.2219772  70.9745026  33.7401509
  85.5343151  70.5745125  35.1661372   6.0909227  75.4182720   3.1069458
   5.7429841  75.2244711   2.2365388   5.3146318  75.5389977   3.6537823
  46.7652845   4.7053982  82.4233335  46.8039369   3.9346053  81.8571007
  45.8779001   4.6948124  82.7820426   1.4667276  21.8748736  25.4719639
   2.3528722  21.5206361  25.5460525   1.3325551  22.3570800  26.2878728
 103.4063053  52.4132776  19.5951056 102.6352119  51.8465281  19.6161723
 104.1063118  51.8793678  19.9708223  22.8201059  54.8433924  44.7752237
  23.0120423  55.7599068  44.5767355  21.8717816  54.8195219  44.9030256
 104.8492146  39.3086028   9.9423981 104.9208450  39.6261358  10.8425498
 104.5520687  38.4029961  10.0308120  31.9519570  49.8726845   8.2787037
  31.1165097  49.6328831   7.8777671  31.8205407  50.7688189   8.5883820
   1.7978528  64.9199724   1.3730398   1.3322786  64.1030502   1.5522087
   1.9804624  64.8905611   0.4338816  22.6083139  53.0633307  58.6348677
  22.3024228  52.3030996  59.1295528  21.9088510  53.2363176  58.0047417
  20.0355104  69.6723270  22.2692680  20.4087690  70.5001783  21.9666576
  20.5638173  69.4358683  23.0316377  91.8077850  50.7886600  32.0786524
  90.9208107  50.7905197  31.7188048  92.3780537  50.8130789  31.3102531
  67.1025562  61.3636732  21.3315439  67.4365664  62.2576523  21.4054561
  66.4281988  61.3032341  22.0081735   6.2518075  57.4379444  10.2344131
   6.9664243  57.5678635  10.8578539   6.6182187  56.8569613   9.5677543
  34.7297000   7.5623680  75.4263055  34.2276763   6.7716051  75.6235373
  35.2090549   7.7492882  76.2334681   6.7671445  57.0917797  23.5026526
   7.2866681  56.3561916  23.1782484   5.9153703  56.7090845  23.7130475
  91.0432958  15.0635983  76.7428088  90.8683156  14.4293858  77.4380720
  90.6308412  14.6868016  75.9655476 104.3338394   5.4135686   1.9194199
 104.1509819   5.4343247   2.8587621 105.2698517   5.2217585   1.8618035
  96.8134212   8.5017580   5.5880117  96.0664368   8.4237534   6.1814457
  96.4230442   8.6952955   4.7357330  21.2332343  82.9374320  87.8411418
  20.5690955  82.3601062  87.4645191  21.5481661  83.4554775  87.1004117
 106.0419369  72.8809404  41.8792915 105.6923103  72.2663450  41.2341070
 106.7317581  72.3913193  42.3272371  36.6489434  37.6884294  86.8174362
  36.2463236  36.8483210  87.0373154  37.5257897  37.6407981  87.1983528
  60.8787705  35.3283684   2.5964069  61.5612449  35.1238721   1.9571495
  60.6703199  34.4866650   3.0017567  92.2575518  76.5642166  82.9567337
  93.0935892  76.5911770  83.4220791  92.2520003  75.7106972  82.5234890
  89.1253377  33.5544579  15.8609772  89.1541566  32.7326291  16.3508606
  89.0971078  33.2851594  14.9428749  72.0823269   9.7530596  48.6424351
  72.2295716   9.7757237  49.5879745  71.1629392   9.9978058  48.5372734
  34.1667724  25.1452208  43.9527655  33.4097528  25.4423976  43.4479475
  34.5024061  25.9383631  44.3705034  80.1516433   1.3970177  24.5553207
  79.4743152   1.9101517  24.1146946  79.6663870   0.7818549  25.1051617
  69.3645872   1.0304778   1.5893173  70.0087912   1.2692540   2.2558117
  68.6405726   0.6454556   2.0830631  98.7234148  77.6178598  69.2018175
  99.1829559  78.4510279  69.3061447  98.7222180  77.4616051  68.2574558
  75.7568980  77.1733616   8.8778973  76.5317083  76.9514035   8.3615303
  75.3436399  76.3302992   9.0641785  97.4675561  22.0328086  16.3169479
  97.8646733  22.9031127  16.3501740  97.2197725  21.8478577  17.2228336
  10.4982424  65.4072857  80.5684566  11.2835622  64.9446869  80.2760410
   9.9871337  65.5398750  79.7700691  72.6709983  99.3457127  80.0667763
  72.7366325  99.0717888  79.1519594  72.4213478  98.5505581  80.5375576
  34.9737815 101.3825487   1.4787483  35.1204083 102.0915960   2.1048355
  34.4644351 100.7346510   1.9656086  16.7107224  71.0863972  86.2556648
  16.1411226  71.6437912  85.7254791  16.1285114  70.7053900  86.9130039
  69.0180083  36.4942258  11.9056797  68.5072048  36.4723199  12.7149010
  69.3710186  35.6085198  11.8212223 110.0581649  23.1401992  78.3066225
 109.7964549  23.7408495  77.6087999 109.3049544  22.5601888  78.4184027
  89.4353403  26.1106198  18.1428146  88.5523118  25.7806056  18.3088970
  89.5576800  26.0032647  17.1995544  31.8586064  72.4940525  37.8579140
  31.2997103  73.2195424  37.5794697  31.4982266  72.2246777  38.7027740
  39.8073614  11.8282908  87.0894718  39.3622365  10.9816283  87.1247768
  39.7924311  12.0682830  86.1629677  70.6365599   8.7355034  25.6184483
  69.9876602   8.1273787  25.9724808  70.1577248   9.2410843  24.9616814
 105.8018209  20.1581948   8.8564301 105.1767637  19.8634951   9.5187664
 106.3703419  20.7728760   9.3203068  96.7859699   8.6126225  19.4603634
  96.3798071   8.9638751  18.6679649  97.6865365   8.4172194  19.2014599
   8.4381264  30.1610518  71.1000824   8.5231614  29.3787670  71.6450930
   8.0244887  30.8076096  71.6720104  53.8944889  54.2147952  23.5651302
  53.7147129  54.7823490  22.8155994  54.6538223  53.6973264  23.2970428
  68.2800980  16.8761008  17.2064590  68.5040970  17.0856707  16.2997437
  68.3851524  15.9265320  17.2657871  72.2941798  16.3864415  41.0712242
  71.9883235  15.7669108  40.4087543  72.7972649  15.8515494  41.6852474
  30.1784898  56.2263291  12.3161697  30.9042026  55.7593243  11.9020653
  30.5729486  56.6585248  13.0736923  92.1313938  81.3049984  72.2544813
  91.5289327  81.7515373  72.8493547  92.9956314  81.4395332  72.6433563
 109.0960667  65.3797150  69.6202993 109.9407440  65.7430363  69.3543148
 109.2654100  64.9793148  70.4730797  45.4854942   5.0340480  73.2065964
  44.9309070   4.4277781  72.7155828  46.1915947   4.4872779  73.5511160
 108.2560374  10.0028174  20.4250813 108.1050803  10.9274094  20.6214714
 107.7439691   9.8394911  19.6330357  46.9355656  24.6417086   8.3834362
  46.6126277  25.3467267   8.9445877  46.5593411  24.8287480   7.5233746
  89.6773959  98.7925314  25.2540779  90.4763079  98.9504694  24.7510624
  89.5002461  99.6259903  25.6901932  52.3869384  64.8514973  25.8024788
  52.7159191  63.9530514  25.7742214  51.8691934  64.9422549  25.0025177
  12.9158545  43.5078716  84.6057510  13.7002063  44.0465260  84.7100449
  12.4796939  43.5526133  85.4566288 109.5209283  36.4135075  61.0946512
 109.6336435  37.2811675  61.4828444 110.3197169  36.2729430  60.5863142
  58.7047029  83.5806202  15.0685406  59.2376614  82.8025793  14.9047089
  59.2580152  84.3120216  14.7944546   3.5309812  35.9146237  76.6587543
   4.4119903  35.8956552  77.0325136   3.2327753  36.8140864  76.7939281
  69.5307232  13.8666098  31.7151451  68.8554861  13.5121195  32.2936153
  69.2564227  13.6026757  30.8368874  76.1220977  85.8733940  89.1846371
  76.8954536  86.2839603  89.5713997  76.4337632  85.0251198  88.8691616
 110.5644476  53.1242800  83.9800453 109.9206474  52.8295517  84.6241665
 111.1795800  52.3947382  83.9051342 110.5897421  28.8577271  87.5937176
 110.5212380  27.9037690  87.5549603 111.2016255  29.0825963  86.8928146
  57.7686776   7.9467385   7.8067303  58.4821011   7.3472302   7.5879860
  57.1868421   7.4325364   8.3664513  20.5474591  73.7871456  90.2162743
  19.8036563  73.6151695  90.7936954  20.6507230  72.9801893  89.7119045
  58.2111479  32.1825593  28.6136627  58.1232251  32.4995320  27.7147579
  57.3108150  32.1037095  28.9289665  56.5364183  34.7963517  16.9423199
  55.8856536  34.1028206  16.8339443  56.0720672  35.5994790  16.7065430
  91.4177105  38.9241385  54.6890450  91.1572573  38.9932251  53.7705564
  90.9584472  38.1482768  55.0105238  75.0995437  28.4572404  22.0795536
  75.4275826  27.7113240  21.5773296  74.1631967  28.2855027  22.1795177
  64.7908260  56.2977307  11.9423771  63.9702584  56.1875622  11.4620018
  65.1074667  55.4054921  12.0833778  42.9009927 104.3089698   7.8678226
  43.7591589 104.6970104   8.0387306  43.0919117 103.4031414   7.6243877
  37.6775622  59.6775246  78.4006357  37.6652789  60.5085278  78.8755226
  38.6015630  59.4287252  78.3771420  71.8424217  45.6078904   0.4913616
  72.3205771  46.2370484   1.0315037  72.0601085  44.7550671   0.8675766
  88.7321755  73.7167501  79.5684671  89.0717384  74.4913960  79.1203022
  88.5439917  73.0960274  78.8645363  82.4229285  67.7873993  72.2885609
  82.8421852  68.2598829  71.5693903  82.2850701  68.4519243  72.9635620
  18.1447875  77.4429703  76.1521339  19.0461242  77.6943207  75.9505177
  18.2206035  76.8725348  76.9170427  74.0600098  36.3527005  27.0641804
  73.5183214  35.8683293  26.4411354  73.8401832  35.9759133  27.9161930
  98.4051873  20.2222674   6.1234093  99.1879512  20.7610886   6.0085869
  98.4604885  19.9088185   7.0261383  75.4895933  19.7636883  27.9640865
  76.3477181  20.1738446  27.8562737  75.5640319  18.9279120  27.5034714
  99.8852064  12.1874039  25.4782295 100.7641341  11.8283646  25.3565311
  99.9415685  12.6880305  26.2921333  17.6807606  80.4367352  84.2565823
  18.1232381  80.1801968  83.4474850  18.1934237  80.0235176  84.9513149
  72.0827861  29.0136044   4.1651630  72.9259217  29.0533822   4.6165752
  72.2647040  28.5285943   3.3602428  23.7786043 104.7604107  41.2328720
  24.2499471 105.4941057  41.6275311  23.6489189 104.1436981  41.9533443
  82.7718218  17.0480912  13.0711842  81.8681659  17.3309462  12.9310799
  83.1818451  17.1205895  12.2092915  71.9677655  15.0640624  38.7597084
  71.7524360  15.4932540  37.9316616  71.7760856  14.1387932  38.6068344
  36.2238578  99.2399238  22.2157860  35.6209721  99.6944879  22.8041172
  37.0439889  99.7279714  22.2894382 103.1176141  52.8419495  81.6544437
 102.3046407  53.3361912  81.5494061 103.6864570  53.4214640  82.1612072
   9.8380911  89.2701817  86.7041874   9.9971634  88.3440495  86.8864059
   8.8855410  89.3421459  86.6433430  40.4500786  82.9678200  16.1271286
  40.3610996  83.7339996  16.6939449  39.7130520  83.0323123  15.5197811
  29.9461271  59.7476189  10.9285450  29.2767192  60.2627938  11.3787842
  30.7760479  60.1034825  11.2460613   6.3908684  35.0292611  68.4455633
   6.5466696  34.5611763  69.2658377   7.2175080  34.9578071  67.9682875
   8.5548739  13.7513106  25.1273727   9.1770463  14.2057269  24.5593643
   9.0469603  13.0074780  25.4749298  62.6176728  15.4011338  37.3447895
  62.5388433  16.3421147  37.5015450  61.7604937  15.1420109  37.0066643
   8.7843090  78.9658880  61.6379738   8.6227232  78.4359503  62.4185419
   9.0136284  78.3301497  60.9601212  78.3303472  68.9337635  47.5168180
  78.7544963  69.7438478  47.7998257  78.3096024  68.3871889  48.3023500
  93.1891593  88.6539173  64.5861578  93.6486921  88.1031036  63.9523888
  92.5762877  89.1659737  64.0584946 104.6327040  61.4204931  61.2733269
 105.0534400  60.9949636  62.0204163 104.2540452  60.7001400  60.7694054
  63.1634058  44.3156045  14.7471428  62.7889468  44.7194855  13.9642715
  63.5027875  45.0511258  15.2571106 102.6878682  56.9082928  75.7397747
 103.4450051  57.0351553  75.1680374 102.4218205  56.0015488  75.5872393
  18.0560458  68.6271811  85.5465508  19.0109897  68.5703802  85.5795479
  17.8680158  69.5603800  85.6466198  82.0820047  12.0659392   2.2536469
  81.1613537  11.9377558   2.0251656  82.4930228  11.2200396   2.0754528
  92.8968832  66.3456917  77.6737070  93.7364635  66.2629557  77.2215033
  93.1304821  66.5847015  78.5706663  51.2328793  38.3888238  29.5910263
  50.8784534  38.9394658  28.8928795  50.9002830  37.5124734  29.3970680
  59.3062878  75.5574177  16.4636230  59.5129658  75.1973175  15.6011581
  58.5854316  75.0147985  16.7832565  35.7395124  73.5156202  76.3870621
  36.2847161  72.7309084  76.3304329  35.4185486  73.6491394  75.4952192
   9.8735410  85.8101845  78.0621386   9.0000927  85.8337307  77.6712847
  10.0078058  86.6948986  78.4019518 110.7705107  83.1810474  79.4393396
 110.0774580  83.7888527  79.1815090 111.4514861  83.7394428  79.8144341
   0.1892785  75.3324318  63.5397577   0.6464440  74.5156813  63.7401247
  -0.7153331  75.0663853  63.3750582 103.6708213  40.1870721   2.5510407
 104.4743969  39.8650162   2.1426678 102.9920270  40.0406544   1.8922329
  69.9039249  24.1152232   8.2983398  69.8399965  24.9303620   7.8006554
  68.9956815  23.8435309   8.4306717  71.3093026   6.2943547   2.4460411
  70.6362788   6.0728066   1.8024635  72.1281309   5.9996312   2.0474339
 103.3194974  98.8482571  71.1954165 103.2966086  98.1754398  70.5149508
 102.4597690  98.7959385  71.6129827 104.1496588   0.5642693  22.9435825
 103.8353898   0.5089562  22.0411396 104.8983552  -0.0313814  22.9734039
  14.0341318  80.4218578  62.3024607  14.3092847  80.2171612  63.1961203
  14.2315304  79.6291494  61.8035746  85.1081361   6.1218255  35.1383686
  84.9078394   5.3332703  34.6340942  84.2528142   6.4615004  35.4015732
  68.0288883  80.1649087   6.7482281  67.6645495  79.6298783   6.0430813
  67.3131521  80.7482522   7.0005512   1.1267916  52.4498367  87.8281689
   0.4988480  52.8168249  88.4504509   0.6402993  52.3863649  87.0062637
  44.0090443  13.8879292   5.1159287  44.6301891  14.6116011   5.0340176
  43.1984688  14.2235272   4.7330856   3.5736594  71.2323475  84.9752522
   4.3152931  71.8240023  84.8481464   2.8131953  71.7355728  84.6842289
  26.9676018  65.1476145  73.0243444  27.5687599  64.6990633  72.4296665
  26.1697197  64.6193123  73.0017805  93.5974671   3.4545033  21.9389725
  94.2637636   4.1362898  22.0252609  94.0953530   2.6390832  21.8803597
  88.8941504  19.9816458  23.2688332  88.4343542  19.6468394  24.0387249
  88.1969453  20.2109521  22.6543808 101.8345961  65.1064825  84.5609570
 102.2979495  65.8982086  84.2876434 102.5290492  64.4956255  84.8075771
  49.0212965  95.0745869  80.9002972  49.3721247  94.6322536  80.1273251
  48.0713797  95.0304222  80.7910347  70.5838545  33.4493725  20.9260178
  70.6287770  33.6172669  21.8673134  70.3312342  32.5285618  20.8587646
  60.0338054   3.5813159  85.4114914  60.7440139   3.6493320  84.7733688
  59.3967319   4.2386836  85.1318073  56.5005292  38.4576409  36.2022209
  56.6526486  39.2127316  35.6339550  56.8756355  38.7127869  37.0450878
 104.5497705  54.1297238  31.6034794 104.1189076  54.6860688  30.9545803
 104.4054081  53.2376664  31.2878132  34.9668234 100.1757215  11.2332535
  35.4610714  99.6412300  10.6117535  34.2648757  99.6008705  11.5382862
  75.4111553   2.2989673  70.9502077  74.4687272   2.4333877  70.8502436
  75.5902148   1.4910430  70.4691219 108.6359426  89.2768669  78.3332777
 109.4226155  88.9835262  77.8735733 108.9588699  89.6164036  79.1679430
  52.5384057  95.1568769  20.4102421  51.8566812  94.5795654  20.0664425
  52.4023808  95.1503967  21.3577080  81.9128443  58.2048314  22.3920536
  81.9805844  57.6298516  21.6297913  82.7859952  58.5864728  22.4825287
   2.4999148  71.8358088  87.5384808   2.9382163  71.5251684  86.7462444
   2.5796044  72.7888393  87.4982643  19.7946716  88.4714197   3.5997295
  19.6556307  87.5272034   3.6728954  18.9135648  88.8383673   3.5274029
  90.6828631  12.6978009  21.3807678  90.5929042  13.5318987  21.8416595
  90.5116524  12.9113095  20.4635239  13.7682116  72.6952267  78.0717993
  14.7043669  72.6472759  77.8780365  13.6498487  73.5577297  78.4696817
   2.1335137  26.9698310  68.3269835   2.0889258  26.7614770  69.2601681
   3.0353379  27.2595334  68.1890821  15.0832392 102.0798372  24.0550804
  15.3307367 101.5817617  23.2760429  15.1464010 102.9956459  23.7839127
  48.4491396  11.7151451  87.4809170  49.2971039  11.7792785  87.0415211
  48.6103058  12.0508540  88.3627033 108.1715685  77.5201750  80.6317806
 108.3596647  77.0263577  79.8336554 108.5688031  78.3780527  80.4818535
  19.4704199  80.8859062  66.8727160  19.1023076  80.7801533  67.7499485
  20.4179907  80.8640194  67.0063591  73.0862196   6.8410151  34.8941708
  72.5652473   7.5370114  34.4936657  72.5873072   6.5844672  35.6697369
  11.0105753  45.7472992  49.3217516  11.3288558  45.0870466  48.7061262
  11.7789197  46.2842798  49.5154858  14.8416126  84.0025234  81.0280228
  14.9659491  83.0759335  80.8225918  13.9976609  84.0368652  81.4783478
  93.3241738  46.4850800  18.7117481  93.1569935  47.4275200  18.7211609
  92.7967514  46.1555283  17.9841232  92.8759560  69.0607834  47.8360605
  92.2029850  69.7392941  47.7815866  92.4251816  68.2554245  47.5822353
  84.8157240  21.2135928  12.8484440  84.1644867  21.8819993  12.6354694
  85.2337660  21.5327351  13.6482048   6.4035916  76.0511398  81.2181664
   6.4301282  76.7896175  81.8265915   5.5460554  76.1175871  80.7981110
 100.5806693  89.7083759  71.4588022 100.0377461  90.4960728  71.4902735
 100.4989991  89.3261242  72.3325586  13.6985469  77.8727627  73.0433559
  14.2786145  78.2088423  72.3601246  13.9078677  78.3986187  73.8152933
   4.8252434  53.3554888  70.5923319   3.8911098  53.5337257  70.4834366
   4.9279884  53.1790495  71.5275049  62.5272717  13.9935200  12.0903969
  63.0060662  14.8156111  12.1960068  62.0319940  13.8985818  12.9039764
  36.4724865   5.6869811  80.7659817  36.0484432   6.1779613  81.4697933
  37.3748747   6.0062045  80.7612324 106.9282795  13.5319989   7.0694828
 107.3064710  14.3370335   7.4232101 106.0171796  13.5464375   7.3626041
  63.6054553  24.2510121   5.1416492  64.3024374  24.4484370   4.5159721
  63.5028531  25.0567906   5.6480312  90.1673600  92.3288536  59.3189812
  90.0505230  91.3894749  59.4609070  89.3206736  92.7126789  59.5470905
  55.7328869   8.3635085  18.2616901  55.4380013   7.7471202  17.5913620
  56.5287425   8.7509339  17.8973389  58.2883085   2.0596402  47.8506947
  59.1615178   2.3972981  47.6513958  58.0197491   1.6042035  47.0527649
 101.8370190  75.5656576  72.7936888 102.1873739  76.4469051  72.9236174
 102.5244811  75.1028061  72.3147297 109.4382717  11.8289702  25.0565720
 109.5811798  10.9792035  24.6397877 109.7007896  11.6961615  25.9674358
  99.0672216  87.3424721  78.5929585  98.8339052  86.5617466  79.0952158
  98.6155006  88.0584812  79.0396357  89.4718052   2.1422188  13.0300331
  90.3824080   1.9452994  12.8103542  88.9597680   1.6753285  12.3696804
  98.7963249   2.2559064  12.9141235  99.5660712   2.7564042  13.1847191
  98.4789659   2.7084487  12.1326351   1.0856166  59.9637222  72.4581528
   0.8596566  59.5608711  71.6197681   0.2622773  60.3350782  72.7750731
  96.9803120  16.4504569  28.3895302  96.4641716  15.6617444  28.5561657
  97.4929835  16.5744012  29.1882992  56.1025811 102.6425766   1.1623955
  56.5545595 103.4862827   1.1518574  56.5346754 102.1480678   1.8588066
   8.7753940  24.7395945  70.1354980   8.3259028  25.0412369  69.3460655
   8.3639854  25.2296519  70.8474112 110.6338765  60.9463017  25.7473183
 110.2546073  60.6336396  24.9259663 111.0280324  60.1678078  26.1407948
  17.1151268  54.7342920  78.9188623  16.9866812  54.2254448  78.1183577
  16.3755512  54.4936895  79.4768667  93.2574412  54.8991299  87.6649380
  94.1579804  54.6302366  87.8464699  93.3164582  55.4002476  86.8515301
  29.1286945  67.4106693  89.3259144  29.5612097  66.7078447  89.8108959
  29.8283362  68.0351639  89.1342449 110.5720564  59.9304438  83.1650257
 111.0847835  59.6767282  82.3975849 111.2166704  60.2857447  83.7769604
  24.3082166  81.1674118  75.4696608  24.0269709  81.8829727  76.0398388
  25.2577877  81.1291027  75.5840349  14.9821734  78.4278440  70.5332184
  15.5149817  79.2223167  70.4991007  15.6058884  77.7150440  70.3949308
  82.9122581  22.6067870   0.8623600  83.0292268  21.7458718   1.2640762
  82.0176299  22.8584759   1.0915470   9.4861226  40.5536549  32.3577499
   9.7391133  40.4603188  31.4393234   9.5173936  41.4964573  32.5201797
  80.5121262  58.1766122  18.3530903  79.6070059  57.8663724  18.3258343
  80.7148720  58.4038155  17.4456215   0.5492415  62.1233368  69.2131948
   0.7325085  61.2138414  69.4486952   1.3174301  62.4009895  68.7141705
   1.2839800  30.0617743  85.9321594   1.9663054  29.4535279  85.6480789
   1.5373018  30.3072834  86.8219852  71.7642189  89.9564241   4.1947079
  71.5975858  90.8750294   4.4059753  71.7452718  89.9233769   3.2382679
  21.4104009  61.7400312  86.0459137  22.1401525  62.2186852  85.6527328
  21.8161893  61.1984539  86.7228603  83.1621863  70.6976693  13.1224442
  83.8555296  71.0971158  12.5971317  83.4567292  69.7978966  13.2634449
  78.8561635  18.2979958  24.3568325  78.4828524  19.1577189  24.1625309
  79.7764297  18.4749978  24.5518017  12.2526789  72.5000048  88.2293320
  12.2687745  73.2840204  88.7782383  11.6550505  72.7201414  87.5147629
  84.5994760  23.8576691  10.1424789  85.4570366  24.0582030   9.7675037
  84.2189695  24.7132104  10.3412056  17.6246762  96.2461662  77.9638338
  17.9403734  95.6954670  77.2473860  18.1937885  97.0155334  77.9432392
  98.1191875  84.5863145  18.0458450  97.4652053  83.9555638  18.3469963
  97.7640416  84.9257939  17.2243500  80.5333705  30.5768864   0.3008747
  81.3298108  30.9067147   0.7169628  80.8222373  29.8118298  -0.1966000
  41.1585283 103.3190632  62.3153210  41.5013742 103.2596493  61.4236069
  40.2903605 103.7089062  62.2126579 101.2145211   5.7504838  18.4181499
 102.1679451   5.8353846  18.4158421 100.9814717   5.6924241  19.3447304
   4.6707492  22.8350442  10.5782127   5.1345448  23.0148308  11.3960171
   4.8552327  23.5949557  10.0261879  70.8058406  16.4774245  88.9996147
  71.1022521  15.5762214  89.1269684  71.0952879  16.7020530  88.1153107
  40.2875566 101.8701935  74.5907116  40.1974916 102.1167660  73.6702108
  41.2277222 101.7377853  74.7123146 105.0862385  21.6598742   6.2941647
 105.5016710  21.1437314   6.9849873 104.8719265  21.0212987   5.6140709
 105.3466848  86.8025780  84.6903610 105.5881163  85.8802795  84.6048737
 105.7399008  87.0773125  85.5186939  64.8701025   6.8381137  67.6904297
  64.5422292   7.6063460  68.1579161  64.8437572   7.0901412  66.7673779
  99.2424704  34.8462861  26.9507599  99.0524031  33.9858716  27.3246479
 100.0358392  34.7121899  26.4322853  35.9657741  62.2544336  68.9971399
  36.7280030  62.8048611  69.1767693  36.3011932  61.3590145  69.0413284
  99.7378494  31.5105431  16.2430477  99.5563652  30.7665055  15.6688404
  99.3057109  31.2877457  17.0675755  28.8866095  19.7382109  10.2651310
  28.7486176  20.5011265  10.8265114  29.7178702  19.9127905   9.8238087
  77.0689011  37.0953959  80.3909111  77.5289298  36.2609786  80.2995014
  76.4162017  36.9356364  81.0725975  73.4573601   4.1560261  -0.0033951
  72.8102875   4.5264380  -0.6036663  72.9374655   3.6898797   0.6513119
  96.3127471  46.4755147   9.0763760  96.3327052  47.3837559   9.3779278
  95.9743716  45.9823887   9.8237515  74.8828818  38.2016938   1.6390610
  75.8158444  38.0077260   1.5485668  74.8512973  38.9589970   2.2236347
   9.7509390  81.4293575  62.5259352   9.1981304  80.7273006  62.1827888
   9.4108748  81.5937996  63.4054518  23.8800753 101.1975978   1.3351345
  24.0847290 100.2731155   1.4754295  23.0678833 101.1889289   0.8286762
  21.4426427  64.2591660   5.1179218  21.0620932  63.3820050   5.1627254
  21.7417912  64.3445008   4.2126846  85.9240855  57.8207200  14.7245598
  85.8385386  58.6738865  14.2990971  85.9128655  57.1912949  14.0034962
  44.9257726   9.5969981  90.9445190  44.9228216   9.0714187  91.7445087
  45.7250852  10.1201839  91.0046196  78.5306670  14.0165274  18.9229298
  78.3318086  14.9473040  18.8212395  78.5828139  13.6834805  18.0270481
   8.2034259  49.1192811  -0.1400375   7.7670722  49.9051659   0.1889229
   8.1805949  48.5070317   0.5953979 108.4971783  97.4847794  56.1937666
 109.2072293  97.9409885  55.7421780 108.2167810  96.8083858  55.5772400
  26.2782550  84.8276806  82.4171162  26.0779381  85.6910706  82.0556450
  26.9778085  84.4902229  81.8576622  40.8154869  72.0376778  75.1072979
  41.2842989  72.8674412  75.0182152  41.0828114  71.7022133  75.9630060
  65.9123779  15.7891006  61.1680412  66.3452960  15.8259887  60.3151321
  66.5784908  16.0864562  61.7878056 100.5095006  25.2059310   7.8764725
  99.9266030  25.1045458   7.1240234 100.9195878  24.3471472   7.9791832
   5.3822947  48.4752417  63.0458212   5.6820667  48.2901335  62.1558189
   6.1673671  48.3867550  63.5862494  24.1743971  11.2350005  84.8211098
  24.7159243  11.9987124  84.6218014  24.7552920  10.4868621  84.6829700
  94.7378232  58.8185017  11.6214657  95.4242898  59.4611447  11.4425850
  94.4317247  58.5477917  10.7558727  98.4207584  24.7178834  16.8018055
  99.0453269  25.3609841  17.1373081  97.7422358  25.2422421  16.3764954
   0.3109485  97.7992916  90.4227448   0.7776953  98.6147308  90.2398872
  -0.1342522  97.9595470  91.2548161  37.9692006  64.8129368  68.6608553
  38.2915211  64.3993807  67.8600359  38.4998345  65.6043577  68.7520075
  48.5825849   3.0050487  86.0584450  47.9529989   2.3565024  86.3734722
  48.3162046   3.1785888  85.1555824  68.7267245  29.8294919  27.4954033
  68.7483104  28.9033024  27.2546768  68.4484000  29.8324959  28.4112453
  45.5394602  99.6656227  79.6296835  45.6712151 100.5710125  79.9110079
  46.4238167  99.3073463  79.5536089  13.0412631  23.2106392   6.0341263
  12.5328736  23.9020627   6.4580441  12.3873191  22.6694815   5.5916977
  59.3345357   6.8989937   0.2588844  60.0999118   7.2071879   0.7441139
  59.1113330   7.6255219  -0.3229809 110.6078067  53.4003687  71.2611723
 110.7356577  52.4606800  71.1312962 109.9255875  53.6382961  70.6333160
  77.4517632  13.4394568  72.8790331  77.8403617  13.3821601  72.0061398
  78.1858302  13.3010692  73.4775543  18.9602236  19.6105044  12.6607227
  18.4282927  20.3893273  12.8241730  18.7932162  19.3946211  11.7432594
  44.0293074  81.1586666  88.6767578  44.9569464  81.2017441  88.9088440
  43.6920309  82.0322990  88.8748455  67.7338601   9.4623584  82.4417686
  68.2480813   9.5306415  83.2462215  67.8139354   8.5441417  82.1835327
  11.0543311  71.1504459  62.5051260  10.8003390  71.9592667  62.9495668
  11.7811561  71.4070940  61.9375944  64.7156937  38.6882107   0.0585747
  64.5111979  38.8409035   0.9811211  65.6215377  38.3789055   0.0620461
  64.1591693 105.4293178   3.4865189  63.2025100 105.4604410   3.4784412
  64.3848325 105.2356027   4.3963432 110.0191809  35.1510041   7.6602173
 109.2297222  34.6273320   7.7971554 110.3991868  34.8047917   6.8527794
 101.9836380  59.9404614   5.6177235 101.4978911  59.7076886   4.8264599
 102.6483871  60.5601113   5.3170967  97.2873737  21.1602299  25.6545448
  98.1197430  20.8128731  25.9750652  96.6263320  20.7523625  26.2139225
  78.8534288  32.9133980  38.1391048  78.6186217  33.2164376  39.0161800
  78.6761080  33.6632245  37.5711727  46.2053246   9.8675269  87.2664642
  46.6277022   9.0243548  87.4304676  46.9308574  10.4740638  87.1183491
 109.7960168  51.9217348  79.7688150 109.2078191  52.5895405  79.4162655
 110.5588376  52.4120808  80.0752354  33.6046791  82.2912884  83.2446861
  34.2714024  82.7688122  82.7510357  34.1018915  81.7587566  83.8655090
  92.4484767  25.6373255  21.1166763  91.9055666  25.5695813  21.9020939
  91.9250001  25.2281325  20.4276371  60.1139046   6.3899891  20.4931355
  59.7423150   6.9630139  19.8224640  60.9791018   6.7589038  20.6708050
  14.6006703  85.4216099  86.7423153  14.5107806  84.5726490  87.1752453
  14.9681842  85.9955120  87.4144745  12.4549019  84.6930695  83.3320999
  11.6913092  84.2672634  83.7217808  12.1010756  85.4702950  82.8997135
  59.4048072  13.1584472  64.8660898  58.7397195  12.7264709  65.4020834
  58.9434720  13.4046763  64.0643597  79.7389401  80.3293603   1.8788528
  79.7188987  80.8310216   2.6938152  80.6226648  79.9631779   1.8446827
  87.8967012   8.4614174  14.2971897  88.1243862   9.0534871  15.0140190
  87.3196997   7.8111355  14.6977329  60.3466869  34.4234485  91.3329983
  60.6809903  34.7292441  90.4898167  59.7227121  33.7335605  91.1073017
   0.5594830  62.4107449  41.4773273   0.2680020  61.9172185  40.7107067
   1.0581474  63.1431859  41.1152554 106.7720582  72.5937073   6.7652130
 106.7581345  72.3379510   5.8429146 107.3596694  71.9621556   7.1800518
  45.2751137  38.3959859  16.7222118  45.9139706  38.6394875  17.3921394
  44.4503881  38.3051198  17.1994972   3.1747203  41.8562977  32.0025063
   3.9249520  41.8637364  32.5969124   2.4416546  41.5667813  32.5456619
  62.7046205  20.6759923   2.9554653  62.9761697  20.3220837   2.1085739
  61.7921056  20.9342568   2.8256607  62.2813440 103.8608860  21.8948269
  61.9029928 104.1393779  22.7288055  62.0589543 104.5637725  21.2843227
   7.0143799  52.5976365  26.9443607   7.2146563  51.6617863  26.9618034
   6.8159585  52.8171151  27.8546810  85.2500293  83.0690670  65.8841276
  84.7115466  82.3965740  65.4669714  86.1322400  82.6977921  65.8934498
  73.7347389  10.1624030  62.3999691  73.9439488  11.0181159  62.0254993
  74.4831301   9.9566573  62.9601526 101.4779021  32.1741002   9.0753269
 101.9192053  32.1824353   8.2259655 101.7329003  31.3399499   9.4695377
  71.4930392   1.0627955  87.3905277  71.8449713   0.4378528  88.0244255
  70.6285787   0.7171840  87.1680641  98.4650733   3.0458157   6.0027504
  97.5546266   2.8250687   5.8063126  98.8965942   3.0647509   5.1485443
  25.2359415   2.7874297  88.2045460  25.0924922   3.1635112  89.0730095
  24.4501687   2.2674579  88.0359459  81.5052374  65.8751767  16.0429096
  82.0947124  65.1452820  16.2326431  81.9950642  66.4261716  15.4324150
  40.8380175 101.8636131  67.7374697  40.8140755 101.8016529  68.6923599
  40.0738335 102.3943901  67.5126553  12.3060739  98.7583351  53.4407377
  12.0448804  99.5974731  53.8200331  12.7817023  98.9933109  52.6439953
  56.4047874  27.6949996  89.0269279  57.0816935  27.9968280  89.6326828
  55.8379794  27.1372718  89.5597458  55.8271742  91.4956284  89.2684460
  55.7851934  90.6296921  88.8627148  55.1201344  91.4923477  89.9136734
   2.3853426  46.0506814  41.4040852   1.8522815  45.3160946  41.7081642
   3.2375006  45.6623643  41.2059116  96.5852715  51.3941376  34.9569035
  95.7141019  51.3084023  34.5696735  96.5774871  50.7908623  35.7000256
  16.6162694  76.6195202  86.8036079  16.8319273  75.8745956  87.3646927
  15.9968483  77.1361589  87.3190117 109.4243933   1.6573947  37.9057407
 110.3680278   1.8098633  37.9561234 109.2976357   0.8023589  38.3169365
  34.5692468  73.7411022  80.6292534  34.2019963  74.6222448  80.6995964
  35.2891469  73.7306118  81.2600231   4.0319209  26.1532252  19.5134926
   4.6664529  26.8550294  19.6586800   3.2738070  26.5918772  19.1273880
  52.2272635  42.1042442  71.1496162  52.0069408  42.9736948  70.8153248
  52.9304314  41.7984533  70.5766582  26.2208891  92.7294350  85.7184601
  27.1304584  92.5702763  85.9706116  25.8807540  93.3077145  86.4011955
  93.5194398  33.9903920  27.6786613  93.0847456  33.1483643  27.8137875
  92.8351833  34.5593159  27.3260307  76.8917179  99.4840050  78.4526539
  76.4558649  98.8141251  78.9794588  77.7006578  99.6736717  78.9279127
   3.7334304  23.0557149  13.7857819   3.0277209  23.2846110  13.1809616
   3.6848359  22.1027033  13.8608646  84.7105242  31.4339345   7.4471664
  85.4583324  32.0267193   7.3721790  84.5717134  31.1097329   6.5573025
  45.8483982  86.5676594  89.6523762  46.2115526  87.4227333  89.8830223
  46.5032816  85.9393406  89.9566269  29.8946261  86.8990231  81.3266563
  29.8568106  87.6897335  81.8647766  29.0907025  86.9238186  80.8076954
  79.9613674  19.5916121  41.9075489  79.6854104  20.0229447  42.7162743
  79.2892529  19.8283618  41.2684536  84.2521204  56.5791504   4.9477100
  83.7187417  57.3649399   4.8281956  84.4716479  56.5781109   5.8793926
  28.2464261  22.5464362  90.6110668  28.6937083  21.7099017  90.7390690
  28.8690878  23.2016295  90.9260941   1.0888796  20.2270930   4.3880272
   0.9777693  20.7808249   3.6151981   1.1359458  20.8430188   5.1192188
  93.7037095  59.5636225  50.9745455  93.2798859  60.4036427  51.1505222
  94.1285560  59.6829939  50.1251411  32.9587889  86.7820835  82.4881649
  32.7302146  86.3238239  83.2968521  32.1508765  86.7794704  81.9748402
  88.1914569  46.7117303  21.3850117  87.4177767  47.2518914  21.2241364
  88.4506883  46.9255345  22.2812843  11.8477201  89.5870209  42.7990341
  11.6907036  90.4788017  43.1093645  11.1778605  89.4447231  42.1302509
 110.5594040  25.1867478   0.3229618 110.1020814  25.9828704   0.5936623
 110.1784612  24.9692290  -0.5278015  15.4452376  16.4872735  14.7097397
  15.3539328  17.4143975  14.9295902  16.0666089  16.4738076  13.9817619
  76.8859029  67.4184697  41.6760445  77.5536783  68.0125992  42.0185566
  77.3044263  66.9939225  40.9271622  89.6998228  76.1808102  43.5844707
  89.7661509  75.2299397  43.4968758  89.8204221  76.5123074  42.6946449
  33.4596638  72.2767632   4.9991417  33.3555512  72.8687375   5.7441044
  33.3464389  72.8363984   4.2308807  98.7915160  24.4331019   5.6857872
  98.6509992  24.7897332   4.8086929  98.1729962  24.9092095   6.2398529
  56.1282433  19.3015975  80.5240822  56.5873636  18.6045283  80.0555420
  56.7837120  19.9910850  80.6298923 109.2627360  65.2023881  22.0813751
 108.6387159  65.8805268  22.3401356 109.1678311  64.5224660  22.7484131
  42.7119357  27.3259086  82.7440739  41.8232638  27.6775569  82.7973461
  43.2058568  27.8234309  83.3957958  69.0288258   2.8996867  48.0823374
  68.1136609   2.7369422  47.8538179  69.1639567   3.8264102  47.8844547
  93.4951462  49.6278470  41.3798237  93.2189573  50.5421536  41.3166428
  92.7418210  49.1278260  41.0656357   7.4933772  71.1778538  13.8128948
   7.4738602  72.1292966  13.7099457   7.1523194  70.8402817  12.9846668
  98.5427094  17.4894828  59.1759157  98.6409617  16.8993587  59.9231386
  98.3411837  16.9120521  58.4395742  82.8462363   0.7268924  65.8612585
  82.1577216   0.8057803  66.5215302  82.6766301  -0.1145822  65.4377174
  28.9676404  41.2041283  70.4718590  28.0596828  41.5010834  70.4113579
  29.4798255  42.0104885  70.5325747  21.9273663  84.9443245  80.1405334
  22.5363278  85.6542110  80.3441525  21.4619088  85.2445698  79.3598700
  66.5243173  21.7244643  45.5469418  67.1133447  21.7036647  46.3011599
  65.8397270  21.0903377  45.7601357   2.7367978  36.1135285   6.3984776
   3.5289673  36.6495507   6.3613796   2.0567088  36.7122548   6.7070675
  63.4709550  14.2074508  66.2842321  62.7770854  13.7213725  66.7297745
  64.1793347  14.2562789  66.9261408  28.4426598  57.3229210  18.5317039
  27.7269892  56.9394200  19.0386295  29.1038565  56.6320317  18.4902382
  27.8495598 100.9492779  71.6287374  27.5020504 101.7716789  71.2836075
  28.0271530 100.4194164  70.8515978 106.7288662  37.6552384   8.2704449
 106.6228200  38.5541813   8.5817337 105.9277298  37.4761670   7.7781582
  30.4778099  82.5177383  85.3899860  30.0476503  81.8021679  85.8581161
  30.3753495  82.2944927  84.4648457  90.0501776  30.4067630  59.8063374
  90.1187564  30.3782958  60.7606506  90.9197856  30.6773204  59.5116854
  22.4621701  87.0650196  58.2197857  22.3011088  87.7354431  57.5558376
  22.8106594  86.3207436  57.7290201  64.3569995   5.5302257  83.2676506
  64.2369676   4.6424312  82.9305363  63.5362364   5.7281798  83.7186337
  54.5488548  99.2491245  51.2290621  54.0450621  98.6076355  51.7299700
  55.3650284  99.3482876  51.7192316  84.5699634  71.8948739   6.5040493
  85.4223730  72.0963090   6.8901253  84.1987534  71.2256425   7.0789909
  34.7182421  84.4240277  45.0241089  34.1059022  85.1255219  45.2458382
  34.6009450  84.2921822  44.0833187  97.9324461  40.1094239  11.7622757
  97.5256492  40.6097787  12.4696636  97.6284338  39.2120068  11.8981171
  54.1015577  91.6276646  80.0750828  53.6636400  90.8316612  79.7736883
  53.6028242  92.3409176  79.6766233  40.7695727  77.8578656   9.4193649
  40.7854180  77.5989144   8.4979916  40.4940514  77.0684331   9.8853207
  99.1557218  26.4019721   9.8591423  99.3492486  27.3265832  10.0136662
  99.6208550  26.1920064   9.0493298  85.5723239   8.7292975  77.4730825
  85.6126405   8.1189078  78.2093143  86.4685727   8.7604255  77.1384192
  71.2533141  26.1867446  88.5831261  71.6025854  25.6506557  89.2950630
  72.0280338  26.5547484  88.1581306  21.5791611   9.5753520  32.2036076
  21.9316153   9.1798728  33.0008507  21.4567809  10.4978554  32.4277592
  16.2201858  93.1842709  66.3349438  15.6009257  93.8846970  66.1296034
  15.7430065  92.3778057  66.1396313 107.2629477  23.2112496   4.6729851
 106.5927316  22.5286524   4.6397495 107.4942161  23.2749264   5.5996418
 100.1191403  87.5897114  19.2493153  99.4645525  88.2854073  19.3105125
 100.9591033  88.0471127  19.2877579  92.6579989  25.0156205   1.4836025
  93.3390547  24.3642275   1.6511726  92.9496671  25.4690545   0.6926727
  98.4009358  82.2856998  79.5177174  99.0570721  82.4818325  78.8489532
  98.5703191  81.3752079  79.7596931  54.3248869  18.7387198  88.3147717
  54.2230654  18.2099742  87.5233841  55.2718533  18.8141936  88.4322071
 103.8035037  65.7731907  52.7381611 104.0689303  65.8310025  53.6560059
 103.5249616  64.8642914  52.6261711   7.4024755  60.0875902  57.4896955
   6.5314615  60.4086256  57.7231503   7.3396528  59.8811674  56.5571308
  18.3482937  53.2564061  13.4054184  17.8495078  53.8759701  12.8729057
  18.3680062  53.6514275  14.2770863  53.4373760  88.9016438  72.6297903
  53.3961582  88.7112713  71.6926193  52.5246906  89.0289307  72.8887033
  50.4396022  25.2449721  87.8016281  50.3754891  24.4287604  87.3057175
  49.6322704  25.7154292  87.5939846  27.3778653  87.7922440  75.5803537
  28.2558298  87.8356838  75.2015066  26.7961383  87.6959038  74.8263359
 105.1601077   1.7749709  37.9561901 105.0037099   0.8918494  37.6217270
 104.2932416   2.1803874  37.9765296  80.3999676  62.8819268  32.8931236
  80.4406996  63.2425015  32.0073700  79.7975017  62.1414368  32.8227997
 100.4282333  29.3264191   4.7236538  99.5002390  29.3949692   4.9480534
 100.5884625  28.3854478   4.6520519  31.5909774  96.5728258  37.4324036
  31.1518217  97.4047302  37.6093388  31.2835193  96.3200782  36.5618801
  76.8996641  46.1443567  81.5046406  76.5968820  45.2786493  81.2305832
  77.8046057  46.1903524  81.1960983  20.3557420  69.4242811  52.0435762
  19.4676983  69.2977333  51.7095184  20.3404689  70.2951431  52.4405622
  14.3339932   5.1674336  89.3078995  14.9501991   4.5087007  88.9875984
  14.8359001   5.9824771  89.3130302  10.8683325  75.6853055  10.9876823
  10.2525235  75.2914213  10.3697300  11.7002822  75.7084488  10.5148602
  55.5090846  13.8626330  10.0535774  55.6815149  14.7577660   9.7616386
  56.3190509  13.3888524   9.8645878  18.2812751  92.7430509   4.9925995
  18.6654056  92.2738241   5.7332039  18.6468483  93.6256527   5.0526237
  86.7718479   1.3644780  52.3660994  86.4156076   0.6622870  51.8218088
  86.8652698   0.9710695  53.2337046   3.1467211  67.3434544  69.6215630
   3.4658504  66.4433384  69.5569086   2.4015236  67.3770332  69.0217447
  28.6919355  56.5214825  60.2864408  28.9045548  56.5567780  61.2190580
  29.4407654  56.9323111  59.8543501  69.3294693  99.5392774  48.4179974
  68.8710428 100.3263973  48.1238556  68.7342978  99.1380190  49.0512371
 100.9056863  70.0102186  77.5513077 101.2007067  70.8217764  77.9643106
 100.7390246  70.2519464  76.6402531  18.6283779  22.4428511  73.3614254
  18.3995366  23.3697939  73.2932901  18.0839145  22.0126414  72.7020979
  48.6855174 101.5373777  18.7567425  49.5525862 101.4834665  18.3548546
  48.8583351 101.7714857  19.6686363  31.0648060  69.4474173  52.8196478
  31.8013835  68.9775419  52.4286175  30.4662681  68.7579203  53.1070137
  18.1443644  61.6993904  91.1063194  17.9632425  60.9393120  90.5534077
  18.2601535  61.3350677  91.9838619 110.0377278  37.1886992  76.1085081
 110.2401376  36.2651157  76.2576962 110.8927761  37.6110697  76.0264921
  18.7586217  37.2936242  10.3945160  18.0691962  37.2640412   9.7311497
  19.5544057  37.4992077   9.9038982  73.0931780  16.7879510  62.5686836
  72.2067997  16.8801105  62.9180717  73.0612013  17.2229612  61.7166424
  38.6078024  58.9116144  62.8191233  39.4003057  58.6575413  63.2920074
  38.9128160  59.5304728  62.1556425  97.4826846  50.2497625  55.5240107
  96.7751762  49.6284819  55.6962729  98.2815239  49.7693777  55.7415390
   1.2610091  43.2971287  74.4503117   1.4383195  42.3705149  74.6121120
   2.0513576  43.6202335  74.0176630   3.7289599  51.3711071  62.5792313
   2.8889003  50.9123182  62.5724697   3.7039638  51.9280529  61.8011475
  79.9215056  27.0049040  10.2816582  80.1182635  26.7894929   9.3700027
  80.6899799  27.4884503  10.5847359  34.0759832  89.7064184   9.1519547
  34.1448123  90.6045745   8.8282108  34.7207055  89.2174409   8.6406231
   4.3248227  10.1575267  49.4474697   4.6700871   9.3252879  49.7705841
   3.4315652   9.9545908  49.1697311  18.7376583  52.2489214  72.5111914
  19.5190072  52.3092222  71.9615650  18.3357120  53.1156206  72.4519920
  11.9937992  47.0903492  86.4404488  11.1232877  46.7885876  86.7000198
  12.0302629  47.9997969  86.7367649  11.5974224  50.2149677  73.8284540
  11.7639732  51.0582733  74.2495537  12.4613178  49.8094606  73.7544203
  28.3516932  44.9829149  75.6739283  28.0482364  44.4416189  76.4027214
  28.1160545  45.8761358  75.9246588 101.8539903  35.0559950  80.3748894
 102.1606681  34.9443746  79.4750500 102.4257824  35.7308054  80.7408428
  54.1971088  99.6986745  22.3043633  54.6903301  99.2776178  23.0084038
  53.8204778  98.9720319  21.8080044  98.9286019   8.4499877  10.6061172
  98.1728961   8.3521073  11.1853886  98.5647298   8.3788817   9.7236347
  11.9905651  34.3159795  82.9695511  12.5992024  34.4186306  83.7011623
  11.1278903  34.2644238  83.3810997   6.0801870  45.1810312  58.8485289
   5.9678775  44.6807623  58.0402279   6.8925881  44.8450994  59.2271948
 103.7544444  71.5355921  82.9165840 104.3222240  72.3060846  82.9306793
 104.0299436  71.0492373  82.1395493  38.5476167  89.7787617   7.2499466
  38.3148643  88.9076613   6.9286346  38.1037942  90.3808473   6.6526604
  31.8548059  33.0640483  75.1350403  31.0525274  32.6736498  74.7883844
  31.9715905  33.8650012  74.6240950  98.0015144  64.3722296  84.3801785
  98.5588762  63.7483883  83.9149952  97.3675355  63.8264227  84.8453712
  90.8937809  43.1879711  54.5611763  90.5109379  42.3533821  54.2907619
  90.1733133  43.6566591  54.9824715  23.7088203  64.1106987  52.7570200
  22.8541946  63.8834047  53.1233263  23.9990211  63.3135843  52.3135996
  61.2739254  96.6892074   9.6020508  60.7223869  96.8188976   8.8305473
  61.5914989  95.7898687   9.5209980  74.9915621  36.4176583  82.4939728
  74.0475175  36.5719652  82.5286484  75.3759262  37.1904254  82.9078865
  34.7742964  67.8078555   0.4233742  34.7384623  68.2273685   1.2829971
  35.2512104  66.9918524   0.5747795 102.2867206  48.4158087  79.4220304
 103.0461368  48.0481529  79.8740768 102.6524606  49.0883303  78.8474131
 108.1354854  54.7040415  44.2512798 107.7373740  55.1559830  43.5073137
 108.5450056  53.9279747  43.8688517 109.7136231  58.6468601  64.3463373
 110.3271520  59.3483686  64.1279364 109.2767113  58.9499521  65.1422501
  52.1521104 102.6813768   2.2231007  52.1789230 101.9696020   1.5836620
  52.1127880 103.4777616   1.6935158  97.0007226  51.1764002  89.5516396
  97.1009299  51.4560556  90.4615688  97.8970763  51.0977173  89.2251492
  30.6703401  87.3501466   4.6244907  30.9795100  86.4487671   4.7148323
  29.7257961  87.2950505   4.7695160 102.2512451  31.9033647  55.6092024
 101.7206749  32.3568058  54.9541283 101.9975552  30.9839535  55.5282354
   5.5027473  39.5566130  85.3883743   4.9747869  39.8807216  84.6586800
   6.3861281  39.4776487  85.0283241  14.3409014  65.4493295   2.6083946
  15.1733208  65.4131816   2.1372318  14.5900584  65.5031978   3.5310268
  20.9094787  48.1002140  58.1291676  20.9360838  48.9782715  57.7489853
  20.6049967  47.5394249  57.4157000  42.2594092  65.3524409  14.5962524
  41.8965364  64.6739577  15.1656532  42.7442599  64.8694156  13.9270496
  20.9422410  74.8849152   0.8926487  20.6565500  75.6740664   0.4323673
  20.2817560  74.7518538   1.5725613 111.1895474  45.0509453  89.7212124
 110.7720162  44.4639969  90.3516006 111.1942814  44.5573616  88.9011002
   5.7352310  12.3730862  90.2165604   5.3020591  11.5196216  90.2027607
   6.4758259  12.2755039  89.6180439   3.6935225  58.5417557  46.8413591
   3.8004440  59.3913937  46.4136696   4.4362080  58.0229282  46.5323830
 100.9959194  19.2339265  87.1531582 100.3421363  18.5807145  87.4023914
 100.5408904  20.0719643  87.2360802  11.0121632  64.8769569  42.9767656
  10.4050398  64.5143414  43.6218596  11.3741899  64.1108799  42.5314665
   0.0537201  35.9116673  59.8818684   0.5187153  36.5488291  59.3396139
   0.7099808  35.2447414  60.0837660   8.3781368  30.6515360  57.0342255
   7.5808471  31.1491394  56.8526983   8.2711303  29.8389649  56.5397453
 111.5583663  60.5305386  88.2027149 112.4999110  60.6001186  88.0449677
 111.1903949  61.3214254  87.8085899  11.2488258  64.7201872  54.5354509
  10.5603302  64.0552092  54.5383644  11.8824184  64.4117928  55.1832819
   2.9636583  55.5523729  72.2602081   2.4854314  56.0906935  72.8908777
   3.3168590  56.1795235  71.6292048  31.5648007  75.4931545  74.7638178
  31.1785054  75.7448196  73.9249659  30.8268714  75.1675701  75.2792645
 110.2827764  46.2060928  83.1254673 109.3773089  46.1878252  83.4353447
 110.6423059  45.3581572  83.3861828 100.5874440  49.1349983  50.7391644
 100.6581029  49.8718357  50.1322794  99.6538672  48.9240503  50.7521200
  78.6382501   6.7880242  27.6594925  78.2919134   7.0350115  28.5169792
  79.5051111   7.1925538  27.6257324  96.8704960  46.3247585  70.2888775
  97.2862038  46.3901615  71.1486101  97.2258005  45.5199766  69.9116325
  29.7125108 104.3108867  20.0586987  29.6866853 103.9172147  19.1865826
  29.2186261 105.1258396  19.9683285  10.5724835  30.2267528  76.9634533
  11.4092159  29.9948549  76.5605450  10.0503433  29.4263697  76.9087887
 106.2415411  34.3705170   1.0137367 107.1377398  34.1904061   0.7298088
 106.3254692  35.1077740   1.6184235   0.3010026  50.6739998  84.8936558
  -0.0427080  49.8988867  85.3378296   0.8843736  50.3249502  84.2198086
  25.2074051  54.7638559  32.4018526  25.3372622  55.0239801  31.4898729
  25.5995464  53.8926458  32.4605823   6.3529938  16.4209270  59.9678612
   6.6480273  16.8111682  59.1451263   6.9755280  16.7401218  60.6211615
   8.0847168  37.0359969  85.7992458   8.8599861  36.5520549  85.5146599
   8.2317317  37.9288340  85.4870605  85.7522488  96.5301965   0.4819584
  85.9319211  97.1472620  -0.2273941  85.0037480  96.9077180   0.9439754
  96.5587088  77.5195599  79.2058229  97.1782991  78.0709171  78.7279701
  96.0564300  77.0758629  78.5223866 106.9116077  10.5248713  65.1480436
 107.3698327  10.2131712  65.9284973 107.3427296  11.3515508  64.9313307
  33.1901979  24.9501085  57.6151466  34.1356444  24.8019409  57.5949335
  32.8634572  24.5203424  56.8247223  18.1304395  70.8352327  79.2825270
  18.3673537  71.2279844  80.1226711  17.6641583  71.5293312  78.8166523
  69.7682954  95.8611845   1.5475464  70.3271724  96.0030912   2.3115826
  68.9453650  95.5334352   1.9103050  97.8192402   5.8675807   5.0475788
  97.7737905   6.7731183   4.7407055  98.7438346   5.7307952   5.2540970
   9.2320061  27.2384572  90.8972263   8.4566951  27.2499824  90.3359890
   9.9622029  27.4021816  90.3003693  22.9971528  39.6069789  58.3579302
  22.9633522  40.3262091  57.7272177  23.2646632  40.0205326  59.1786861
 109.3689261  42.7931261  65.9810352 109.8327067  43.0575418  65.1865387
 108.8920987  43.5775232  66.2523079  10.1911306  63.2672930  83.7233353
  10.3396511  64.2088175  83.8110924   9.5478398  63.0620337  84.4017696
  63.0667759   9.5171349   2.5429153  63.4738781   9.5006364   1.6767597
  63.2691123  10.3874772   2.8861332  40.7088375  26.2944818  90.2600956
  40.3990841  25.8853269  89.4520950  41.1608744  25.5914116  90.7265568
  14.8188174  34.3727064  56.7413235  14.4465685  34.6228957  55.8957052
  14.8471391  33.4162354  56.7169857   3.7808803  94.2836736  20.0788212
   3.1972984  93.6822628  20.5413914   3.2672314  95.0849317  19.9769211
  36.0867500  20.9911847  47.7752399  35.2842212  20.5923724  48.1115818
  35.9177828  21.1187840  46.8417501  88.2425369  53.6735528  16.2499905
  87.6687624  53.4811013  15.5083847  88.3922876  54.6175473  16.1983013
   4.3660259  59.3757820  72.1199560   3.8546699  58.5836220  71.9549608
   4.1386452  59.9622536  71.3984394 106.3200244  50.7935762  79.0212440
 106.5230659  51.4552259  79.6824741 106.1952522  49.9864578  79.5204639
 108.8770971  67.1038198  73.3093214 108.6917326  66.8211555  74.2048502
 108.0149147  67.1953154  72.9037333 102.6559469  53.8924742  75.0877285
 102.7145889  53.0231524  74.6914053 101.7908666  53.9112520  75.4970121
  51.1186732  68.6237870   9.8335457  51.1862815  68.5491167  10.7854271
  51.9678963  68.9701651   9.5595455  56.1416770  90.0597046   0.0856113
  56.4982486  90.7889913  -0.4215717  56.3560034  90.2722643   0.9939671
 101.3648130   5.2524989  21.0514164 102.0533396   5.7222264  21.5220737
 100.8338310   4.8526185  21.7401791   8.7680382  85.4857826  43.7044334
   9.0814084  84.5840454  43.6343575   9.5556819  86.0211945  43.6086130
  95.8842422   2.1558612   5.3482342  95.5386044   2.4878495   4.5196533
  96.3120462   1.3316147   5.1162243  22.5880766  57.0920324  57.1833515
  22.9670668  57.6466513  57.8652573  23.1085801  56.2891912  57.2108364
  87.9624721  33.6860299  59.1258335  87.2732231  33.7500286  59.7869492
  87.6011392  33.1022406  58.4588575   9.7523618  55.7115078  60.0839567
  10.4555118  55.2027655  59.6802330   9.8104411  55.5025673  61.0162687
 104.2495343  40.2503347  90.3263187 104.3247250  39.2971182  90.3705692
 103.3303699  40.4083443  90.1109123  20.2256775  42.0228529  61.6591406
  19.7447646  41.2052965  61.5304756  19.6202755  42.5829315  62.1449709
   2.2026339  45.5630541  89.4352531   2.3859158  45.9514999  88.5798264
   1.2623370  45.3845549  89.4207382  22.4286092 101.6773580  24.0355396
  22.6766957 100.9447740  24.5994663  22.2268761 101.2725900  23.1919193
  96.6580448  21.2781930  34.4058323  96.1315224  21.8547988  33.8521791
  96.0256144  20.8725166  34.9988675  24.2931200  99.5611499  54.7608471
  24.9413074  98.9657615  55.1371479  23.5152972  99.0182565  54.6324444
 108.2192913  41.3239431  75.1925087 108.6715418  40.5371571  74.8880959
 107.6654208  41.0189247  75.9111357  90.3032538  72.3028517  81.6448593
  89.8082396  72.4413395  82.4523354  89.8001286  72.7636480  80.9734726
  27.6984132  87.6993726   5.2907562  27.7177352  88.5196828   5.7836533
  27.0302428  87.8388523   4.6196938  18.6277688  77.4970912  38.1395912
  18.6359049  77.1904491  37.2328758  18.8410760  78.4282802  38.0794430
 105.6060483  16.5780394  10.4460049 106.2301923  16.4508002  11.1604881
 105.0162198  17.2623818  10.7622433  50.7011760  73.0418180   9.4566727
  50.4689813  73.7806891  10.0191593  51.5785778  73.2511042   9.1363716
  97.9091343  99.8117924  86.1067677  97.8872988  98.8615990  85.9932613
  98.1210849 100.1520348  85.2375507  15.7271302  34.0423822  91.2420177
  15.4585814  33.8576555  90.3420258  15.5749094  34.9812722  91.3494682
  48.7086821  48.4511328  76.8681192  48.8700628  49.1645432  76.2506819
  49.4808245  48.4446859  77.4337959  96.0623385   1.1765568  14.0933800
  96.9375254   1.3224738  14.4525242  96.1619569   1.3231366  13.1527328
   0.8007480  47.1897411  72.3440838   1.6693258  47.4790287  72.6235819
   0.2012333  47.5869608  72.9757738  95.9800865  14.0369694  15.5876923
  95.1053740  14.3011563  15.3025436  96.5471174  14.7614997  15.3235722
  63.3483148  80.2746867   1.4750767  62.7535916  81.0043429   1.3014698
  62.8283358  79.4926308   1.2900352   8.2575279  20.6698322  87.7433491
   9.1748428  20.7481766  87.4813843   8.1772959  19.7734904  88.0694866
 103.2251301  67.6786470  70.3846121 104.1171995  68.0229092  70.3406763
 102.7480248  68.3167124  70.9151554  83.8757583  14.9012077  60.1099634
  83.6168787  14.3154001  59.3985987  84.8151299  14.7501326  60.2148008
  43.8318557 101.0113405  13.2235718  44.5680470 101.6023849  13.0657005
  43.6675633 100.6012701  12.3744011  58.7497403   9.6261256   3.5776520
  58.4529318  10.5208247   3.7439156  58.3715869   9.4024651   2.7272320
  32.3818874  61.2426996  47.0264673  32.9334235  61.4325857  46.2675333
  32.5413823  60.3174925  47.2129726  17.8242457  56.8999720  62.3812675
  18.6432588  56.6367245  62.8009701  17.3283005  56.0861158  62.2923422
 107.6720208  75.6012487  57.1124744 106.9961086  75.0520754  56.7152548
 108.0654356  75.0470018  57.7864695  97.4601254  95.0709248  51.4205980
  96.9927415  94.2385674  51.3501596  97.0501873  95.5136681  52.1636724
  35.6519151  89.6664047  86.2822247  35.6734347  90.5992699  86.0688591
  35.1375437  89.2714882  85.5781651 103.4534946  66.3863182  75.8671713
 103.0293497  67.1702719  75.5182409 103.9249614  66.6935921  76.6414690
  95.6109294  53.7473202  56.1834908  96.0658297  54.0286160  56.9773245
  96.2620470  53.8414621  55.4882097  15.5483258  61.6148090  70.9297037
  15.9255767  61.7827225  70.0661564  14.9916315  62.3746824  71.0997486
   4.2099452  56.8175840  63.9197683   3.3759785  57.2808933  63.8418293
   4.3237215  56.3851738  63.0734205  25.0919700  28.5528016  77.4986696
  25.4805541  28.9976692  78.2518816  24.3789554  29.1284561  77.2221422
 109.3945076  79.8479986  80.6185913 109.6108176  80.0352955  81.5320206
 110.0098437  80.3790092  80.1130009   7.6984870  29.5980763  63.9025211
   8.0314076  30.4670882  64.1266012   7.8490233  29.0737653  64.6890736
  49.7780848  84.1176008  10.7736683  49.5383132  84.8959087  10.2707005
  49.2925156  83.4049653  10.3582096  25.0213313  46.2603712  73.8133430
  25.8533525  45.8253479  73.9997053  24.4061255  45.5438614  73.6572361
  29.4693303  78.1902885  67.2298574  28.6988997  78.3889198  66.6976833
  29.1125536  77.9135323  68.0738640  48.8763273  88.9263915   7.0527554
  49.1324497  88.4295820   6.2757015  49.4653857  89.6808432   7.0595932
  13.5769355  35.9939575  65.8997107  13.8660586  35.1071596  65.6847000
  12.7758610  35.8680010  66.4082813  92.3076889  29.1544724  69.1812468
  92.5487885  29.7945571  69.8508739  92.4871513  28.3056521  69.5856333
   9.2142111  38.3898067  70.4544783   8.3490145  38.7987494  70.4336500
   9.5602304  38.5162640  69.5710087  25.9310330  79.0170907  16.1176109
  26.3577832  78.2098697  16.4048576  26.0269857  79.0129303  15.1652336
  91.9110188  51.3313246  90.1586533  91.8710372  51.2600660  91.1123562
  91.5132377  52.1801519  89.9650097 106.7676696  32.9643989  76.3150501
 106.9628850  33.8664103  76.5690136 107.1615940  32.4306846  77.0051241
  98.8307477  22.6946299  19.2077541  98.8124730  23.4013741  19.8530483
  98.9289571  23.1407969  18.3666039  96.8740806  45.8654881  90.5549240
  96.7604408  46.7436552  90.1914215  97.1948776  46.0141325  91.4444351
  57.0124472 104.6215414   4.8742962  56.6727794 104.6729206   5.7677269
  56.2478615 104.7718118   4.3183708  99.4067384  19.2196791  28.0241680
  99.3649150  19.1395466  27.0712376  98.5261680  18.9920752  28.3225346
  23.9688099 101.6098999   4.0626907  23.8918508 101.5295719   3.1119728
  23.1827093 102.0877813   4.3270874   3.9280853  91.9228840  63.3594036
   3.5403225  91.1183643  63.7038279   4.6382278  92.1261978  63.9681721
 111.0152099  45.1156902  56.8131590 111.0750374  44.6499109  57.6472473
 111.0616322  44.4267559  56.1502504  86.4833280  46.8329191  76.4169693
  87.2509786  47.0905876  76.9274139  86.1301777  46.0743618  76.8818426
   0.8704519  76.4460802  67.4481440   1.6438127  76.2713861  66.9118357
   0.1375670  76.1228609  66.9240808  48.8576651  92.3247242  54.7874260
  49.1421509  93.1861115  55.0928783  49.4470978  91.7093086  55.2233934
   6.2069684  48.8546228  57.1933317   5.2703291  48.7607574  57.3669052
   6.5898305  49.0557384  58.0472660  62.8551818   0.3232758  36.8278980
  62.5794031  -0.1059253  37.6378155  63.7746216   0.0768225  36.7272949
  19.2827392  71.9726610  76.5159845  19.6007442  72.4554157  75.7530594
  19.1528606  71.0795021  76.1971903 103.8771126  67.2988224  61.6003847
 103.3946088  66.6675234  61.0666418 104.6913382  66.8489552  61.8259621
  50.1503660  10.2520220  16.4258385  50.3771426   9.8859112  17.2806931
  49.3520428   9.7893040  16.1712646  25.8033037  38.9041615  61.1577129
  25.2431893  38.1642175  60.9232187  25.3333497  39.6724677  60.8335495
  92.1014382  29.1583722  18.2113457  92.1677448  29.6430962  19.0340805
  91.2407114  28.7411778  18.2478523  10.2696919  44.6653414  42.2553396
  10.8261359  45.3330517  41.8543863   9.9877638  45.0541401  43.0833387
  53.0173672  91.6981052   3.1118774  53.3082903  92.5212501   3.5043430
  53.2035745  91.0362552   3.7778473  35.6937648 103.0281900   3.3765984
  35.5765635 103.7669967   3.9738083  35.9029900 102.2892402   3.9479256
  17.0859170  74.6820784  65.3334951  16.4186954  74.9197197  64.6896219
  17.8681004  74.5011854  64.8122501  22.3337960  55.9248877  86.3445187
  21.9206738  55.8804512  87.2068405  22.0047188  55.1545858  85.8813000
   6.8696487  50.9487247  80.3283119   6.7550170  51.2092495  81.2422180
   6.0194790  50.5906773  80.0728893  73.2136318  72.2938061  68.9215994
  73.0861685  73.0844021  69.4459581  74.1634938  72.1813965  68.8847589
  62.1079445  45.0939608  85.5848980  61.4289951  44.8306179  84.9636841
  62.3743916  45.9658098  85.2931404  30.1078963  39.0491581  87.4807262
  30.5152011  38.2192636  87.7289486  30.8054471  39.6972036  87.5791740
  14.0335870 102.6684952  78.5587502  13.0783808 102.7204323  78.5253286
  14.2131603 101.9371033  79.1495562   4.3526265  44.4935560  45.2726078
   5.1011682  44.6063709  45.8584356   3.6645681  44.1305780  45.8303356
  18.5625899  44.9924326  85.4021358  18.0868232  44.5258617  86.0892963
  18.5152948  44.4125652  84.6420383  87.3846909  24.3920207  62.7008724
  87.0749733  24.6938133  61.8469238  86.6700575  24.6010470  63.3024025
  16.4931858  75.5400705  81.5373802  17.3611033  75.7968712  81.2259293
  16.3127208  76.1374807  82.2631645  63.9719345  18.1328623  10.5419731
  63.7567760  18.7253707   9.8216438  64.8277385  17.7731125  10.3087044
   0.0104596  44.1239023  83.8544464  -0.3756774  43.3741951  84.3072891
   0.4915465  43.7393332  83.1217194   2.7553248  58.1161308  85.3889847
   3.0419108  58.1549644  86.3014412   3.2530475  57.3904514  85.0122833
  14.3691231  75.2785109  14.3257713  13.9582849  74.7624014  13.6321735
  14.0906025  76.1776923  14.1521931 107.0189454  32.9106038  16.7068005
 106.8093492  32.1575921  16.1542797 107.7591874  33.3304970  16.2686729
  98.5594234  52.3994350  67.3255253  97.6317200  52.1897459  67.4333572
  99.0156445  51.5869141  67.5443888  16.4166272  33.6318898  17.9901075
  16.1955905  33.3681655  17.0968974  16.4108908  32.8152037  18.4893298
  10.1890039  89.7474957  33.4005117   9.9030477  90.2041817  34.1916513
   9.9793684  88.8282394  33.5655928 108.8973504  98.3287334  63.1493855
 109.4229016  97.6359749  62.7492428 109.4044405  98.6030102  63.9134932
  11.7554224  38.0952287  48.3964586  10.9036756  38.3737397  48.0600214
  11.5781522  37.8143835  49.2941952  28.5540557  48.6375713  83.5275078
  29.4989347  48.5765171  83.3871269  28.2188940  47.7759647  83.2794476
  77.3408553   4.5799553  64.5871973  77.7968237   3.8043019  64.9138260
  76.4222285   4.4293702  64.8100901  39.6538639  69.3460703  51.9306517
  39.1995764  68.5380554  51.6919804  38.9650321  69.9161577  52.2723341
  50.6299926   3.9900582  14.9935341  50.9377147   4.6319144  14.3535709
  50.2307464   3.2982962  14.4659996  10.2041531  18.4283364  84.3388271
  10.0338101  18.4797549  85.2793407  10.4739666  17.5215197  84.1935062
  85.8568069  64.7395134  44.0103006  85.5135724  64.4785833  44.8648977
  85.2453038  65.4075384  43.7003994  13.2011807  60.2294350  69.6981573
  13.7788546  60.7532835  70.2532339  13.7814593  59.8529959  69.0364885
  21.9305778  54.2264509  79.2270088  22.1277452  54.7925472  78.4807587
  22.1885538  53.3510447  78.9383173   7.4176776  63.3855152  78.5796547
   7.9618889  62.8391171  79.1466808   6.9816709  62.7648830  77.9957485
  11.2589777  55.9723091  66.4897823  10.4638970  55.5772305  66.8475437
  10.9634793  56.7959499  66.1018038   4.9669421  47.5099802  85.6130981
   4.5141968  47.8331184  84.8340988   5.3760701  48.2878399  85.9922791
  11.3182878  31.4811301  85.7830429  10.6767869  31.0144424  86.3186836
  11.6673052  32.1580815  86.3628292  10.8381319  66.2170076  83.1044674
  10.4603183  67.0905638  83.0025291  10.7120967  65.8005524  82.2518730
  59.3035818  96.3426183   4.0011978  59.8100997  95.7083295   3.4939098
  59.8369432  96.5082573   4.7785759  64.2516805   3.1245654   7.9776764
  64.4922365   3.9463942   8.4054184  64.2210020   3.3397668   7.0454884
  98.6575827  62.9779530  87.0814896  99.4862530  62.5143719  86.9605255
  98.8968930  63.9046049  87.0648861  11.4794660  37.2210860  84.9335003
  10.8875668  36.4691424  84.9117947  12.3408842  36.8428111  85.1098537
  45.2085829  36.1980867  57.9937029  44.7739029  35.3752232  57.7697039
  44.5052576  36.7594028  58.3200312  99.5698914  65.1547623  69.5694399
  99.0337405  64.3647623  69.6378040  99.4534025  65.5967951  70.4104328
  19.4497109  75.2685045  23.4152412  20.2362872  74.7473000  23.5760975
  18.7957133  74.6321605  23.1261253  97.9512455  54.0333741  23.5359287
  98.1643011  54.8381322  23.0634975  97.7600743  54.3228238  24.4280624
 105.7173611   1.4804928  16.5934849 105.4821040   0.9029572  17.3196602
 104.9528100   2.0449298  16.4789867   1.9000663  55.8897209  87.7618790
   1.5531890  56.0423708  88.6408520   2.7375156  56.3531780  87.7510452
  80.6046864  80.7756996  86.2900448  79.6801493  80.5636883  86.1615276
  80.8987758  80.1649380  86.9658470  27.0896363  33.8779402  59.8165321
  26.5182424  34.2584300  59.1494751  27.4497223  33.0928564  59.4039679
  25.8183015  97.7565406  10.8198738  26.7016340  97.8823207  10.4732609
  25.2407158  97.9734253  10.0880337  11.2683868  68.9597464  58.5639668
  11.8543696  68.2238102  58.3871651  10.9731710  69.2440176  57.6989412
 107.3640372   4.2640917  27.2513771 106.9710161   3.4670918  27.6071262
 106.9211532   4.9761670  27.7129364  94.1981599  50.9402514  38.2375741
  94.9680015  51.4769554  38.4260488  93.6965498  50.9463120  39.0527940
  17.0262802  25.5328441  53.1484222  16.3177335  26.1751175  53.1893969
  17.0345783  25.1296616  54.0165281   5.7199389  42.6934624  69.2575502
   5.0733823  43.1934929  68.7593842   5.3075337  41.8410587  69.3974161
  47.3427629  31.1359143  46.5775871  47.9873323  31.7051005  46.1571264
  46.6278172  31.7234802  46.8222332  21.6866779  63.8210917  88.0512333
  20.9259725  63.9844370  88.6087990  21.3326263  63.3558989  87.2932911
  87.1471228  28.1253426  16.5351963  86.2871052  27.8201859  16.2462616
  86.9820584  28.9934437  16.9031429  88.9521123   1.6588490  19.2090893
  89.6919121   2.1715062  19.5348358  88.4290029   2.2847645  18.7082672
  23.1683207  79.9846125  31.1297059  23.4012198  79.4614077  31.8966746
  22.2148371  79.9196625  31.0760164  36.6614962  22.6412940  86.9633961
  36.6270852  22.7587175  86.0140514  35.8778501  22.1320605  87.1703148
  54.0758110  83.2118248   2.0226383  54.1269351  82.4935793   1.3919640
  53.5032094  83.8559555   1.6061592   0.5820911  39.0599203  60.6623697
   0.1840877  39.0593314  59.7918367   1.4218101  38.6164784  60.5421114
  66.2377120 103.3085703   2.3868561  65.4853965 103.8688491   2.1962357
  66.0810638 102.9916786   3.2763863 109.7222194  10.4420567  77.4082232
 110.1300839   9.7429127  76.8972635 109.1930205  10.9251082  76.7735243
  98.1734373  21.4191239  23.2583237  97.4453832  21.6306679  22.6740074
  97.7767278  21.3727992  24.1282082 104.6388246  26.7448609  19.3906307
 104.5389296  25.9842532  18.8181496 103.9416863  26.6494124  20.0395679
  29.9805529  90.9780811   8.2842350  30.6068004  90.3452633   7.9326916
  29.1759808  90.8181809   7.7909565 104.6211150  69.5073795  81.0592937
 105.4538247  69.2329741  81.4433861 104.6761742  69.2299557  80.1448345
   1.5724973  26.9234507   7.2264194   1.2015943  27.4626248   6.5278816
   0.8449845  26.7828505   7.8323841  37.5688231  70.1426016   2.0775986
  37.8509704  70.0969123   1.1640739  37.1642943  71.0061561   2.1604347
 105.0948152  18.2742262  73.6746883 104.3926039  17.6585829  73.4646559
 105.7406619  17.7488244  74.1469860  72.5418950  74.0085553  10.4446316
  71.7613436  73.5836099  10.0891113  72.2026253  74.6432136  11.0757732
  68.0220928 104.2810802  70.3850460  68.3981522 104.9843756  69.8557186
  68.4151360 104.3960955  71.2502193   4.7794113  56.4645815  79.8512506
   5.0855941  56.9030476  79.0573788   5.3562313  55.7063198  79.9437094
 110.7977106   2.0521538   0.4328251 111.7418863   2.1597998   0.3180504
 110.7013418   1.1832469   0.8226299  34.7996212   8.7406914  24.7053432
  34.5372178   8.9011519  23.7989044  34.6642829   7.8014987  24.8311806
 106.7882367 104.9448585  57.7322006 107.4171730 105.4289499  57.1971083
 106.4819237 104.2393746  57.1623802 109.1358615  19.8215859  10.3556728
 110.0831319  19.7787612  10.2249813 109.0317418  20.0641196  11.2757587
   7.2706467  59.4709587  54.1059685   6.6536260  59.4118309  53.3765697
   8.1323737  59.3843746  53.6983442  79.0078954   3.6120360   7.4511909
  78.5454868   3.1053202   8.1187630  79.2270569   2.9721539   6.7738819
  37.6376510  31.2098360  61.6289997  37.6767135  31.4346814  62.5585985
  37.1538568  30.3843260  61.6023731  10.4277909  60.5114841  19.6295619
  10.0089967  59.9021578  20.2374816  11.1594987  60.8792496  20.1251245
   1.8892255  24.9103570  78.0733395   0.9632982  24.7001362  77.9521084
   1.9388618  25.2720094  78.9582014   2.0088483  31.8362308  69.4361877
   2.4040553  31.7445040  68.5692215   1.0953622  32.0617461  69.2603540
  96.3953492  37.1791482  74.8993492  96.1378881  36.2840247  75.1200294
  96.2940690  37.6660347  75.7172203  15.6541967  62.3342991  83.8975811
  16.5104377  62.5141382  84.2858315  15.0264096  62.5871086  84.5744896
 105.7750699  51.8802309  83.8399601 106.0913888  51.9077253  84.7429657
 105.4883859  52.7754307  83.6592388   0.1394647  87.2902966  87.2362518
  -0.2435113  87.1722698  88.1055260   0.9519184  86.7848301  87.2618294
  23.0047655  51.7652988  70.1923704  22.7737784  51.6226673  71.1102676
  22.1835828  52.0284033  69.7768354 106.5701637  29.6857929  68.8110828
 106.8868777  28.9243722  68.3251190 106.4542696  30.3636360  68.1452560
   6.3999265  66.9061422  86.3940144   7.3104286  66.6326427  86.2825871
   6.1065537  67.1277714  85.5102444   9.4360620  52.5574493  90.2716637
   8.5679060  52.1640015  90.3596210   9.9841726  52.0678139  90.8848953
  84.0296432  89.9293423  69.3375778  83.9655563  90.7126141  68.7911320
  84.0983316  89.2068481  68.7134600   4.0289822  69.4338655  53.4197140
   4.9418041  69.6658754  53.2489491   3.6542475  70.2169085  53.8230085
 109.7652493  67.4655247  84.8473549 109.4773117  67.6277637  85.7456875
 110.7135388  67.5932741  84.8730278  39.2991877  70.6771278  62.2871876
  38.6164045  70.1511812  61.8707561  39.8483062  70.9745407  61.5617609
 107.5234105  16.8851702  47.2745037 108.2163931  17.0789759  46.6432762
 106.9179703  16.3167517  46.7985058   2.4705663  79.8007822  86.9795513
   3.3103150  79.3991375  86.7565441   1.9717716  79.0977049  87.3956299
  26.2051320  40.2814674  85.1365948  25.4957199  40.8468008  84.8310280
  26.8133140  40.2402306  84.3985939  82.7187726  78.2328224  67.0577955
  82.6464197  77.3333645  66.7384577  82.0421430  78.7119722  66.5794468
 103.7580791 100.5148602  64.1370821 104.0081516 100.0002193  64.9044418
 102.8441134 100.7515049  64.2948723 110.5870683  86.5139961  80.5122852
 109.8361966  86.9993401  80.1704407 110.8370971  86.9873428  81.3057995
  94.8128082  31.7271512   0.9127522  94.4609941  32.3195260   1.5772438
  94.4539167  32.0528977   0.0873375  23.3692408  75.8740807  75.1813459
  22.6902437  75.7273722  75.8398819  24.1647506  76.0340881  75.6890774
  79.0683886  72.6355839  52.0659018  78.5625622  71.8556738  51.8376207
  79.5365188  72.8612089  51.2620497 107.7413465  14.4710868  15.1920128
 107.4714328  13.6268990  14.8304558 108.1503774  14.9269383  14.4563961
  64.9101854  93.4953855  10.0819588  65.5465770  92.7929472   9.9484730
  65.3346921  94.2745756   9.7229481  90.6097104  18.0426257  20.6892204
  91.1344935  18.3059161  21.4452076  91.1994375  17.5002759  20.1654816
 111.0157634  24.2009537  10.0004768 111.5819861  23.5269015   9.6246052
 110.1477744  23.7981885  10.0251293  38.4666276  41.0128927  74.7066164
  38.8687277  40.1494312  74.8013639  37.9715014  41.1366892  75.5164051
  51.5596177  11.0934918  25.4467297  51.8571855  11.7081826  26.1174393
  52.3539378  10.6350558  25.1726437 108.2655860  20.5004017  12.9538155
 108.9397170  20.0749104  13.4836674 107.4692084  20.4334967  13.4806347
  22.6704049  15.6205082  86.2686539  23.1553030  15.9897387  85.5305672
  22.3879886  14.7586524  85.9625912  24.9769282  61.7600441  49.3881702
  24.6553564  61.8476295  48.4908676  25.7818389  61.2486935  49.3052959
  52.2653986 100.3126358   0.9496307  53.0940295  99.8901104   0.7236385
  51.6503323 100.0051569   0.2837658  32.0104909  28.3509278  89.7348404
  31.7784667  29.1575742  90.1949692  31.3118148  28.2328296  89.0913105
  26.1697340  89.5882511  71.2796164  25.8850479  88.9934826  71.9734764
  25.5523777  89.4348145  70.5643845 101.3422415  54.1253805  83.5798073
 101.1719236  54.8215675  82.9453373 101.4859340  54.5850849  84.4069958
  94.5483419  40.7120752  89.5098686  95.0447556  40.9980583  88.7430382
  93.7791368  41.2816191  89.5232964  33.3887768  98.8696003  83.6182499
  34.2083287  99.2547131  83.9284992  33.2801962  99.2181778  82.7334213
  28.8236260  31.7683315  84.2483044  29.0416741  31.1986876  84.9860001
  27.8747129  31.8806362  84.3047333  13.0699170  40.1970291  86.4823532
  12.1442294  40.1022673  86.7067528  13.0680025  40.4471540  85.5584145
  75.4870784  11.7453139  21.5793991  74.5506400  11.5545313  21.5253830
  75.6329189  11.9710629  22.4980927  15.4297948  37.0495415  78.0226517
  15.2788472  36.1527848  78.3214378  16.1724889  36.9803166  77.4227810
  45.5437183  72.4412918  59.7326040  46.0391521  72.2066355  58.9479303
  46.2074757  72.5347281  60.4159212  94.5889260   5.2686350  12.6026917
  94.5354761   4.4180672  12.1669006  94.3694474   5.9020369  11.9194126
  35.2961969  63.3891392  86.7557716  34.4913507  62.8770733  86.8348026
  35.8905292  63.0018950  87.3984528  66.7778064 100.6995700  19.3348503
  66.0498954 101.2688612  19.5844078  66.9920183 100.9630750  18.4399128
  29.8289180 101.1418056  86.3382816  29.5325613 101.7344856  85.6475353
  30.1890612 100.3888798  85.8696270 101.4399704  33.2792711  38.5398078
 100.5522534  33.1776595  38.8831234 101.8314663  32.4101663  38.6270976
   1.5633173  77.0027065  61.9613981   0.9225379  77.6441622  61.6545296
   1.0353649  76.2915611  62.3243999   8.7096769  84.7243404  70.7339907
   7.8303188  85.0969791  70.6699610   8.5786170  83.8707829  71.1469030
 108.0972838  71.7635918  64.3397570 107.6635995  70.9436083  64.5759296
 108.9303109  71.7382002  64.8105574  29.3057418  82.2094154  90.3287983
  28.4541774  82.5578880  90.5926800  29.8264456  82.9842186  90.1171780
 104.8964790  54.2761850  86.4377975 104.0887800  54.3281412  86.9488335
 104.7731623  54.9086380  85.7299709   0.5606731  59.1945314  80.2298164
   0.7935956  58.3010006  79.9776697   1.3518623  59.5409060  80.6424618
  62.3045041   8.5178416  23.6491680  62.8312077   9.3141167  23.5801411
  62.5052978   8.0279772  22.8517056  41.4725971  79.7682476  84.5295429
  41.7407751  80.5330563  84.0202522  42.0995378  79.7296286  85.2518272
  84.2950447  14.5196955  30.2108765  84.1426022  14.6290724  29.2722511
  85.2183939  14.7415583  30.3310204   7.3987865  76.8354750  33.1556845
   7.3222142  76.1999893  33.8673878   6.8885571  77.5892973  33.4517503
  67.3277266   7.6401036   0.9941196  68.1444533   7.1420567   0.9603786
  67.2924478   7.9820387   1.8874645  88.9533736  12.0476811  35.9066963
  89.4406415  11.8713086  36.7114925  88.8868739  11.1957495  35.4753876
  13.4207368  80.6886864  83.1169319  13.1819999  81.2113094  82.3513603
  13.1712353  81.2315369  83.8647842 108.9995147  20.5469363   7.5512409
 108.6357929  21.4197438   7.4024296 108.9631464  20.4309838   8.5006905
  73.5255443  13.7304347   9.2121792  73.9709268  13.3743327   9.9809742
  73.8285516  14.6368067   9.1582584  93.6344041  23.9539187  10.7077122
  92.7026619  24.1160386  10.5600452  93.6818935  23.6329548  11.6082382
  30.0616550  86.8472004  74.3916512  30.9756541  87.0535564  74.1960764
  30.1067662  86.0911846  74.9770117 107.8186275  19.5319312   5.3588104
 107.3223425  18.7345259   5.5434132 108.1800272  19.7907679   6.2065315
  82.6615497  64.9456310  53.9934397  82.9059932  65.7870817  54.3787193
  83.4933540  64.4888115  53.8683319   5.1211339  73.9868975  60.6682968
   5.5886805  74.7051382  60.2419567   5.8060133  73.3599615  60.9009314
  14.4230843  83.3627987  67.9423761  13.9472020  84.0873623  67.5364447
  15.0837886  83.1174660  67.2946787  85.7784785  34.2210095   1.3293362
  85.5148472  34.4844620   0.4476833  86.7252006  34.3609994   1.3481140
  30.0506330  60.0070238  55.5707026  30.3924489  59.1446304  55.3347683
  29.6010065  59.8666811  56.4039946   3.8517347  76.2043810  80.5290890
   3.4621614  75.5003738  80.0105953   3.1074154  76.6245699  80.9599781
  31.8065190  71.8495703  54.4034195  31.4510059  71.1847305  53.8136435
  32.6682854  72.0550919  54.0409946  24.8612642  84.4663429  86.4510727
  24.8908782  85.3296852  86.8633652  24.1191435  84.5140648  85.8483982
  17.0086300  69.8314810  69.4629002  17.8991878  70.1119804  69.2520523
  16.5337741  70.6459951  69.6281576  98.5504088  80.9430790  89.8807335
  98.3086118  81.8595886  89.7474289  98.2412621  80.7397747  90.7635307
  73.1099008  60.0796883   8.9115429  72.9772282  60.2244370   9.8483849
  73.3055322  59.1455166   8.8388634  11.6298854  79.6934748  77.2444391
  11.6180909  79.0499878  77.9529715  10.7905567  80.1475239  77.3192644
   0.5719320  80.6758499  70.8508682   1.0976312  79.9731731  71.2331247
   0.2763868  80.3241730  70.0111008  74.8576217   7.0260995  10.2554703
  75.2711490   6.1654561  10.1882172  74.8054217   7.1938746  11.1964035
  81.2208159  12.8621476  14.3505383  81.8454458  12.7130501  13.6407280
  81.7391564  12.7671282  15.1496220  29.7078347  50.0056601  87.8630352
  29.1460729  49.2348099  87.7827168  29.2367864  50.5838346  88.4630871
  53.5519088  93.7996029  15.2958679  54.2694331  93.2021736  15.0849915
  53.6131323  94.4899295  14.6356201  53.4698226  13.4527962   3.5101509
  52.9129483  13.0086320   4.1495609  53.0823375  13.2345526   2.6625347
 109.1479327  12.6015179   0.9167957 109.1995741  11.6612523   0.7451344
 109.3832089  12.6896327   1.8404388  43.7105042  98.4876560   7.6512623
  43.9458186  97.5616811   7.7098179  42.9293520  98.5713123   8.1981087
  12.7036095  44.1469049  73.6864901  11.9932592  44.0678549  74.3231916
  13.1803751  44.9320126  73.9558077  17.5427198  58.2271099  76.3795900
  17.8582692  58.9723635  75.8684540  18.2520676  58.0410528  76.9947672
   0.1511678  48.8031769  89.0980911   0.2642855  47.8557539  89.0218067
   1.0210077  49.1629934  88.9244747  51.7444528 103.1998609  25.7065582
  52.0263553 102.9513429  24.8262215  52.5199617 103.0691599  26.2522125
  32.7256727  52.9983234  70.6055069  32.1755099  53.0167723  69.8224306
  32.2342014  52.4659538  71.2310219  94.3961415  58.8599348  71.8333340
  95.1292297  58.2617426  71.9781828  94.7512230  59.7264004  72.0317793
  79.8493583  20.6980460   8.4669781  80.6137867  21.2724917   8.5105419
  79.9884327  20.1736872   7.6783466  21.0775852  54.7608185  88.6766243
  21.6846561  54.1185856  89.0443707  20.7599115  55.2515221  89.4345951
  61.0760856  92.0285438   4.0282059  60.5440450  91.2493442   3.8669205
  61.9764639  91.7381381   3.8825417  36.2929321 103.4289001  33.7222290
  35.6742836 103.6240743  34.4260883  35.8106387 102.8482555  33.1336117
  14.0338242  71.2782478  82.3508358  13.9936697  72.0697260  81.8140030
  13.7589228  70.5753422  81.7621231  14.4017327  85.6517792  56.5531874
  14.4734108  85.8954811  57.4760675  13.4658933  85.7123947  56.3614511
  78.9488030  91.1806439  31.2329292  78.7344933  91.8541001  31.8785000
  79.8719598  90.9828137  31.3906384  22.5231290  71.4588118  55.4593182
  23.0487585  70.7596397  55.0705910  23.1300092  71.9218922  56.0367966
 104.5897672  33.5646296  55.9634018 104.8328248  34.2797422  55.3753805
 103.6992052  33.3312535  55.7013559  95.0673033  42.2065156   9.5173359
  95.9656788  41.8946545   9.6263981  94.6021821  41.4657872   9.1284752
  11.7750418  83.6942959  62.7490568  11.2070215  82.9634762  62.5051689
  11.2265861  84.2492294  63.3035660  93.6626722  23.9701264  28.6196232
  94.4992448  24.2834513  28.9634323  93.2303001  24.7569935  28.2877731
   4.9776559  11.6383164   1.6241264   5.3116088  12.4989121   1.3709831
   5.5973200  11.3252967   2.2831154  35.0718093  91.2479496  65.6480980
  35.0597954  92.1792412  65.8689785  34.3194246  91.1295795  65.0683260
  27.5947976  77.8571463  82.9356384  27.3639870  78.6284113  83.4534264
  27.6308227  77.1432686  83.5722733  71.4573531  21.3780348  31.7299366
  70.7827638  21.1652081  32.3748112  72.1115459  20.6865542  31.8305492
  41.3040674   9.6101302  41.8852377  42.1911801   9.5379371  42.2374487
  40.7364178   9.5637816  42.6545620  61.0230340  32.5417321   6.9340420
  60.9119023  31.6790860   7.3336983  60.3211094  33.0724328   7.3107338
 101.5260197  14.2373698   4.0516949 101.8847825  14.9141400   3.4776688
 101.4497568  13.4644787   3.4921837  80.8088137   7.4787657  30.8023644
  81.5531607   7.2920125  30.2302647  81.2050731   7.7285569  31.6371250
  41.4818954  92.9802036  67.7460766  41.4070797  93.5303497  68.5258007
  42.2871494  93.2754040  67.3210335  67.8547574  88.9095734  17.7177715
  67.2708226  88.1915973  17.9622364  67.2729231  89.6590470  17.5913239
  28.5887265  78.9370775  79.9944353  27.9546666  78.8655806  80.7079411
  29.2939043  78.3381033  80.2397537   7.6581246  88.6165905  66.7505932
   7.1941566  88.4044266  65.9406805   8.5159582  88.2039070  66.6503429
  46.5531332   0.0404281  87.2183323  45.8147664  -0.0861913  86.6225052
  46.1965621   0.5682677  87.9328060  56.0645986   8.1458110  76.6568565
  55.8286811   7.2283668  76.7942238  56.2605751   8.4765548  77.5334644
  33.0182958  55.2403355  83.2165432  33.4010148  55.9168243  82.6578617
  33.1155324  54.4314528  82.7140713  32.2878337  54.4134617  77.2071409
  32.5321889  53.5980463  77.6448774  31.5757227  54.1648531  76.6177988
 100.7300688  17.0399516  23.6333847 100.8650686  16.6062157  24.4759274
  99.8690583  17.4509232  23.7108040   7.4413884  75.3864765  54.8947716
   7.8867012  75.1308346  54.0869474   6.7287558  75.9562683  54.6054173
  21.5106630  75.0923252  62.2513151  20.7849813  75.4430962  61.7350006
  21.8261385  74.3445063  61.7438936  98.4440066  64.4327252  13.6337948
  97.6992179  64.8680203  14.0485764  98.0764390  63.6304658  13.2629871
  47.3600483  79.7536993  61.6398716  46.6567230  80.3506470  61.8952465
  46.9076014  78.9874077  61.2872839  30.6405139  44.2687941  89.0554142
  30.3671908  43.3788013  89.2777634  31.0475254  44.1859436  88.1930256
  26.9668603  67.5824785  80.2538681  26.9738007  67.5651455  81.2108898
  26.3681006  68.2954311  80.0315666   3.3565530  75.2459908  70.7546568
   3.8025019  74.9546862  71.5499592   3.1941310  74.4411325  70.2626610
  51.3721550  96.5630172  11.9599819  50.8182443  97.3434518  11.9416046
  51.3848186  96.2568973  11.0531425   4.8033241  81.1972092  31.5710831
   3.8861374  81.3282012  31.8115807   4.7677044  80.7507895  30.7251072
  77.3295553  24.7899573   3.7866497  76.6059749  25.2120726   3.3235264
  77.6534773  24.1297906   3.1738853  16.6685487 100.3330062   0.8869076
  15.9278250  99.7277616   0.9221649  17.3836244  99.8151229   0.5171871
   1.7556854  78.2245493  72.7614355   2.6944008  78.3815193  72.6594305
   1.6029270  77.3897886  72.3186302  80.9937878  24.1443389  14.2682934
  80.8786835  25.0247662  14.6258259  80.2439065  24.0223544  13.6860275
 100.7241639  60.3599501  84.4513988 100.7609233  60.8081579  85.2963829
 101.4514455  60.7308722  83.9516926  10.6342316  62.8761339  51.3090801
  10.1956117  63.2489395  52.0738411  10.1408875  63.2140207  50.5616331
  26.9516683  56.3348055  87.6419544  27.5370121  56.0563946  86.9376183
  27.4396300  57.0168877  88.1033611  96.2328196  33.0289954  85.9629250
  96.3529683  32.9498118  86.9092464  95.8293153  32.2009582  85.7026005
  43.8866270  92.5071214   0.1189613  43.3957095  93.0951713   0.6929207
  43.8771976  92.9417394  -0.7338333  15.0876260  57.6588774  87.7807999
  15.5814350  56.9001722  87.4697495  15.7408452  58.3541727  87.8589344
  91.0451075 104.1287136  88.2623386  91.7805359 104.1362858  88.8749695
  90.4836318 104.8472881  88.5532570  25.4774594  60.9983540  66.3945532
  24.5738363  60.7175255  66.2502289  25.5618382  61.8047094  65.8857298
  37.9148246  49.6863835  11.7759037  38.0859901  49.0627663  11.0701847
  37.4248554  50.3938382  11.3567829  80.4237725  11.3601058   8.3041954
  80.6682064  10.4386752   8.2178974  79.7483309  11.3662140   8.9824104
 102.4745306  63.6729145  50.7402611 101.8009183  63.0355167  50.5031824
 102.3878369  64.3671846  50.0870323  98.1934878  56.6786289  67.7448940
  98.5046467  57.5085354  68.1063747  98.9317450  56.3486814  67.2326994
  27.9193902  40.1849127  82.9189587  27.1083522  40.4547167  82.4880886
  28.1608963  39.3670011  82.4843025  53.6011256 105.2691244   1.0602951
  53.4960068 105.2750038   0.1089001  52.7586199 105.5749868   1.3962460
  29.8569846  71.9036198  63.1664610  30.6392264  72.0429564  62.6326799
  29.2785311  71.3803434  62.6116562 109.9800105  61.9497967  64.9919653
 109.0491694  61.9559431  64.7689676 110.0174667  61.5316105  65.8521700
  99.0080549   0.8025544   0.5483723  99.5247723   0.2045481   0.0083542
  99.0641381   0.4370968   1.4312840  30.7277632  62.3652458  65.5679941
  30.2728367  61.9028997  64.8640728  31.6558337  62.1982622  65.4035807
  98.7130198  55.8948469  86.1016560  99.6311495  55.6387758  86.0139179
  98.2731268  55.4640484  85.3687572  37.0289493  92.1555328  43.7794447
  36.8872023  92.2453403  44.7218227  37.9715967  92.2774220  43.6663389
   1.5261285  54.9813175  65.9922743   1.8320931  54.5383501  65.2008247
   0.6410637  55.2745390  65.7756805  27.8894329  83.5506725  80.3819847
  28.6897826  83.3182526  80.8527851  28.1957698  83.8820171  79.5378304
  84.6095742   8.6801045  26.3633251  84.8087217   9.5522921  26.7037106
  85.0542833   8.0815022  26.9634438  39.9239874  60.2839947  60.9078360
  39.4681931  60.8344698  60.2710772  40.7773733  60.1131773  60.5093527
  86.7645647  24.2693846   6.5887260  86.8207337  24.4825785   7.5201893
  87.4189438  23.5827057   6.4603043 111.2562643  47.7894068  85.6087875
 110.4508430  47.4405336  85.9906483 111.8007071  47.0179176  85.4518986
  40.0538206  82.2331715  75.7388210  39.3463826  82.3513126  76.3727045
  40.0015354  83.0049038  75.1749659  10.0857949  61.3923407  76.3101339
  10.2837014  60.8362770  75.5565739   9.1441905  61.5530109  76.2485170
 106.7753006  47.1756642  11.2186527 107.3679520  46.4924138  11.5319729
 106.7615844  47.8227131  11.9238949   8.1791425  65.2171612  61.1285734
   7.6128072  65.9463215  61.3812113   8.2718551  65.3034830  60.1797915
  39.5397091  82.8637886  34.6062040  39.7796774  83.6836433  35.0380445
  38.6830425  83.0398273  34.2171431 103.6172369  45.7427931  87.0414257
 102.7580872  46.0020065  86.7084026 103.8581505  46.4402056  87.6511860
   2.4099609  67.8515196  81.0421085   2.1771523  66.9253063  81.1065960
   2.8808019  67.9228878  80.2117825  10.9933758  49.9782801  78.0253887
  11.7836618  49.7856808  78.5299540  11.2674749  50.6458282  77.3965168
  82.7906503   0.9854214  15.8404541  83.3784570   0.5470555  16.4557171
  82.1245851   0.3289406  15.6364346  36.7421937  63.7370062  55.5373621
  36.9653964  64.3548393  56.2335634  35.8319473  63.9388800  55.3207350
  91.8165447   4.4997780  11.3946056  91.8773855   4.1634600  12.2887039
  92.6253630   4.2085593  10.9736061  40.9488678  44.0178013  86.2842846
  40.1608419  44.3555212  86.7099571  40.7084846  43.1358337  86.0004234
  37.2570014  69.3329334  85.7863617  37.0830774  69.2283344  86.7217922
  37.9968166  68.7506151  85.6137085 107.0411718  98.5680389  45.5250502
 106.7996874  98.3459187  44.6258402 107.0012468  97.7358437  45.9962988
 102.3338261  76.4857197  85.0825691 101.6225192  75.9668255  85.4580975
 102.8509334  76.7653799  85.8379650  97.6904513  14.2915576   3.3143711
  98.4870793  14.6082442   2.8885460  97.5960423  14.8463004   4.0886974
 105.8478424  53.7297153  89.7400761 105.3936627  52.9840231  89.3477821
 106.4336726  53.3392000  90.3885555  27.0767379  77.3545885  56.2975788
  26.2174916  77.0075846  56.5374041  27.5794721  77.3331785  57.1118498
  30.6321979  90.8062649  78.5250235  29.7097588  90.6545639  78.7307596
  30.6802607  91.7385864  78.3136368  71.4075123  37.5138943  13.8918877
  70.4912893  37.3897832  14.1396046  71.6259514  36.7330639  13.3831406
  95.2066208  28.5976021  34.1786671  94.3215240  28.2428258  34.2621517
  95.5875184  28.4988778  35.0512505  19.9206913  46.7631149  64.0186071
  19.4940019  46.5968990  63.1780434  19.8508954  47.7100754  64.1395235
  39.0287348 100.9324478  27.7389336  39.2711996 100.0064682  27.7375889
  38.3429398 101.0014318  27.0747375  21.2060404  64.0072775  54.1934490
  20.8097410  63.8361216  55.0477839  20.9363866  64.9003029  53.9789200
  95.4618002  20.5386870   8.1743717  94.7070195  21.0144990   8.5209847
  95.2690674  20.4294913   7.2431564  33.4752679  33.5121083  84.6106148
  34.1007948  34.1695356  84.3060875  32.8665948  33.9996266  85.1656628
  16.3317394  59.9673986  87.3578548  16.2119079  60.8698750  87.6535130
  16.0707378  59.9803782  86.4370155  32.9778433  89.6519470  79.1536713
  32.8503156  88.7054539  79.0895271  32.1213436  90.0238419  78.9431047
 107.3412849  29.0376465   1.2414169 107.1826555  29.1827386   2.1741676
 107.0237924  29.8350232   0.8176041  21.8666887  99.7962570  75.0667095
  21.3295126  99.9645710  74.2925358  21.9211125 100.6432819  75.5092287
  13.7634921  67.9907799  81.3005638  14.6764815  68.1781864  81.5186501
  13.8011408  67.1866322  80.7827282 100.1771952   9.4920294   6.7896938
 101.0247590   9.9284546   6.8757153 100.0633265   9.3737214   5.8466816
  81.6265424   1.6224473  20.6911182  80.8566220   1.7659514  21.2414455
  82.2250707   1.1191695  21.2431145  14.9763703  49.4830561  49.0650034
  15.4973722  48.8993740  48.5135508  14.7848308  50.2347326  48.5041761
  32.9162121  39.0461564  57.4105167  33.7637758  38.6133790  57.5133419
  32.3313093  38.5705471  58.0003595  30.5039913  94.1357301   4.8378181
  30.8927769  93.3189701   5.1508427  30.4031021  94.0069507   3.8947010
  13.5701513  41.3335848  71.3835907  14.2464685  40.9237862  71.9229364
  14.0543318  41.8940163  70.7771969  19.1288090  62.3332834  36.3226318
  19.7500110  61.7771816  35.8524275  19.3636119  63.2249928  36.0658097
  95.2707434  81.4919804  -0.2033901  96.1316443  81.7894219  -0.4976845
  95.3219653  81.5183042   0.7520771   8.1510550  74.3894815  87.4861431
   8.9753073  73.9361143  87.3092270   7.7822924  74.5627260  86.6199875
  22.5101186  96.8404888   8.8154316  22.4255586  97.5028156   9.5012951
  22.3054636  96.0144542   9.2536259  28.6517930  37.9595208  81.4696598
  28.0039549  37.8669119  80.7711220  28.8669968  37.0603514  81.7174816
  35.4196787  37.8136969  57.2707176  35.8454108  38.0416274  58.0971766
  35.9024453  38.3080268  56.6082954  30.9417386  97.0094989   3.4151840
  31.5028787  96.3016771   3.0984116  30.8272082  96.8253730   4.3474960
   6.6268671  58.8360405  84.4405937   6.3829398  57.9319334  84.2422867
   6.0706431  59.0772200  85.1813221  67.4191906  49.7851746  15.2205276
  67.6935781  50.6998532  15.2861309  67.9044904  49.3391602  15.9146404
 108.0073664  92.5388145  36.1547422 108.4731889  93.3750248  36.1549878
 108.6769205  91.8916035  36.3761854  47.2959995  95.8723927  50.0950384
  46.4553642  96.1143494  49.7064161  47.4013567  96.4742947  50.8318186
  59.4627406  13.5870831   7.8025055  59.6996428  14.4384186   8.1703758
  60.3013815  13.1636708   7.6190948  74.7489787  90.8992241  12.0670223
  74.9318982  91.7132829  11.5978909  75.0621391  90.2097987  11.4814854
  19.4682635   7.4308986  83.6870575  19.1056979   8.0915946  83.0969143
  20.0010730   6.8714828  83.1219101   7.8778946  77.4462318  63.6867952
   7.3615074  77.4834204  64.4918966   8.1496042  76.5309429  63.6185837
 111.0921957  37.0007222  13.3207607 111.0493590  36.2655919  12.7092171
 111.6044117  37.6655953  12.8605366   7.4863702  54.9425888  86.4321613
   8.2075632  54.5016336  86.8812370   6.8677741  54.2416000  86.2267685
  91.5453479  42.2388506  74.0763140  91.2965056  42.5342178  73.2004881
  92.4996719  42.3114395  74.0914106  82.3427434  18.2389205  30.4352665
  81.4775927  18.2417767  30.8448219  82.8506406  17.6140158  30.9527302
  37.3006598  95.2567218  17.6116085  37.2918779  95.3949188  18.5587311
  37.2157895  96.1350082  17.2406101   8.5531789  48.9926958  78.9134359
   8.0068064  49.7341061  78.6526203   9.4437647  49.2597294  78.6858845
  21.5825486  64.1120052  64.7047043  20.9380031  63.6265087  64.1898441
  22.3767471  64.0962172  64.1706371  43.7666966  48.8831799   2.3232079
  43.9312126  48.0643456   1.8555737  43.4597875  48.6081212   3.1871319
  85.6827177   2.7635234   6.4350605  84.8348309   3.2055657   6.4788532
  85.9084882   2.5874465   7.3484421  72.4697018  78.0942822  60.3472805
  73.3748865  78.2165289  60.6335115  72.0592785  78.9488983  60.4792404
   9.0714616  43.2343197  45.2782106   9.3066317  44.1618824  45.2546167
   9.2790294  42.9122162  44.4010592  25.8201385  48.4918404  84.6821499
  26.5757132  48.9634752  84.3315792  25.1934576  48.4720945  83.9588928
  27.4466085  67.6964140  71.2726688  27.5540972  67.0774364  71.9948530
  26.8606162  67.2510481  70.6607103  68.5949047  16.0736363   6.0181332
  68.6467494  15.5109065   6.7907143  69.4959457  16.1265319   5.6994534
  31.1879373  90.7843304  82.4579716  30.5686545  91.5139198  82.4375629
  31.9169760  91.1037922  82.9896545  38.5285044  84.1769123  43.9490366
  38.0966187  83.5861015  44.5659971  37.8101635  84.6402359  43.5182762
  50.3882027  84.2260933  89.1924191  49.5954657  84.0150261  88.6992168
  50.0767660  84.4122410  90.0781822  72.2106958   0.6014270  59.4754362
  71.5605474   0.1092643  59.9767542  71.7884613   1.4413184  59.2950773
 110.6881454  65.9919548  59.6497774 109.8058683  65.7764006  59.3475246
 111.2683177  65.5583191  59.0240002   5.6451420  60.6682961  14.0904903
   5.4326348  61.5829651  13.9048767   4.8781256  60.1790516  13.7929058
 102.7379300  17.8561537  15.5324459 102.0235802  17.4691384  16.0385609
 103.4169842  18.0428975  16.1807060 107.3801506  31.4467716  84.3444061
 106.6765919  31.7187357  83.7551117 106.9295606  31.1567616  85.1375675
  20.7150316  89.4821644  46.1201191  20.5595756  89.8216820  47.0014763
  20.3624606  88.5924911  46.1405277  61.6908455  92.0010567  83.3627796
  62.5048876  92.4233055  83.6371326  61.5901041  92.2493935  82.4438572
  47.7523804  75.8970547  88.7165737  46.9799137  75.6770802  88.1958675
  47.4399328  75.8947754  89.6213436  74.3000818  14.8828334  75.5913162
  75.1237798  14.7212142  76.0513544  74.2573143  15.8350963  75.5040884
  56.7419363  19.0255946  86.9152832  56.8267692  18.5763186  86.0743427
  56.2273443  19.8081893  86.7178917  65.7241249  68.9231205  69.4086552
  66.0001373  69.8297119  69.2739534  65.7188416  68.5414267  68.5308647
  98.2727481  56.1125844   8.6636639  97.7166010  55.3817551   8.3938122
  97.8242470  56.8902390   8.3314991  10.5925679 103.2772350  86.7470551
  10.5567980 103.0630875  85.8148098  10.3705764 104.2074394  86.7878246
   5.8898263  33.8989442  20.0681114   6.4149623  34.6693604  20.2847290
   5.1707940  34.2408650  19.5367718  77.3853986  53.2545655   4.9830055
  77.7780221  52.4676983   4.6049690  77.0608772  52.9730408   5.8383846
 106.3390018  56.0354989   3.5110664 105.6638910  55.9510796   2.8377724
 106.6723348  55.1459782   3.6288738  97.6231529  11.0075133   5.7118225
  97.6202156  10.0507252   5.6838036  98.0472280  11.2214940   6.5428448
  13.9463341  60.1049709  74.1430330  13.5295379  60.8467627  73.7045622
  14.3125272  60.4761553  74.9457550  88.4080042   0.3915684   2.3931503
  88.3954717   0.5477564   3.3374405  87.7383079   0.9797566   2.0441914
  51.8605900  84.7009373  74.3185902  51.4803553  84.0988064  73.6789799
  52.3004580  84.1324425  74.9507093 101.6804418  57.4137592  82.9960537
 101.0872588  57.7862978  83.6484146 102.4224767  57.0879221  83.5054111
  54.9948693  94.4084858   8.4942055  55.4934455  93.8940738   7.8593540
  55.3540183  95.2927183   8.4208965  48.2792211  98.6291145   5.6052017
  47.6019419  98.9640545   6.1928558  48.4891380  97.7617429   5.9513664
  36.7643237  60.6321335  75.8586121  37.4607229  60.3842354  75.2504969
  36.9468617  60.1266623  76.6507053  36.0981846  77.5247049  69.7420740
  36.7579651  77.1059799  70.2948761  36.5675354  78.2357359  69.3057537
  72.0791233  47.8744691  10.6550026  72.5611751  47.5356953   9.9006271
  71.5765704  47.1250050  10.9743404  35.1422238  83.1980991  87.3721409
  34.2299175  83.4813213  87.4330521  35.1955009  82.4361706  87.9490852
 100.7208992  59.3078129  14.9398708 100.5527069  58.4514706  15.3330898
 100.5961634  59.1689484  14.0010548  24.4074321  97.3670864  70.1400995
  24.4524908  97.5312805  71.0820341  23.8750935  96.5756035  70.0601387
  51.7493571   4.7696036  65.8651733  51.0511924   5.3902072  65.6562424
  51.5145922   4.4263190  66.7273045   4.1246772  94.4453907  70.3937054
   4.0797821  94.2599487  69.4557142   3.8671231  95.3642273  70.4687834
  28.3617496  69.1293097  74.4898939  27.5424767  68.6343145  74.4887257
  29.0400600  68.4694481  74.6337938  40.9536409 101.5771008  85.9131432
  40.9884024 102.5336552  85.9175777  40.4457045 101.3522625  86.6926861
  21.8957996 101.0188007  91.2192822  21.2820363 101.5118217  90.6748009
  21.3781714 100.2919674  91.5657043  10.1716809  86.5557759   3.7151432
   9.5393471  85.8375161   3.7371445   9.7075944  87.2701542   3.2786560
  28.6229897 104.5036125  85.0185871  27.7297115 104.6175957  84.6940994
  29.0958762 104.1103077  84.2851639  21.1262516   9.5837039  65.3518629
  20.8691124  10.3134936  64.7883701  21.3800720   8.8894481  64.7437429
  37.4044180  64.2483950  78.5500002  38.1665373  64.1913891  77.9736662
  37.4224329  63.4337139  79.0521955  55.5702496  76.1133909  68.6949110
  55.4875278  75.3976154  68.0647850  54.9969912  75.8623266  69.4191885
  36.9197106  69.6962881  78.7294054  36.7651463  69.8530245  79.6609497
  36.9846821  68.7442589  78.6542606  98.9777383  90.7889080  85.6270885
  99.2934141  91.6742516  85.4461002  99.6849868  90.3797054  86.1256695
  98.0512477  47.8074067   2.0603561  97.8026773  46.8836968   2.0951557
  97.5817420  48.1533520   1.3013363  92.8885795  31.7577927  16.8217659
  93.3600558  30.9483235  16.6250229  93.5645737  32.4354737  16.8187904
  77.9308014  10.6355231   9.8500729  76.9862159  10.5053609   9.9340153
  78.1691115  11.1603444  10.6142712  55.8585358   8.2395286  82.7469444
  55.2286244   8.4764403  83.4276199  56.5628470   8.8812274  82.8385639
  97.5922634  14.6571248  11.6119766  97.7609064  13.8449233  12.0895958
  97.3877861  14.3730347  10.7210732  13.8795733 102.1491146  73.5604382
  14.1909790 102.6680946  74.3020010  13.9813685 101.2406635  73.8443041
  86.3088645   6.2638562   4.9182892  85.4833592   6.4281123   4.4624519
  86.6143657   5.4276364   4.5666695 109.4219688 100.9864712  79.1143799
 109.6612601 100.6286621  79.9693346 108.7172851 101.6062546  79.3028450
  21.5756941  99.2388058  45.3980875  20.9724665  99.8945045  45.7479525
  22.1889663  99.0715122  46.1137295  25.4134226  77.3670769  47.2062302
  25.1567221  78.1732273  47.6539564  26.3492513  77.2799873  47.3875332
  33.3716731  43.4535115  23.0106926  33.4349303  44.1585915  22.3664188
  32.4382596  43.3994858  23.2157707  93.0308653  26.4157384   5.2385998
  92.2470690  26.5413039   4.7036934  92.7005281  26.3422244   6.1339855
  46.1008549  69.1991997  58.7978077  46.5222073  68.5771036  58.2047749
  46.4211226  70.0553656  58.5138226  54.8395540  13.6419289  23.5433960
  54.9456598  14.3979447  24.1208172  54.5668293  14.0166371  22.7058697
  41.9538593  94.1744995  50.7165527  42.0787477  93.7131596  51.5458918
  41.8319941  95.0900650  50.9677744  56.4637136  89.6194935  79.8046923
  56.9544411  88.8183308  79.9878454  55.6365967  89.5060730  80.2729321
  49.0866899 100.5712223  88.0561352  48.1505442 100.7574081  87.9840660
  49.4524288 100.8544540  87.2181320  68.9525700  93.1622410  78.6330175
  69.8332596  93.4632206  78.4093571  68.4022808  93.9395714  78.5373068
   8.1408435  56.4550114  64.7632122   8.5154879  56.1684561  65.5961323
   7.5420094  55.7507181  64.5150137  25.6284070  66.9745684  69.1677570
  25.1486015  66.3210011  68.6589670  24.9751353  67.3409557  69.7637653
  21.9545559   4.6883220  50.6819677  21.5752510   4.6881885  49.8031282
  21.4222626   4.0621394  51.1726713  51.0822868  90.3233242  62.6863480
  51.1566162  91.1341476  63.1896019  50.4386616  89.8018742  63.1659985
  57.3288870 101.7152882  63.9370871  57.8424406 101.9552040  63.1657696
  57.1843433 102.5430202  64.3955517   1.5583162  27.7127831   4.2314339
   1.4125185  27.3321049   3.3653736   2.5107340  27.7496045   4.3196297
  18.1300187  85.3488255  67.9577303  18.0237746  85.7124805  67.0787001
  18.8808358  84.7596931  67.8840685  80.5606366   3.9872951  82.2058582
  79.9394990   4.1202182  82.9219151  80.7368470   4.8680610  81.8750477
  70.6173883  59.1069596   1.9010735  69.8799194  58.5354703   2.1150208
  71.3715507  58.5190289   1.8586063  13.0749850  78.9524357  11.6735935
  13.5887627  78.1857484  11.4197063  12.7090506  78.7233441  12.5278950
  20.5653930  80.9301376  82.6249123  20.6865621  80.2262497  81.9876575
  20.3898501  80.4783535  83.4503269  53.2464027  66.3401079  61.2746429
  52.9925489  65.4205227  61.3530779  52.5039005  66.8251038  61.6347790
  16.5841818  65.1181507  46.4442539  17.4851143  65.1204777  46.1209202
  16.1139798  64.5447111  45.8390236  38.4796739  89.7931099  77.5824928
  38.7747455  88.9177608  77.3316336  37.6000094  89.6575546  77.9346943
  10.1494598 100.3033352  90.8090115  10.9037352 100.0980473  90.2566051
   9.9197781 101.2029076  90.5761242 110.7906938  93.1459904  90.3191853
 110.7781363  92.7081013  91.1702538 110.8802032  92.4345493  89.6850872
  64.2248048  12.8681748  15.6393719  63.6204793  12.1782439  15.9132576
  63.6829485  13.6557286  15.5905914 102.4735142  39.9651806  30.3128719
 101.9204880  39.2031472  30.4852200 103.3678676  39.6409695  30.4189682
  18.8525443   1.9504349  28.2813263  18.2421069   2.3816149  28.8793945
  19.4269471   2.6532881  27.9775429  21.8396382  53.0542367  13.1451607
  22.2454600  52.9134457  12.2897530  21.6012387  53.9812749  13.1474972
  14.5061100  75.1496744  46.9944096  14.2223239  74.5137835  47.6511717
  15.4501796  75.0108910  46.9188881  55.1754070   5.4574508  55.5999470
  55.5082238   4.5946616  55.8470631  55.9451354   6.0260600  55.6207752
  40.0568390  84.8885441  83.8458729  39.2074037  84.5035648  84.0614796
  39.9220634  85.8319092  83.9360142  48.2844019  58.0347061  66.2987280
  48.1730938  57.4421358  67.0421696  48.0756950  58.9006042  66.6492844
  67.2560228  11.9032853  26.8176270  67.1366508  12.2449057  25.9314728
  66.8461908  11.0384791  26.7981625   4.3231110  53.9656727  27.4267673
   4.8298220  53.3451836  26.9028759   4.7385888  53.9465516  28.2888794
  61.7689276  73.3643961  71.6820621  61.1244011  73.8460875  71.1636114
  62.3426723  74.0416908  72.0402765  35.0937939  75.3558779  83.5008526
  35.7666254  74.7119761  83.2796764  34.7436023  75.0576687  84.3402958
  51.7847538  75.5149174  73.4518957  52.4658823  75.2674389  74.0772390
  51.8157148  76.4713669  73.4300804  67.7584982  86.3989162  53.9279366
  67.8089190  87.1348476  54.5379353  68.6712551  86.1689663  53.7540770
  29.7801518  91.0422516  72.4429750  30.3261900  91.2163067  73.2096434
  29.8263407  91.8478775  71.9281435  30.2692056  68.9237499  82.5539875
  31.1698270  68.5997581  82.5659943  30.3160715  69.7434235  82.0618820
   5.2331881  49.3849270   5.9084129   5.4903893  48.4702962   5.7920742
   6.0496382  49.8765366   5.8191776  44.8117638  98.2970524  83.9111328
  44.3796682  98.8354588  84.5741844  45.2264547  97.5919247  84.4081879
  42.8694725  82.0710373  74.0245581  43.5222912  81.5478802  73.5594034
  42.0355701  81.8242836  73.6246109 109.9898840  20.9740441   0.4842472
 110.1070739  20.0948565   0.8441353 109.7947527  21.5204375   1.2455654
  93.6061992   8.2744448  11.6186142  93.2137538   8.8832467  10.9928513
  93.0865170   8.3817141  12.4152660  77.0307756  27.8727454  84.6091557
  76.2096048  27.4803847  84.3125725  76.9898749  28.7772864  84.2987442
  13.3756733  70.3344202  84.6478748  14.1937137  69.8577213  84.7885990
  13.5617697  70.9174442  83.9118862   3.2823853  30.2802079   3.5546970
   4.0265135  30.8597844   3.3916187   3.6388592  29.5812123   4.1029358
  92.4735548  28.4980576   1.0462856  92.5797035  28.4479420   1.9962597
  93.3596875  28.3916848   0.7003307  35.3672218  47.1311808  79.6295929
  35.1047421  48.0516148  79.6414757  36.2412238  47.1262980  80.0198841
   4.4983916  24.1053383   5.4253387   3.5964732  24.3881409   5.2743626
   4.9531512  24.3086569   4.6079636  15.7167399  50.3174925  87.6515388
  16.1629796  50.4929781  88.4799671  16.1207259  50.9221506  87.0291042
  23.7615085 102.9139328  43.2758760  23.4949684 102.3951530  44.0348625
  24.7019982 102.7550316  43.1954861  82.3564959   5.2219028  57.2186089
  82.1269847   5.1513404  58.1452036  82.7623416   4.3810576  57.0076752
  11.1986732  60.8811092  82.4579906  11.1162794  61.3152313  81.6088867
  11.0069323  61.5671682  83.0973625  64.6661878   4.1859263  68.3066797
  65.5949617   4.2319697  68.5335875  64.3863035   5.0999087  68.2564354
  16.2899208  97.5343800  71.4515877  17.1586275  97.1575832  71.3115692
  15.7393718  96.7868805  71.6847706  24.0401053  76.0923433  59.9209881
  24.6515656  75.7041359  60.5468035  24.4798589  76.0112286  59.0746641
  86.6853949  98.0768776  81.0502243  86.4844820  98.2002258  81.9779396
  87.2833797  98.7933445  80.8373356 104.3837191  31.8756287  17.3080254
 105.2852489  32.1275227  17.1079636 104.0814759  31.4222138  16.5210724
  55.6415129  74.1117525  75.0687313  55.6093884  74.8734522  75.6475353
  56.5632439  74.0375423  74.8214626  20.1892233  78.9099550  84.3893051
  20.9736061  78.4418583  84.1031837  19.8510349  78.3881998  85.1170635
  23.1879520  83.2015610  38.1323838  23.7427974  83.6645508  37.5046706
  23.2528973  82.2815132  37.8764153  40.8526373  79.6650982  88.8807392
  41.4942408  79.5791340  89.5858479  40.3030825  78.8854599  88.9605999
  20.5650115  51.7349195  76.2791729  20.0500751  51.4694881  77.0411587
  21.2335658  52.3207808  76.6341782 111.1319175 103.0962181  87.3160744
 110.4156756 103.0521107  87.9495430 111.7509767 102.4268436  87.6075077
  42.4966992  21.1454314  78.7691832  43.2669312  21.6548652  78.5172844
  42.0857678  20.9059543  77.9385138  52.2261073  59.6015160  20.4455948
  52.4632169  59.7105591  19.5246601  52.7442099  60.2616208  20.9060955
   3.5760027  56.4826679  77.0864153   3.9311594  55.6808281  76.7028189
   4.0042523  57.1893835  76.6033173   8.0216412  47.1634953  28.4570026
   8.0367951  46.2098878  28.3755779   8.6000304  47.3499482  29.1965580
  43.3299685  77.0294428  46.4895487  42.5878382  77.6297951  46.5605783
  43.7470341  77.0612574  47.3505211   3.4148335  41.2805319  38.5828352
   4.1821069  40.7364035  38.7601781   2.9717419  41.3525963  39.4282413
 101.5673973  17.7500670   2.9298306 101.2622835  16.9546740   2.4933815
 102.0570947  18.2206004   2.2552776   6.8137532  58.6187267  89.7350979
   7.2591919  57.9345512  89.2353821   7.5005758  59.2546082  89.9355030
  80.8714046  26.0668461   4.8979950  80.6991400  26.5421527   4.0851974
  80.1977523  26.3760512   5.5036545  73.6888433  11.2829513  70.5686951
  74.5060254  11.1233062  71.0408831  73.9612413  11.7080039  69.7554493
  40.6467390  59.2960596  66.0030174  40.1977921  60.0793839  65.6850767
  40.8770227  58.8131952  65.2092648   7.3933463  33.1455224   9.6602821
   7.6299195  32.2187989   9.6983051   7.2872071  33.4033768  10.5759716
  37.4827027  68.5356712  67.1602869  37.4411225  68.5810804  66.2050676
  37.3729777  69.4419432  67.4481535  47.1783400 100.1618862  46.7199564
  46.8221426 100.4776859  45.8895206  47.2605324  99.2156792  46.6009426
  24.9349213 100.5152893  71.3424778  25.8727503 100.6977081  71.4010906
  24.8343468  99.6488667  71.7367077  30.1092386  92.7876377  75.5098677
  29.4821620  92.1374798  75.1931715  30.8817005  92.2770596  75.7524490
  60.2565528   1.8575686  65.9867811  61.0521293   1.3753623  65.7614851
  60.4160858   2.1821422  66.8730259  40.4320674  19.2737906   2.8401947
  40.7747512  19.8424380   2.1506786  40.3612475  18.4129946   2.4275875
  29.3997431  98.0282688  65.9224796  30.2274132  97.5527859  65.9939671
  29.5929098  98.7582397  65.3342056  31.0865808  71.8923855  78.5893583
  31.2637234  71.2037849  77.9485083  31.6790748  72.6038361  78.3464146
  96.4776351  12.6264327   9.5427418  96.0452510  11.9104283   9.0773201
  97.2848870  12.7785390   9.0513802  47.3193432 103.3450531   2.8736687
  47.2622824 102.5322794   2.3713112  47.7889229 103.9494537   2.2988415
  38.0760932 105.2102947  65.4745197  38.3462071 104.9349880  64.5984602
  38.5595012 104.6339035  66.0663986  13.2603729  71.9530630  44.7686434
  13.3712983  71.0184860  44.9432898  12.5553167  71.9939518  44.1225386
 108.4728910   8.5850089  11.3519096 107.5323082   8.6548989  11.5151691
 108.8676883   9.2186635  11.9509602  57.6262356   1.0371036  71.1756563
  57.2541250   1.0085315  70.2942085  56.8924595   0.8246058  71.7524147
  26.6060448  93.1206131  81.2376881  26.6589546  93.6149216  82.0556641
  25.7474470  93.3436871  80.8781338  28.5238910  55.6107616  85.4237652
  28.8818526  56.3669395  84.9586964  29.0315080  54.8672628  85.0985527
  57.0742178  99.7497272  57.0872164  56.2401295 100.1562595  57.3222876
  56.8471384  98.8456440  56.8697309  99.3344547  54.9059861  10.9305763
  99.6204878  55.5957596  10.3317261  98.9609386  54.2337220  10.3606796
  23.5919023  87.0107555  26.1751223  23.6604524  86.8533707  25.2334404
  22.7373481  87.4273014  26.2867570  45.1813657   2.0770949  74.4822121
  46.0419518   2.4959964  74.4700623  44.6923942   2.5141257  73.7849712
  61.6505766  99.5827484  52.4837494  61.8238497 100.5229950  52.5299740
  60.8539677  99.5115757  51.9578409  78.3429398  26.3470452   5.8389473
  77.8574102  25.6760686   5.3590679  78.0452175  27.1745150   5.4609394
  98.1119348  39.9331372   5.9869385  98.3737041  39.7000020   6.8776417
  98.9233090  39.8933022   5.4806614  67.2016144  73.2031775  76.8376541
  67.1483183  72.2529793  76.7351246  66.3127422  73.5130405  76.6640949
  47.2670841  83.9532757  74.3455362  46.8857813  84.6672249  74.8565245
  46.5326929  83.5985756  73.8444471  38.3523130  80.6282234  91.0524368
  38.6901093  79.9666739  91.6561508  39.0762496  81.2448692  90.9433365
  29.4536328  96.4423943  91.1188984  29.6041155  96.9434643  91.9204712
  29.6651244  97.0521641  90.4120159  73.0722237  61.9953728  88.9173317
  73.1738472  61.3995934  89.6595955  72.5863218  61.4876461  88.2674599
 110.4215981  48.2697861   7.9657269 111.3383771  48.0565636   7.7917004
 110.2496172  49.0435307   7.4290848  65.4843664  94.3149376  67.9844666
  64.9413490  93.5547161  67.7760649  65.7251024  94.6781921  67.1322203
  26.6525722  61.8886900  71.1798143  26.2155938  61.3814259  70.4957342
  26.8095183  61.2578964  71.8824530 109.7217289 103.9596272  80.6792068
 108.8351056 103.6395168  80.5128860 110.2614684 103.1694126  80.7012463
  30.1456094  99.2259407  81.8085003  29.2161226  99.2853451  81.5876865
  30.5656147  99.8853207  81.2561893  30.7402039  87.8877831  77.5851727
  31.6500235  87.7477169  77.3228025  30.5257249  88.7584972  77.2503757
  32.1774530  75.2081728  70.0358248  32.8551173  75.8499432  69.8233795
  32.2079730  74.5798826  69.3143320   9.8618585  80.6610203  58.3913326
  10.2128816  80.5317974  57.5102425  10.6361103  80.7287216  58.9500618
  32.0291424  95.1959324  88.9973640  31.4015818  95.3149605  88.2844639
  32.8302360  95.6156731  88.6838436  80.2360965   0.4560966  67.2536087
  80.2061511  -0.3825074  66.7930889  79.6159364   1.0112208  66.7808771
  26.7944837  93.7853718  45.3078413  26.1520052  93.2597923  45.7845211
  27.1171761  93.2032204  44.6199465  11.6047673  10.0937884  29.7125435
  11.4079241   9.6150916  30.5177307  12.3348431   9.6141713  29.3211460
  28.6480570  92.0484924  60.5543184  27.9684281  92.4118710  61.1220264
  28.5243106  92.4948406  59.7166443  51.8443108  98.5716248  78.4373903
  51.9703341  97.7136898  78.8427210  51.9983101  99.1963005  79.1461182
  20.3080297  66.6542578  90.8393002  21.2373662  66.4922428  90.6770802
  20.2561188  67.5933361  91.0172749  46.6564803  28.2077401   2.1269512
  47.2466902  27.6450818   1.6256523  47.0791392  28.2975571   2.9810810
  20.3808236  97.2226906  80.7495117  20.4572201  96.4123917  81.2532997
  19.4607735  97.4723625  80.8355427   5.8124594  42.4713128   5.1807404
   4.8659377  42.5187581   5.0463200   5.9216075  42.5088780   6.1309528
  72.7645732   8.7391204  69.8839092  73.3381129   8.9807624  69.1566563
  72.5036789   9.5747584  70.2710533  34.8883128  87.4183178  67.9370785
  33.9914298  87.0881844  67.9904032  35.0737882  87.7507496  68.8153267
  23.1892276  60.1049376  87.9589367  22.9983425  59.3286371  87.4324894
  24.1446471  60.1631975  87.9620934  26.0670972  73.1106567  57.8822184
  26.5982509  73.3598948  57.1259212  26.5470719  73.4543371  58.6357021
  24.6237636  51.9555330  67.7752829  24.2150640  52.0729208  68.6328459
  25.3355718  52.5953150  67.7595997 102.0576765  42.0756619  14.3714142
 102.3313023  41.9050210  13.4701729 101.8848468  43.0168336  14.3951225
  16.3650274  40.1116848  52.8556538  15.8766699  40.6487656  52.2317266
  16.5708590  40.7081556  53.5754347  23.9341688  41.3636255  72.0700788
  24.4662952  40.7659340  72.5952816  23.0535793  40.9896088  72.1001148
  54.7488070 100.0658630   7.8527164  54.6813513 100.8876108   8.3389378
  55.6563581  99.7879957   7.9767227  35.6392264  80.6531715  44.1852188
  36.3228750  79.9832344  44.1913795  35.9883451  81.3464928  43.6251688
 102.3303673  78.9962626  83.7291050 102.3420396  78.0989313  84.0621185
 102.9304740  78.9828634  82.9835033  71.1102138  40.0534051  12.3459530
  71.2142487  39.6232503  11.4972019  71.1523740  39.3400185  12.9827785
  18.9982037  62.9253857   6.8142986  19.2706303  63.5663216   7.4709702
  18.0427174  62.9159920   6.8707275 106.1961080   3.2469599  13.3317757
 106.1170389   2.3885100  12.9157925 105.6037380   3.2048123  14.0824795
  21.9764090   2.6613921  61.2890959  21.1986399   2.1438426  61.4975500
  22.6105452   2.4238700  61.9656229  68.1784678  59.5794725  78.7905359
  68.1207228  60.2873516  78.1488132  67.3666573  59.0854597  78.6759043
  62.0025492  72.7220917  59.3911457  62.4680996  73.4310675  59.8348141
  61.5159130  72.2820950  60.0881577  78.8726859  31.4167779  10.8757496
  79.3777366  31.5100091  10.0679970  79.5147820  31.5386098  11.5751076
  56.6388607  92.9666233  67.8928375  57.2381735  92.2226715  67.8328037
  56.3785362  92.9907703  68.8136435  80.6266261   0.3745383  63.7621260
  80.3351355   0.7377070  62.9258394  81.4963437   0.0192565  63.5788393
  61.4729023  85.7747936  66.4961767  60.7697105  85.3898716  65.9731197
  61.5489292  85.1982975  67.2565174  66.8121624  84.4625473  85.9167480
  66.6627026  83.7077808  86.4861584  67.4689627  84.9841976  86.3779736
  12.7547650  55.6771653   6.6558552  13.3896784  55.5790703   5.9462833
  12.8935818  56.5670006   6.9801426  90.7800318  45.0307648   4.1830349
  90.1439787  44.3676751   4.4513130  90.3364564  45.5223172   3.4917641
  34.5128036  72.2397470  53.3574820  35.4601169  72.1611309  53.2450104
  34.1590571  72.1608162  52.4715519   4.8456860  95.4816437  80.0076866
   5.2118373  95.1663589  79.1813946   4.7466773  94.6936226  80.5419636
   7.3083739  43.1401150  16.1778545   7.3862986  42.5994103  16.9638538
   7.3574404  42.5171559  15.4527664  76.6249052  17.1681779   3.3587265
  76.4094756  18.0907052   3.2217407  75.8971880  16.8269150   3.8785362
  83.5831071  33.4390849  85.3660488  83.0089522  32.7330989  85.0691223
  84.4682599  33.0999965  85.2327919 101.4446713  67.4334996   3.2868576
 101.1691119  66.5193741   3.2185078 100.6271388  67.9313080   3.2792473
  19.2314506  70.5511856  83.3861542  18.6116195  71.2787104  83.3337116
  19.1476297  70.1039410  82.5440311  15.7372558  59.7269201  84.5851898
  16.0925531  59.2472982  83.8368797  15.8012974  60.6477404  84.3317699
   4.4482474  67.2537701  18.4191990   5.0236420  66.7873471  19.0255070
   4.0439992  67.9387944  18.9516926  44.3416023  79.4119263  70.1537466
  43.6498642  79.9461508  70.5440474  45.1177359  79.9717188  70.1756763
  42.1820641  79.1018724  78.9273691  42.0518827  79.2131424  77.9856157
  41.9532251  78.1875610  79.0944147  91.5744950  62.2757619  25.0944805
  91.8116309  61.3539879  24.9928284  92.2630681  62.6403039  25.6505489
  40.1844358  88.1960106  58.2662153  40.9232283  88.7861633  58.4150219
  40.0128651  87.8061676  59.1234303  46.0429716  93.6809444  70.2444220
  46.6044617  94.4416237  70.3938580  45.3732681  93.7400436  70.9257746
  89.8959876  13.3984489  74.5169973  90.6747437  12.8467864  74.5907307
  89.5102311  13.1569213  73.6749220  96.3888265  29.0203469   6.6051006
  96.2133338  28.9790242   7.5451660  97.0102455  29.7420304   6.5089607
  43.8704777  72.2977924  65.5830860  43.9320278  73.1109905  66.0842371
  42.9343176  72.0992470  65.5627632  33.9072466  77.0771265  89.0941906
  33.0486083  76.7637587  88.8099861  34.3036699  77.4406433  88.3024025
  45.5765415   6.8085879  61.4238167  45.3936715   7.5019568  60.7897615
  46.3244534   6.3383216  61.0554314  88.4158469   7.9361362  46.6569138
  88.8910533   7.9360122  47.4878216  89.0450001   8.2771701  46.0212278
  82.2995567  99.1061687  72.5048733  82.3205376  99.1728115  71.5502262
  82.9903793  99.6985912  72.8015614  65.7969856  91.0845757  79.5188332
  65.2392006  90.3230953  79.3599367  65.1843882  91.7935085  79.7147274
  27.4936438  79.3846464  88.8234615  27.1018028  79.9085617  88.1247425
  28.4321833  79.5606756  88.7572384  66.4731216  88.0394173  60.1204443
  66.9072723  87.4707127  59.4845819  65.8968830  88.5924816  59.5929050
  40.4419279  96.8638134  60.6483078  40.3289413  96.9006443  61.5981007
  39.7192073  96.3158989  60.3422022  47.0086336  84.9542999  62.7730560
  46.4850521  85.3291702  62.0648432  46.8661737  85.5434132  63.5139227
  78.4728835  81.9702523  19.4138718  78.0118515  81.1904996  19.1045761
  79.3419270  81.9076531  19.0175438  14.8509030  19.0749447  15.3083134
  14.7204928  19.6121924  14.5269108  14.1589789  19.3530648  15.9084129
  83.9957619  20.7984752  64.4067717  83.7258197  20.7376403  65.3231001
  83.6546040  21.6428870  64.1121292  23.2032108  70.5353546  81.7754459
  22.6878762  70.0454235  81.1346436  23.8515377  71.0062313  81.2518215
  99.4642021  28.0960839  19.3815327  99.0005757  28.9079754  19.1762924
  99.8578311  27.8285401  18.5510445  43.3238554  86.0027885  90.4537010
  44.2131519  86.2728691  90.2247143  42.7604389  86.5247822  89.8824596
  72.6707315  91.6345501  54.1251850  72.4190950  90.9153652  54.7045612
  72.5014544  92.4252319  54.6374416  32.3209310  78.2807827  84.8083591
  32.9161549  78.1521749  84.0698528  32.7968550  77.9336548  85.5628395
   1.6572174 103.1640434  90.5721760   1.9227277 102.9477119  91.4660072
   1.0501838 103.8971806  90.6734371  99.4125034  71.7294114   2.7635193
 100.0634147  71.3746255   3.3690548  98.7978674  72.2036545   3.3234692
  36.8282270  86.2634563  43.1484413  36.9147849  87.1883392  43.3793736
  35.9245181  86.1758327  42.8453541  25.2715544  69.4917100   2.2730637
  24.8111252  69.9726479   2.9607677  24.7321705  68.7156479   2.1213055
  64.4080139  19.7976893  89.3473244  64.0381814  19.3725127  90.1210785
  63.7351490  19.6968955  88.6740303  88.7868942  21.2994950  15.7326889
  88.1494524  20.9658806  16.3640308  88.9649679  20.5561297  15.1565456
  29.7913527  69.4905329  85.2540398  29.9319291  69.1460800  84.3720913
  28.8744473  69.2929363  85.4450130  16.4605622  46.4216893  13.6136627
  16.4260773  46.4007752  12.6573181  17.1106867  47.0946972  13.8152313
  63.0422116  22.8517264  42.7103615  63.6481286  23.5075587  43.0553102
  63.2109142  22.0697898  43.2360506  10.8754861  97.4358845  75.0199175
  11.2590468  97.1909142  74.1778326  10.9691739  98.3877277  75.0579453
 100.6467534  26.8033237  69.1610289 100.0233985  27.5204200  69.0450573
 101.2927581  27.1451491  69.7791481   2.4265437  34.9981587  11.9761467
   1.9477110  35.5985348  11.4047432   3.0379109  34.5486252  11.3927269
  11.5022433  73.5673141  81.6633797  10.8275890  74.1762400  81.3629055
  12.3278928  73.9828730  81.4146900  37.7602959  72.8931808  72.2685385
  38.0292583  73.3850527  73.0443907  38.2344556  72.0642662  72.3341751
  80.8368823  97.3077488  73.8466835  81.4501902  97.2323132  74.5777082
  81.2789199  97.8821659  73.2214880 100.3615619  47.2477524   4.4298649
 100.4249717  47.6717942   5.2856636 100.7034637  46.3653748   4.5738506
  28.9112115  93.2470894  86.9283581  28.9503598  92.3588848  87.2830486
  29.7083855  93.3314514  86.4052677   5.6042993  93.7388992  86.9728851
   4.6888310  93.8505554  87.2291756   5.5929458  93.0062675  86.3569736
  35.1955938 100.8456993  85.2145672  35.8147478 100.2267933  85.6016636
  34.3586421 100.6389999  85.6305218   3.1282979  99.7281837  76.0195017
   2.4524227  99.2930317  75.4998207   2.6500458 100.3679657  76.5469408
   1.7840438  51.5169137  27.3717403   2.6324587  51.1336415  27.5942802
   1.5809660  52.0933144  28.1084538  22.0243430  91.1902142  80.7742310
  21.2459326  91.4734840  81.2538815  22.6224017  90.8760548  81.4523602
  19.3466425  55.5526209  77.1045828  19.7584736  55.4116678  76.2520838
  18.4163201  55.6596327  76.9063950 103.1883933  65.7837670  26.8186665
 102.5619222  66.3461487  26.3631439 103.9458205  66.3474362  26.9761753
  12.2036032  35.4315083  10.2436352  11.3253741  35.1548569   9.9820900
  12.6573662  34.6165650  10.4585648  55.8159256  59.0827513  85.0102234
  55.5976152  58.2946920  84.5126915  55.7534170  58.8125801  85.9263802
  64.8608541  73.6669970  82.0749664  65.4073000  74.2065382  81.5035439
  64.9558306  74.0632200  82.9411221  59.5689429  61.6228955   1.4969730
  59.3194236  62.4928277   1.8087387  58.7389173  61.2005227   1.2758636
   9.5429997  64.6351616  30.1357746   8.8527779  64.8750489  29.5174885
   9.9643569  63.8721554  29.7401619 110.0359364  97.4950218  83.6412430
 110.1131371  98.4306622  83.8279533 110.9282403  97.1592999  83.7267685
  20.7568216  92.4154663  76.6043472  19.9618959  92.0864296  77.0239353
  21.4708090  92.0731735  77.1422005  39.3427920  77.9000235  76.0444212
  38.7109590  77.1951818  76.1866093  39.2889261  78.4335327  76.8373251
  45.1050854  80.3147125  49.6650076  45.6206512  80.1690960  48.8717747
  44.6660042  81.1519241  49.5149565  69.7321082  32.4810046  87.8099060
  69.7064281  32.9676646  88.6337662  70.4746271  32.8537768  87.3345757
  42.9858065  93.0904102  86.4112759  43.1069851  92.4055862  87.0689774
  42.8477859  93.8893700  86.9200420  31.7563415  63.0637550  76.6538048
  32.2986007  63.6963749  77.1249485  32.3281145  62.3069096  76.5253592
  15.2260280  88.9104366  64.3564987  15.4806590  89.8257160  64.2396402
  15.9437120  88.4106255  63.9674616  62.4639463  87.0159817  86.6137695
  62.9234791  86.3837528  87.1663475  63.0653191  87.7577209  86.5474224
  74.5784140  83.1622887  73.1365633  74.1976213  82.3630142  73.5004091
  75.4670429  83.1873131  73.4914494  66.7371870  22.9191226  54.9632931
  66.5352393  22.9737968  55.8973503  66.0113765  23.3724135  54.5343924
  61.1936617  88.7887383  79.7732258  60.6532717  88.5550499  80.5279446
  60.8925581  89.6626186  79.5244455  97.7909209  64.8656838  21.7443085
  98.7139679  65.0842087  21.8726349  97.7392079  63.9275544  21.9272518
  43.2402420  91.2441635  88.2835388  43.6776924  91.7383099  88.9768505
  43.8791609  90.5809689  88.0224228  29.2911100 103.9723682  52.8619957
  28.4946299 104.3884659  52.5322676  28.9801741 103.3379459  53.5077953
  41.7735867  11.0239260  24.4288731  40.9062962  10.6235068  24.3680191
  41.6759829  11.7070811  25.0922012  83.2854696  14.4588130   3.8113022
  83.4469129  13.5281365   3.6563587  83.8872243  14.6918337   4.5182800
  59.2525864  71.6843462  76.0068798  58.4149361  71.2259722  76.0737514
  59.6190548  71.6436625  76.8902111  92.3705842  42.1347993   1.4900970
  92.0695569  42.4796288   0.6494427  93.2105233  42.5686925   1.6400242
  54.0341663  77.4150467  72.1043491  53.4197187  77.8722858  72.6784706
  54.8935938  77.7538967  72.3549557  92.4990083  20.0206584  69.5864487
  92.1348048  20.5020637  68.8435936  93.2321645  19.5286674  69.2167854
  70.5519247  67.3282719  83.9877605  71.2743378  67.6055622  84.5512009
  70.7541132  66.4185238  83.7693501  59.4730688  13.1064528  74.8883438
  59.1821361  13.7316531  74.2244816  60.2142454  13.5370273  75.3143692
 104.5182325  28.5810845  10.8122635 104.2524578  27.6618188  10.7886887
 105.3147437  28.6137765  10.2824211   1.3451628   8.8301604  24.9117851
   1.3305502   8.1772034  25.6115532   1.7761259   8.3878558  24.1804409
  84.3943687  56.5170376   7.6598263  84.4582756  55.8581345   8.3512020
  83.4620674  56.5495389   7.4453735  53.7831640  92.6191616  56.8467188
  53.0863905  93.1085682  56.4094353  54.5923996  93.0248451  56.5356016
  43.6170101  98.0418587  64.7446346  43.6635160  98.8618374  65.2362633
  43.0221748  98.2310867  64.0189648  13.4767950  64.0874624  89.1490555
  13.3322823  63.2014227  88.8169670  13.1346941  64.0670300  90.0428009
  23.0782799  81.7618744  19.6612835  23.6100678  81.7823689  20.4569054
  23.7144093  81.7988198  18.9469910  51.7586660  89.8042202  90.0123119
  50.8207560  89.6213055  89.9566650  52.1667862  89.1302586  89.4687557
  45.5946016  90.0354004  87.1075344  45.2422237  89.4619846  86.4269066
  46.2949228  90.5215168  86.6722488  44.3091540  81.8569653  13.7671852
  43.8842444  81.4953129  14.5449352  45.1195578  81.3547986  13.6816692
  12.9651074  43.5388463   0.2438545  12.0487265  43.3192723   0.4119778
  12.9320006  44.3962185  -0.1804829  66.7699082  24.2141955   8.2787418
  65.8676405  24.4470255   8.0597973  66.6926290  23.6610263   9.0560913
 107.8218508  30.5093783  89.3677235 108.5836697  30.7312221  89.9031162
 107.1218873  31.0693282  89.7034836  38.9709973  85.4556465  80.6801224
  39.4909382  86.2526417  80.7835102  38.4453869  85.4072952  81.4786339
  52.1234692   2.9610271  89.3180180  51.3213492   2.5771159  88.9638424
  52.7399135   2.9456538  88.5859013  94.3975712  60.1262276   2.0085526
  94.8011066  59.3065446   1.7230701  93.5501529  59.8635857   2.3678970
  33.7322092  74.4627237  89.7598743  34.0432429  75.3000593  89.4158268
  34.4515014  74.1463089  90.3064346  24.3162251  88.8667393  60.7553720
  23.7136841  89.2921925  60.1453209  24.6008372  88.0753994  60.2981853
   7.9106574  30.6125634  19.4871616   8.5341267  31.3123982  19.2928886
   7.2013573  31.0480874  19.9598598  10.0602472  91.5810013  78.9663982
  10.1211774  92.2781563  78.3133364  10.6437635  91.8615627  79.6713972
  46.6255188  80.3858566  81.6242409  46.7934847  81.2877464  81.8973732
  46.0691214  80.4697895  80.8498955  65.9803867  92.3202515  70.1438093
  65.7422829  93.1021690  69.6456671  66.4764500  92.6542568  70.8912039
  96.3357736  34.2330163   4.5514202  96.6470553  33.3304303   4.6197128
  95.4617836  34.1566365   4.1686153  95.2607966   6.3322371  83.3553410
  95.4924823   5.6198806  83.9512444  95.4666997   7.1294230  83.8435364
   3.3629803  67.3730080   1.6971588   2.8337340  66.5779107   1.7599869
   4.2646746  67.0567219   1.6410828  44.6377802 100.1678944  89.0902996
  45.1221323 100.7714367  89.6536446  43.7477350 100.1735973  89.4424629
  96.3512183  28.0085391  44.1442394  96.0611249  27.1710986  43.7826061
  96.8925954  27.7698344  44.8966742  62.5511218   8.7659282  59.9005079
  63.0463720   8.5143107  59.1209936  62.1687198   9.6146697  59.6777010
  23.7837195  94.8460579  64.7858572  23.7750769  95.1274109  65.7007360
  24.5524764  95.2754211  64.4104910  53.6505365  80.0673771  49.3960190
  53.1754065  80.5714798  50.0565958  54.3188810  80.6699848  49.0698147
  14.6811831  70.9729433  88.1696892  15.0043011  71.1147785  89.0594673
  13.9772701  71.6131783  88.0655956  70.6022596 100.7693768  51.9098425
  69.9012089 101.2439346  52.3565578  70.9064865 100.1296806  52.5536394
  42.2442484  87.8920364  75.2153826  42.6176739  88.0834866  74.3550730
  41.5559864  88.5474968  75.3289843  17.0025353  78.2783406   8.7653732
  16.8001656  79.0136330   9.3438435  16.5768675  78.5007947   7.9373837
  50.8730829   1.1235255  66.8640518  51.0534645   0.7031745  66.0232210
  51.0995472   0.4608554  67.5165844  17.9633145  72.0755093  24.5039463
  17.6839881  71.1614030  24.4527721  17.8739600  72.4037068  23.6092186
  96.0114241  16.4610785  89.4947433  96.0835458  16.4666766  90.4492092
  96.5537406  17.1963519  89.2092514  47.8287745  96.3524628  65.7986689
  47.5767517  97.1872044  65.4038048  47.1283340  96.1614132  66.4224625
   4.6584992  43.7034505  23.6096478   4.1986518  42.8803342  23.7747002
   5.1057009  43.8973324  24.4334602  94.5625330  50.5282395   1.1236000
  94.7878219  50.4552548   0.1961613  93.6766948  50.1706021   1.1837578
  42.7547836  79.1190720  90.6866932  43.6406469  79.4803905  90.7171345
  42.8833437  78.1814528  90.5432606  26.6348028  82.9452038  90.7081413
  26.3242626  83.8112831  90.4441261  26.1727571  82.3384857  90.1296616
  82.9934312  28.4597224  71.9581556  83.4919215  28.9028567  72.6447153
  82.9847718  27.5402183  72.2240019 106.4595081  28.7644379   4.3421268
 107.2468115  29.0470975   4.8074055 106.5399910  27.8119557   4.2918491
  16.1329751  58.8349717   2.9018116  15.3947215  58.4678071   3.3880234
  15.7281737  59.3833153   2.2297287  12.1728253  85.0729084  70.5102348
  12.7853036  84.5524597  69.9903917  11.3643587  84.5604515  70.5117655
  29.5755935  74.5607519  86.0846996  29.5734859  73.7529373  85.5712223
  29.9868774  74.3164778  86.9137955  46.5055370  96.0178566  84.6481609
  46.2460375  95.1668549  85.0012779  47.4306774  95.9129715  84.4260216
  58.3085203  97.2751713  25.9048057  57.8457880  97.7231026  26.6129518
  58.4963512  96.4042377  26.2546945 109.9689961  32.5823611  42.8517199
 109.0436650  32.7852935  42.9888868 110.3184462  32.4503631  43.7330246
  39.6588564  82.6618671  81.1609364  40.2691555  82.3961830  80.4730606
  39.4554853  83.5755730  80.9608746  71.5993786  70.9921598  81.9510555
  71.8797827  70.7070208  81.0813999  72.0955753  71.7948294  82.1114922
  58.3444118  97.0696640  67.2952795  57.5018644  96.6534615  67.4772644
  58.1519556  97.7110386  66.6112995  48.6329226  53.1578152   0.3807735
  48.7670855  54.0627377   0.0990868  49.1129355  52.6337044  -0.2604294
   7.8033928   9.2523498  45.8128309   7.4679951   8.8110656  45.0324440
   7.0401291   9.6943397  46.1847258  21.6335845  49.2542124  55.8163977
  20.8155131  49.2383862  55.3196669  22.1623898  48.5565519  55.4292679
  67.8395386   3.1675809  60.0495815  67.2665353   3.9147704  60.2216530
  67.3581673   2.6379769  59.4139385  64.7793079  29.5054549  80.4445076
  65.5258585  29.3095130  81.0106373  64.1724325  28.7793845  80.5885315
  91.9179214  49.9165719   1.5964413  91.4702643  50.3277485   2.3358727
  91.2304689  49.7846310   0.9435749  91.5397145  75.2847951   3.0232525
  90.6071223  75.4435341   2.8772926  91.9078959  75.1953499   2.1442318
  19.6293044  97.1576405  61.7125082  18.7826538  96.9341660  62.0991278
  19.4741380  97.1376705  60.7681799  37.6124454  81.3090611  82.2049427
  36.8994427  81.9140053  82.0002651  38.4051228  81.7733479  81.9359970
  86.2687541  15.6324500  67.6387215  86.0517550  15.1054114  66.8697119
  85.4840422  15.5928344  68.1854248  40.6521797  94.2547226  33.0516839
  41.4255857  94.7289181  33.3569837  40.2851772  94.8117828  32.3652244
  72.0235395 102.4153233  77.8422308  72.2831440 102.1268463  76.9672346
  72.7139425 102.0859909  78.4176588  40.5715322  82.4352169  89.3530369
  40.9388924  81.6573429  88.9332962  39.8798013  82.7243805  88.7579536
  78.6136342   6.7979735  65.4326105  78.2115412   6.0227222  65.0407553
  78.4918404   7.4870128  64.7794437  37.6778030  92.2660255  39.7857881
  38.1191444  92.7361774  40.4931879  36.8002272  92.6470852  39.7559595
  26.2866449  80.2086449  67.0396852  25.3466916  80.0400829  66.9740391
  26.6946149  79.4692659  66.5889978   7.3000479  95.4249477  88.4523678
   8.2124835  95.1542091  88.3504105   6.8141741  94.8608112  87.8507805
  15.4875664  61.0875981   1.3985634  15.9706502  61.6299527   0.7750893
  15.1772551  61.7039101   2.0619679  66.2720966  99.6330357  79.9516535
  66.7330170 100.2233410  80.5477524  65.4240847 100.0528049  79.8070669
  75.9664726  93.2263374  66.5569639  75.4785347  94.0191936  66.7794895
  76.8830013  93.4599400  66.7040730  26.2597661  14.7846882  18.3283997
  26.4970355  14.1802209  17.6251507  26.2042670  14.2337840  19.1092014
  39.7248654  81.5354149   9.3762302  40.5225567  81.0844319   9.0996075
  39.1323666  81.4542191   8.6288452  62.3973370  94.5103359  84.6169090
  62.1953392  95.0691509  85.3673458  62.0192814  94.9700928  83.8672829
  98.7862302  20.6244296  84.7004604  99.6884251  20.5000037  84.4058514
  98.8010312  21.4571113  85.1723099  66.0571123   8.0958194  65.7392359
  66.2558032   8.7345618  66.4238977  66.8194891   7.5172442  65.7229090
   8.2038455  50.8919900   8.4586430   7.5284819  50.6345265   9.0861988
   8.8990359  50.2445309   8.5758400  35.4607081  99.9635124  88.4743690
  34.8814082 100.4835796  87.9174328  36.2570381 100.4893970  88.5487747
  49.7653294  83.8535023  72.2239590  49.0455914  83.7613678  72.8482342
  49.3879700  83.5941696  71.3833761  34.0042973  86.6082001  42.5963688
  33.7993073  86.8189812  43.5072947  33.8590169  87.4270916  42.1225166
  94.0594817  21.5848559  84.1968727  93.1493760  21.3633842  83.9996624
  94.5297862  20.7545871  84.1213894  44.5188479  46.2846463   4.4707870
  44.0192656  47.0745938   4.6772575  44.2808680  46.0802930   3.5664463
  64.3939829  93.4669590  89.7746944  64.3953228  94.3423939  89.3876171
  65.0179672  93.5240746  90.4983139   8.5817164  95.8935738  60.0695324
   9.0594220  96.1462593  60.8595848   9.0579498  95.1339149  59.7343540
  93.1623841  36.5613383  80.3315449  93.1871081  35.9250468  79.6168756
  93.9992524  36.4480609  80.7821560  58.2998180 101.5793705  51.6095018
  59.0047073 101.2906933  51.0298204  57.7698660 100.7949638  51.7512083
  18.0137496   1.3566201   1.1748600  18.4971146   0.9334414   1.8844414
  17.6444630   0.6314652   0.6708622  96.2343265  88.8734429   1.9207859
  96.5998293  88.0260747   1.6666222  96.5958787  89.0387814   2.7915192
 107.4409844  38.5201256  23.5328484 107.6878788  38.8835328  24.3832684
 108.0451633  37.7896874  23.3999920 101.8288566  72.7041810  17.5107574
 101.4972641  73.4079354  16.9530773 101.5580703  71.8999283  17.0679474
  26.7557263  76.1742735  80.7617760  27.2404408  76.5675783  81.4874458
  27.3755336  75.5636215  80.3628159  90.2660180   3.0418033  60.4079008
  90.7530070   3.7218780  60.8732700  90.1818801   2.3304576  61.0428333
  48.1851625  77.1337891  85.9501648  47.5924301  77.4207306  86.6448307
  48.8245630  77.8419352  85.8731937  17.1886051  96.8364620  63.1801081
  17.2879410  96.7118168  64.1239452  16.3402343  96.4436913  62.9746246
  35.5033445  87.7982140  81.5136051  35.1001453  88.6629295  81.4365387
  34.7768974  87.1846008  81.4041519  33.3693886 101.9569874  50.5573130
  32.7120662 102.6213837  50.7640696  34.1544867 102.4576759  50.3355742
 110.1522376  59.4893258  38.8176346 110.2015711  59.0517132  37.9677582
 110.4080440  58.8165753  39.4486618  75.2372783  27.1808474   5.1173115
  74.5086725  27.7513497   5.3620338  76.0197459  27.6657384   5.3797150
  61.3411380   1.5880889  87.4377441  61.2732983   2.2932261  86.7939949
  61.0455514   1.9832915  88.2579136  27.9354958  36.5686696  15.3646183
  28.3946280  37.3362343  15.0236225  27.4408631  36.2336152  14.6167564
  41.6008568  83.3281708  86.2454510  42.0277929  83.5349178  87.0768452
  42.3055983  82.9930687  85.6911278  60.2828741 102.0666218  49.6918964
  60.7946873 101.5197659  49.0958834  59.8974895 102.7383327  49.1293049
  81.2951661  10.5315036  73.5084820  80.8755351   9.7027606  73.2775545
  81.3147116  11.0264796  72.6894236  23.6168408  91.3714981  83.0945873
  24.5565081  91.2384510  82.9698563  23.4451675  91.0517883  83.9803314
 101.7515851  17.9476947  74.2203426 101.8234254  17.1605987  73.6803818
 102.1872330  18.6295432  73.7089586  54.3514299  65.1602936  68.3607531
  53.6601257  65.8009720  68.1938362  54.0063143  64.6140528  69.0669727
  83.4444332  90.4703522  81.3295460  84.1613865  90.0846672  81.8329906
  83.8076115  90.5954456  80.4527950  60.0441360  74.8420191  86.3447475
  60.8301783  74.8266029  85.7987309  60.0237894  75.7264042  86.7103767
   3.5111159  93.4004498  81.7742062   3.0182356  93.6565018  82.5537777
   4.4206613  93.3573437  82.0693302  10.7425217  26.4979571  67.6945734
  11.2120060  26.6387385  68.5167646   9.9625687  26.0032004  67.9458094
   3.0919556  38.0993550   3.6233902   3.3577923  38.8818352   3.1403923
   2.2065620  38.2960408   3.9293766   1.8257669   7.3294658  91.0944557
   2.0671228   8.2557410  91.0960293   1.0567097   7.2813910  91.6623306
  33.1179619  91.0345364  76.2440729  32.9385495  91.3397408  77.1333981
  33.6744761  90.2648258  76.3627052  58.1800365 102.3328590  42.1122026
  58.0693102 101.6851521  42.8082323  58.8949108 101.9889736  41.5765381
   8.8131814  68.9767544  30.8207130   8.0445485  69.5431416  30.7526207
   9.2645840  69.2793076  31.6087055  41.1637168  83.2547372  29.8767471
  41.7947821  83.9505475  29.6927834  41.5207915  82.4845021  29.4346237
  16.5979437  41.1590760   6.2892723  16.7150502  40.9249108   7.2099686
  15.8637004  40.6193249   5.9963799  19.2812657  78.3606148  90.3389931
  18.9946580  77.9940987  89.5024872  20.1053429  78.8035440  90.1366520
  91.3960470  70.8036130   1.6134548  91.9502915  71.3016598   2.2142792
  90.6430294  71.3728135   1.4546871  57.0750003  29.2384141   3.3757019
  56.2095313  29.5206349   3.6715984  57.6707606  29.9144166   3.6986923
  80.6358052  22.4171180  55.6371641  81.1721469  22.5668258  54.8586082
  80.7048131  21.4760989  55.7982254   6.0269741  20.0537890  43.0992985
   6.4923958  19.9129504  42.2748137   6.4157394  19.4224376  43.7046766
  87.2083617  28.6489696  56.5940428  88.1536055  28.5533542  56.7107010
  86.9082118  29.0652579  57.4020338  33.2279067  95.5941002  32.5107670
  33.9486413  95.1175206  32.0988941  33.6533122  96.1674969  33.1483269
  17.3400740  67.5767319   6.9275379  17.9648547  67.0466225   6.4327049
  17.8795819  68.0633252   7.5507545  14.3911128  31.9137375  30.6734657
  13.8106446  31.2845223  30.2452469  14.2394738  32.7355950  30.2067757
  39.0096259  64.2679310  61.3758135  38.3012533  64.4169998  62.0020866
  39.7530651  64.7518635  61.7354536   3.3538537  61.5783684  16.8313026
   2.5343685  61.1841958  16.5324593   3.4901719  62.3218339  16.2440109
  17.7693371  49.0062134   6.0919094  17.6615910  49.9561303   6.1396694
  18.7155728  48.8752549   6.0309315  47.2939873 103.7073421  54.6302652
  47.4924517 102.7905369  54.4397211  46.5375948 103.6719704  55.2157974
  23.9021564  74.7786617  86.0256863  23.2505965  74.1279697  86.2870312
  24.6511650  74.6106625  86.5975189  81.6724015  25.7439059  61.7407417
  82.4578048  25.2250117  61.9142723  81.9785596  26.4653510  61.1911726
  90.4549456   8.9266223  72.4311352  89.8774338   8.3429736  72.9231405
  91.0066272   8.3386535  71.9152212 110.8324887  76.1851113   8.7712097
 110.1889469  75.8772080   8.1330204 111.1604907  77.0058434   8.4037113
  74.2696810  89.4821167  73.3690023  73.5593128  89.2369270  73.9618731
  74.6905613  88.6525154  73.1435013  97.4441052  25.6358356  62.7149916
  97.2997332  26.5606326  62.9153109  97.3663426  25.1927775  63.5599089
  81.2138463   3.2301826  59.8344374  81.6865540   3.2095355  60.6665134
  80.8411313   2.3526877  59.7488785 103.1240321   8.1587810  89.7574329
 102.4792195   8.5948390  89.2003918 103.8743783   8.7530440  89.7656155
  23.6483526 102.3669815  51.6688347  23.4020877 102.8986549  52.4257374
  23.4601927 102.9239750  50.9134626  54.5179892 102.5999451  80.4024410
  55.4175663 102.6717567  80.7215595  54.6048117 102.5501442  79.4504833
  17.6854615  46.9289296  32.0934772  16.9248395  47.1386807  32.6354027
  18.4025912  47.4287789  32.4834728  74.2280293  12.9915923  78.5888624
  74.9591590  13.3268661  78.0699444  73.7365986  13.7727279  78.8429546
  25.7623485   9.1879386  79.5098400  25.4671768   9.2096919  80.4201317
  24.9865059   9.4228190  79.0007925  85.8649159  17.7262324  29.7504449
  85.7209206  17.6943797  28.8046741  86.2714673  16.8852061  29.9592805
  19.0558581  13.9529173  16.5991116  19.9977593  13.8701336  16.4501190
  18.9397053  14.8529761  16.9034576   3.4520010  20.3341598  38.1511188
   3.8357834  20.9127063  38.8100743   3.9334444  19.5121306  38.2445216
  19.9773030  53.4962266   4.5329571  20.8093218  53.6132519   4.9915218
  20.2004914  53.5821526   3.6061192  24.5300201  10.5660552  54.6134186
  23.7011818  10.1399821  54.3949747  25.0558857   9.8748511  55.0158310
  25.4865889  67.1911709  43.4131718  26.0666899  66.7733758  42.7766514
  24.6066432  67.0506947  43.0636120  67.0818711  25.2506179  63.7172127
  67.4149943  24.9683398  64.5690203  67.8436208  25.2158088  63.1386280
  47.4079895  92.2927189  80.7791424  47.5625277  91.3921738  81.0643959
  46.7045498  92.6065731  81.3473892   3.9192871   3.2590312  82.7504730
   4.1297678   3.7545508  81.9590187   4.7270159   2.7909392  82.9618835
  14.1172413  13.4620017  82.1926022  14.0820698  12.9745978  81.3695431
  14.7824959  13.0091781  82.7108860  70.5922365  76.1013031  67.2773409
  70.5654192  75.3255272  67.8374147  69.7299194  76.1272573  66.8626547
  31.7183137  93.2079124  37.2680259  30.9856462  93.8196468  37.3402190
  32.2134686  93.5157681  36.5088964  14.5078568  56.6732590  20.3807735
  14.1432242  55.8434575  20.0730419  14.0346388  57.3413842  19.8848820
  72.7980995  92.7766800  47.6374722  73.3834171  92.8348827  46.8823242
  72.3107243  93.6004448  47.6267910  89.1827297  98.1366920  49.8701239
  89.0880585  98.2110023  50.8197260  89.1082764  99.0360165  49.5509005
  85.0597621  10.3840846  64.2256832  84.4865371  10.6114882  63.4936094
  84.4616986  10.2009315  64.9502563  34.7046094  40.6071560   2.9701042
  33.8462691  40.3035824   3.2656097  34.5635466  40.8781712   2.0629692
  91.6980410  28.2326526  64.4004583  92.5768424  27.8620166  64.3194199
  91.7868138  28.9165515  65.0642586  24.1604142  43.7874882  19.7216892
  23.4515719  43.9699166  20.3385258  24.5715575  42.9911797  20.0579834
  42.0859484  51.8643277   5.2438259  42.4999289  52.7239411   5.3207207
  42.7633624  51.2467473   5.5193996  24.5280814  68.3885860  79.1893435
  23.9394164  68.3519077  79.9432373  23.9717269  68.6742878  78.4647226
  89.1077866  38.6414521   4.3170166  88.6459185  37.8036301   4.2857933
  89.0166558  38.9982598   3.4334850   8.3827691  58.1932252  17.3829746
   7.7717881  57.9954331  16.6731739   9.0438704  58.7561028  16.9800568
  83.5808039  25.1912135  86.4044952  83.0721331  24.9567050  87.1807003
  82.9261208  25.3129882  85.7168961  67.7490402   9.4667262  86.3024998
  67.6633406   8.5919303  86.6814804  66.8543411   9.7162742  86.0712624
  67.9198790  93.2140732  51.0586739  67.8210545  92.2872448  51.2765312
  68.8177681  93.4257221  51.3140678  12.7141528  27.2435706   4.0090466
  12.1734051  27.4006360   3.2349968  13.2255988  26.4647095   3.7898922
  73.7179709   2.6200885  86.0947037  74.2314769   2.4811572  86.8904686
  72.8609563   2.2431106  86.2938118   3.2632259  13.7057609  78.1458092
   2.8043798  13.0531329  78.6747408   2.7246908  14.4938392  78.2175636
  98.1350756  35.1104373  81.4408207  98.8592482  34.4999236  81.3027000
  98.2609225  35.7859820  80.7744503  49.1100836 103.3804035  73.6233425
  49.4378233 104.2281532  73.3231163  48.7611389 103.5544491  74.4975138
  15.4117446  82.4427025   4.3829536  14.4871001  82.6847355   4.3311405
  15.8650212  83.2659810   4.5645523 103.1956530  43.5420245  85.3147697
 102.2729922  43.5789985  85.0626469 103.3119870  44.2847651  85.9072495
  37.2206783  93.9528465  63.8756704  36.8048286  93.2140255  63.4313250
  37.8429556  93.5490704  64.4806194 101.5783192  28.5287469  28.8903046
 100.8680321  29.0134518  28.4698391 101.1348392  27.8947156  29.4538212
  23.8862996  58.8439744  48.4135056  24.6681504  59.2952530  48.0952454
  23.4474759  58.5367673  47.6202202  47.6552534  87.3598289  45.8776760
  47.8798437  87.9598331  45.1664877  46.6985559  87.3703671  45.9068108
   8.3346657  21.8887824  73.5465574   7.6094631  22.2861213  73.0644417
   7.9398064  21.1467666  74.0045118  91.4780522   4.2955321  68.1401491
  90.5988360   3.9928550  68.3673096  92.0563889   3.8213939  68.7376070
  14.7775178  45.2583974   4.1903019  15.0296168  45.0012200   3.3034325
  15.2424531  46.0811608   4.3423748  11.2995820  53.5066121   2.3317909
  10.6208949  54.1731732   2.4382114  11.9352393  53.6998742   3.0208683
  33.8788462 100.5868435  74.6267605  34.5819736 101.0569668  75.0749016
  33.1686568 100.5505753  75.2675009  16.0789876  56.3641636  17.9269123
  16.5798382  56.7707818  18.6340427  15.5809550  55.6681912  18.3556461
   9.7278552  61.2134450  16.9519043   9.8381667  62.1548741  16.8185806
   9.6787028  61.1102669  17.9022503  49.3179692  50.6065141   5.6943798
  49.2136110  51.0499336   4.8525238  49.8027194  49.8078822   5.4859638
  18.9687622  19.2379737  78.0516052  19.2573833  18.9756882  78.9257574
  18.1117284  19.6401405  78.1929779  14.0178227  34.9781895  61.3298750
  13.5249150  35.1578450  60.5292511  14.3975055  34.1110587  61.1878920
  95.7429633  16.1002564  62.0399380  94.8605606  16.4650786  62.1070385
  95.8336934  15.8609331  61.1175919  15.1486909   1.6779028  78.8944626
  14.8927784   2.0476328  78.0494499  15.6733167   0.9092243  78.6705542
  96.0414597  38.6725998  77.4889088  96.5810224  39.4217086  77.7417707
  95.1417181  38.9664936  77.6314688  13.5713947  14.3567145  89.8371696
  14.3741214  14.2146325  89.3354988  12.8999233  13.8721907  89.3569660
  16.0424197  11.9056714  38.4434533  15.3590345  12.2977984  38.9870095
  16.2158000  11.0573924  38.8516116  31.5105057  41.5461779  52.7047491
  31.2296724  41.0013580  51.9695377  31.9004869  40.9296656  53.3244753
 104.5508423  16.2026191  80.9887314 105.4543212  15.8867669  81.0027027
 104.0186760  15.4080653  81.0301304  88.7358186   6.1197352  50.6509495
  88.5894319   5.7243282  51.5102816  87.8566286   6.2710881  50.3040314
  96.4042816  26.5681887  89.5516396  96.9677910  26.7760611  88.8063335
  96.2294373  27.4145651  89.9631119 100.1494547 100.6102299  36.1677837
 101.0369226 100.9545579  36.2681222 100.0184795 100.5578708  35.2210331
  13.1700754  31.2642002  61.4431286  13.4580290  30.8227396  60.6441116
  12.6403952  31.9988227  61.1332846 103.4992346  36.2113571  49.6260118
 103.4496519  35.6978559  48.8197279 103.2654092  37.1002173  49.3586397
  91.8614528  34.0897179  55.6588984  91.4666626  34.9607468  55.6178904
  91.2987277  33.5455251  55.1080561  92.4675879  14.8944271  44.0973473
  92.9900298  14.1106355  43.9271832  93.1133649  15.5829930  44.2557192
  19.6600080  56.9342470  34.4955277  19.6335185  56.8429232  33.5430622
  19.0762258  56.2477636  34.8182869   2.6909146   7.7302414   4.2040363
   3.3330488   7.2413826   3.6893398   3.1365311   8.5467160   4.4299275
  37.5849175  15.0674903  68.0900383  38.4665632  14.9399161  68.4402609
  37.4575901  16.0161150  68.1015062  24.9351788  56.4789534  72.3618269
  25.0953388  56.0658169  73.2102966  25.7874751  56.4697075  71.9262362
  75.2060411  95.0893527  54.3724442  76.1234292  95.3623575  54.3624973
  75.2322718  94.1540831  54.1704130  92.9561648  40.8436918  84.2606831
  92.1060035  40.7459354  83.8318443  92.7452931  40.9573984  85.1874161
  69.7651574  16.3906765  76.5004826  69.6576354  15.6706095  77.1219110
  68.9254901  16.4401460  76.0435963  10.0257528  40.1338911  54.5477629
  10.5679607  40.5453920  53.8747740  10.0940669  39.1958475  54.3698978
  54.5992363  56.6775389  20.0435162  55.3978110  56.4086385  20.4976177
  54.6004081  57.6329295  20.1023388  83.2162091  50.6452942  56.6800785
  82.7579042  51.3585806  57.1243954  82.7306744  49.8581648  56.9268894
   9.9825495  61.1477041  57.8504658   9.1314805  60.7725382  57.6242733
   9.7906083  61.7727184  58.5495710 105.7556835   6.7657816  70.0693130
 105.0662681   6.7159784  69.4071484 106.4859107   6.2751085  69.6921635
  18.8941920  46.2366676  61.4953327  18.2249784  46.6045809  60.9182501
  19.6332681  46.8403053  61.4203835 107.7096778  27.6823330  35.1447296
 106.8624344  27.5771260  35.5775595 107.9244229  28.6079359  35.2603912
   7.0674466  90.7447856  75.8617878   6.2616109  90.8946901  75.3674269
   7.7576780  91.1180025  75.3135967 105.6124702  35.2334499  79.6162701
 106.4663205  35.6425738  79.4755983 105.3204009  35.5734396  80.4620457
  99.2731890  21.8560433  74.7499132  99.2138883  21.8717575  73.7946796
  99.0637800  20.9529018  74.9880600   8.3374137   8.9988858  75.8250475
   8.4661943   8.3315909  76.4991140   7.5024211   8.7693381  75.4172182
  35.8571267   7.2167486  87.2622108  35.1508927   6.9854087  86.6589260
  35.5723548   6.8710637  88.1081676 107.3525077  15.9021401  56.4465809
 107.9988831  16.6025686  56.3580942 107.5631547  15.2912259  55.7404375
   7.8853190  38.5097885  74.9493027   8.2446718  39.3925238  74.8605490
   7.0870894  38.6268187  75.4644394   5.7983887   2.3293051  70.1048899
   5.8636624   1.3891253  69.9374580   6.5063876   2.5123161  70.7225227
  72.5206322 101.8981084  27.7204847  72.4174427 100.9882983  27.4415064
  71.6997492 102.1064141  28.1665707  40.3033257  11.5615141  77.0688057
  39.6734476  12.1035719  77.5438404  40.8030128  12.1830904  76.5394783
  18.8237333  33.4418273  62.0875978  19.0495527  32.5149703  62.0090199
  18.6613905  33.7258911  61.1880541   6.0568810  14.7594690  78.5524988
   6.6482520  15.0248742  77.8481770   5.3606421  14.2736733  78.1103611
   5.7103521  35.1084876  87.5251198   5.7500875  36.0436416  87.7254677
   6.5646690  34.7697020  87.7927017  60.5746961  49.7647359   1.2504292
  59.7364879  49.5306994   1.6490078  60.8096123  50.5980781   1.6585827
  69.9052366  97.3111117  51.6969538  69.8490145  97.9050833  52.4454641
  69.0957018  97.4630344  51.2093019  19.6314859 103.5013994  56.9546461
  20.0061559 102.7924797  56.4318800  20.3867006 103.9172882  57.3704815
  61.5989805  85.0311588   0.8099461  61.3459826  85.0211762  -0.1131630
  61.8375922  84.1244410   1.0027123  24.7953367  21.4229250  52.0072031
  25.3896046  20.6741023  51.9587708  24.5841742  21.6205215  51.0947371
  24.0239739  24.4081044  64.8113680  23.0959344  24.4082236  65.0458336
  24.3221641  25.2949548  65.0133848   0.8552685  18.8945782  54.8729563
   1.6849795  18.4533465  54.6909523   0.9006209  19.1157568  55.8031464
 111.3069303   9.9812061  67.9162931 111.6058897   9.6420842  67.0725822
 111.6729137  10.8644593  67.9626894  14.6088612  35.1540875  38.9139724
  15.2587271  34.5280170  38.5946846  14.8721516  35.9899426  38.5289335
 100.0517616  47.3599625  28.6807251 100.0505611  46.4175701  28.5130191
  99.1408476  47.6265001  28.5565281  92.7630851  27.3218918  45.6467390
  92.4717161  26.6725564  45.0066614  93.1608960  26.8055058  46.3476801
  84.7994563  69.7271156  73.3880711  85.2086899  68.9099407  73.1034851
  84.0610906  69.4491434  73.9300823  62.4958874  77.9732488   4.4033623
  63.1608511  77.6950286   3.7735653  62.9588152  78.5680483   4.9934006
  93.6876389  13.9530098  71.1800718  94.2981026  13.6835003  71.8663168
  94.0034589  14.8130155  70.9028006  59.5255423  41.6680431  20.4544115
  59.1339588  41.7632294  19.5861769  59.6380568  40.7238388  20.5642033
   5.1966977  32.8550005  56.2436819   5.6332517  32.0774221  55.8958006
   4.3723854  32.9036427  55.7595587 100.7226416  46.2096691  68.6338234
 101.0946104  46.2540388  67.7529716  99.8065075  46.4625883  68.5199690
  98.9165649  52.5665808  48.0363703  99.3859538  52.4494362  48.8623142
  99.4466671  52.0986748  47.3911667  26.5165663  26.9808269  80.5642986
  26.4325047  26.1560869  81.0428047  25.6573677  27.1141267  80.1639938
  53.2031120  78.1368588   6.8133831  53.7759984  78.6434911   6.2377548
  52.5137771  78.7509965   7.0661354  45.7958412  33.4235430  63.7459660
  45.4271126  34.2403460  63.4096575  46.2927389  33.0644941  63.0108404
 111.6222995  54.4070482  52.7940750 112.0233171  55.2164841  52.4774790
 110.8370762  54.3026543  52.2567129   3.3126679  47.4888754  31.7699218
   3.7157187  48.2724571  31.3960576   2.4499169  47.4434423  31.3578200
  11.8525064  43.3715200  61.3400793  11.7542255  42.5227737  60.9085703
  12.7986324  43.4880781  61.4266348  67.5370718  57.9864846   7.5488472
  67.0663024  58.7470661   7.2080708  67.3877288  58.0160259   8.4938622
  26.9394887  91.1682795   2.8760624  27.1322180  91.9008945   2.2909451
  26.0997630  90.8289026   2.5663567   8.6087096  19.8560596  63.0706549
   9.5591521  19.9472761  63.0030489   8.2938164  20.7450461  63.2342911
  17.6641917  12.9705298  66.8885088  17.6675797  13.8987458  66.6547680
  17.9538524  12.9521739  67.8006411  22.7885699  25.9832478  55.5790329
  23.1877899  25.1148939  55.5259371  23.4791613  26.5821266  55.2950287
  16.5722489  45.9943962  59.0468073  16.9738543  45.6913710  58.2324839
  16.3138032  45.1916409  59.4996023   9.2285746  62.9107285  73.5010815
   8.5928100  62.1952915  73.4874105   8.7991893  63.6218357  73.0254936
  23.1467676  58.5733700  76.8792868  23.6398530  58.6364889  77.6972771
  23.8108230  58.6426115  76.1933804   8.1351250  28.9804530  49.8511600
   8.7846601  29.0068388  50.5537558   7.8885341  29.8957753  49.7184515
  76.9898487  48.3721678  15.6331921  76.6073299  47.6386176  16.1146641
  76.6247702  49.1508760  16.0533905  79.7464249  13.5727930  59.0675879
  80.2586839  14.2225468  58.5862923  78.8357398  13.8253784  58.9156485
   5.6552267  12.9074705  73.8685560   5.9663790  13.0623055  72.9766798
   5.4030365  11.9841313  73.8773298   1.6374153  44.6755314  52.0211077
   2.0424989  45.4387999  51.6093302   0.6973831  44.8507643  51.9779253
  17.5245309  51.8681335  85.5166245  17.9451895  51.2774229  84.8918533
  18.2295454  52.4427366  85.8149815  48.3337045  66.3830327  26.4809990
  48.3259094  66.0845040  27.3904228  48.8097966  65.6999777  26.0087585
   6.5223795  15.3656256  45.7468987   6.6031539  16.0968232  46.3593149
   7.4104393  15.0162685  45.6725311   9.9531096   0.9670402  50.0156736
  10.5118454   0.2430079  49.7331429  10.1945424   1.6939878  49.4416618
   1.3400145  73.7041664  60.8543062   1.3785769  74.4075394  60.2062178
   1.3553935  72.8996801  60.3358507  30.3705692  14.4414711  62.3616123
  30.5542946  13.6835206  62.9165792  30.5877686  14.1485822  61.4765835
 104.7137859  57.1484232  37.3514223 104.6373841  57.8465033  38.0018663
 105.6566378  57.0349979  37.2314334  91.8040559  13.9233875  68.3192492
  91.1732385  13.4828305  67.7498531  91.6867396  13.5077238  69.1734695
  98.4162661  55.8745098  81.4005280  97.9381809  55.5033064  82.1420670
  98.0108473  55.4759407  80.6304550   6.5761066  37.8165959  10.8736706
   6.0497022  37.6748489  10.0868797   5.9498144  37.7559947  11.5950012
  93.0105421  52.0942068  68.7154675  92.8139743  52.7274609  69.4058180
  92.4127385  52.3226070  68.0036449  36.1544156  41.1857891  80.9709549
  35.8081126  40.3531122  81.2918282  36.0725737  41.7819929  81.7153168
 108.4099028  17.7057779  59.2231464 107.9679409  17.5737786  60.0618839
 108.5560304  16.8213058  58.8876104  90.6729079  78.2033490  15.6313419
  91.6115142  78.1952737  15.8189297  90.6152535  78.0366753  14.6905231
  11.7163074  35.1349378  52.8511858  12.4148905  35.6780386  52.4861431
  11.1341608  34.9639940  52.1108389  57.0698251   6.6203110  14.3076801
  56.1845471   6.7390244  14.6518040  56.9820644   6.7654746  13.3656311
  10.8379495  49.5934629  50.2952147  10.1927054  48.8875008  50.2563763
  10.7707334  49.9305010  51.1885881 108.6865503  45.0413990  67.4024343
 108.6175981  45.9618807  67.1490908 109.5711106  44.9565125  67.7582121
  26.4477396  24.6467757  81.9853687  27.0049810  23.9210939  81.7041302
  26.7353702  24.8375535  82.8781796  22.5920796  20.8536100  40.0138855
  22.1746135  21.6498852  39.6854067  22.3333287  20.8097696  40.9344053
  26.2496174  96.2799810   8.0272007  26.6326988  96.3339017   7.1516609
  26.3547600  97.1598123   8.3892441 106.6880319  71.9884920  55.9703302
 106.3594875  71.2380219  55.4752731 106.7774042  71.6637993  56.8663311
  46.4187098  27.0337343  68.4437037  45.5068445  26.9076848  68.1813192
  46.8768549  26.2704515  68.0919504  59.3926664  70.1210577  84.4392008
  60.2137657  70.2737255  83.9715284  58.8150020  69.7259147  83.7862098
  81.7915519  99.5655393  60.3726101  81.1502769 100.1958745  60.0444698
  81.8071225  98.8735038  59.7114944   3.3605486  29.4635987  61.8204165
   2.5651726  29.9898529  61.9020557   3.2616615  29.0082026  60.9843159
  58.2972027  77.1332596   6.9061565  58.6380339  78.0172204   6.7694855
  58.9277626  76.7222022   7.4974823  57.1278604 102.4355525  58.4447193
  57.5922152 102.9369531  57.7744961  57.8066274 102.1900514  59.0733957
  18.5080373  23.3029914  58.0058146  18.2087636  24.2008209  57.8623915
  19.2082810  23.1787133  57.3651552  42.8850126  24.7842073  45.0514889
  42.0912552  25.2144694  44.7335958  42.7252817  24.6465325  45.9851742
  17.7392900   8.0269271  70.4579067  18.2207763   7.2212547  70.2700377
  17.5459194   7.9776251  71.3940763 101.8586889  50.7152319  68.4847260
 101.0617575  50.5953550  67.9682350 102.2997752  51.4595556  68.0752611
  45.0942230  33.2679582  40.5792141  45.9926271  33.0631351  40.8383417
  44.5503330  32.7328157  41.1571741  11.7123568  14.2285848  73.9157343
  11.1320102  14.4228017  73.1797266  11.2640810  13.5332763  74.3972158
  85.7136199   9.0232408  86.9883060  86.4057133   8.7272257  86.3970280
  85.7311651   9.9777472  86.9187164  40.6900358  19.1262209  59.7471762
  40.3388500  18.2690799  59.9884415  41.5680456  18.9402795  59.4143724
  19.3009245  18.9945519  66.6540289  19.9433064  19.3430996  66.0358953
  18.5643220  19.6036768  66.6028929  17.2425044  36.3017368  31.7006516
  17.9599357  36.9350362  31.6792941  16.5282226  36.7330837  31.2316370
  16.4736390  57.8773499  43.2859230  15.7823968  57.4258232  43.7702131
  17.1885610  57.2424507  43.2410049  90.3517601  34.6562433  43.0622578
  89.7158286  34.6064973  43.7759447  91.0184547  35.2664113  43.3776093
   5.1668102  41.4268541  79.3820000   5.1843786  41.0833883  80.2752876
   5.6881028  42.2285843  79.4233656  23.2306123  46.9399023  66.9994211
  23.4021688  46.8610430  66.0610294  23.7987065  47.6543808  67.2875547
 107.1681106  18.1922698  54.2006588 107.7551451  17.7535439  54.8164034
 107.7079469  18.8727939  53.7985468  11.7084193  50.0649977  44.9176359
  11.6419816  50.6417513  44.1566038  10.9220028  50.2529144  45.4299545
 106.1783251  13.5942459  76.7863035 105.5132362  14.0461123  76.2669706
 105.6937775  13.2183957  77.5212765  28.3186793  12.5055003  72.6513100
  29.1156340  12.3008919  72.1621943  28.4086704  13.4307051  72.8796291
 107.3249686  21.0756016  83.4742165 107.4742070  20.1542664  83.2618427
 108.1194443  21.5209866  83.1798172   3.0312157  23.0940890  41.6719055
   2.7939588  22.1753383  41.7977524   3.0207157  23.2163000  40.7225990
  72.3066743 105.0238133  86.5422630  71.9200128 105.8994339  86.5386200
  72.1400792 104.6920967  87.4245548  29.5569301  48.4854412  64.7360182
  28.6477304  48.7406969  64.8923254  30.0324106  49.3143940  64.6813250
  43.6296940  44.0979624  35.2116036  43.3529472  44.0030479  36.1229944
  42.8484440  44.4106102  34.7553849  98.3103380  43.0593348  44.8878765
  98.5193774  43.1857681  43.9623785  98.0965397  42.1291256  44.9602270
  37.8626914  94.9876188  26.0352707  37.6353100  95.7802414  25.5491829
  38.1919963  94.3843006  25.3690910  95.3360435  14.5839596  81.3533878
  95.2479884  15.5029178  81.1004162  94.8213884  14.1061223  80.7029724
  44.0798970  91.5204411  69.7425985  43.2414194  91.0934704  69.5668650
  43.8448521  92.3394960  70.1786423  40.9203482  14.4244123  90.2186012
  41.4334202  14.3682086  89.4124794  41.3512564  13.8167071  90.8196354
  97.0459101  19.4584620  68.2892847  97.8890750  19.0826666  68.0361414
  97.0351562  19.4008255  69.2446899 105.8831719  38.5434151  53.0484819
 106.2968692  38.3992314  53.8995409 104.9691495  38.7373757  53.2562637
 104.3111125  35.3061390  73.6112022 104.2992565  34.5614576  74.2124844
 103.5474411  35.1728034  73.0497217  33.0403805  44.1171694  50.1370192
  32.9951835  44.9038887  49.5936346  32.6148534  44.3676805  50.9570217
 111.5614679  36.6385198  80.4417038 112.3568467  36.9138646  79.9858665
 110.9002016  36.5751457  79.7525406  32.6681447  20.7828927  86.1989689
  32.6377201  21.5649223  85.6478500  31.7686772  20.4554963  86.2000465
 101.3956353  61.1393452  43.5704565 101.4809653  60.4296827  42.9338026
 101.0338685  60.7189941  44.3506241  98.6434481  16.6305923  76.0661554
  99.3739721  16.2940121  76.5850782  97.9972085  16.9093573  76.7149210
  79.4438455  51.7351103  79.9717808  79.9741241  52.3481989  80.4808617
  79.4630978  50.9234762  80.4788399 103.7181482  39.7633076  71.2435818
 103.6822435  40.0313759  72.1617746 104.2921630  40.4070234  70.8284044
  21.0609174  11.7668819  63.4167624  20.4446912  12.3570240  63.8506174
  21.9005060  12.2247207  63.4580755  12.0990551  22.4225593  69.1637993
  11.7754161  23.2718349  69.4641638  11.5801334  22.2311616  68.3825684
  77.7142202  97.2168612  54.4504595  78.3745255  97.9062992  54.3804359
  78.0871322  96.4782864  53.9691353 108.4094691  36.8254066  90.9173489
 109.0659294  36.1632562  91.1337948 107.6606673  36.3238668  90.5948830
  40.7838810  66.5812110   4.4110012  41.0124926  65.6532107   4.4637585
  40.6417660  66.8449353   5.3201103   4.0279278  66.7824793  73.0919933
   4.5903838  67.2910070  72.5078011   3.1427598  66.9260740  72.7571917
   1.4768304  33.7656832  72.8147840   1.2715654  32.8674293  72.5554848
   1.2413742  33.8071585  73.7416458  21.8770027  22.2595048  60.3753090
  21.8139458  22.1621323  61.3254547  21.7709899  21.3707995  60.0359058
  65.0105930  86.6926240  26.5709591  64.5415521  87.5259780  26.5291023
  65.6719352  86.8238710  27.2503853  96.1540148  64.8556757  82.2141743
  96.6737053  64.9985170  83.0052185  96.4578030  64.0129232  81.8769550
  88.0168041  89.0739745  67.4776316  88.9440497  88.9274293  67.6646423
  87.5867923  88.2626921  67.7480793   5.7992417  22.2758603  72.7395439
   5.2164578  22.8099489  73.2793093   5.4782516  21.3813019  72.8533840
  36.2110877  76.5966940  52.9728222  35.5363393  76.7219448  53.6401033
  37.0334506  76.5873051  53.4625816  86.2878367  60.6345159  73.1999016
  87.0963319  61.1151010  73.0221319  86.5768059  59.7424632  73.3921909
  10.2312982  18.5696805  67.2154713   9.7698265  19.4031525  67.3082066
  10.0307667  18.0939054  68.0214834   7.2946721  15.7609141  26.3119507
   6.3824141  15.7223737  26.0246658   7.7048218  14.9949467  25.9103227
  10.4504621  42.1314621  72.6956415  11.2601972  42.6257420  72.5681543
  10.7167923  41.2144041  72.6300430  13.4788024  33.3397794  54.4186783
  12.8044140  33.5865235  53.7857914  13.1360245  32.5508571  54.8386049
  20.8636379  12.1106744  80.7678413  21.5011406  12.5477147  80.2032089
  20.1670289  12.7562404  80.8870506  33.8481975  47.5654078  21.6049314
  33.7625265  46.7213011  21.1617923  34.7455168  47.5710154  21.9381285
   9.3405545   7.3835582  37.6041102   9.9099135   8.1472230  37.6983356
   8.9167684   7.5041527  36.7543483  27.4252868  78.3285284  53.6075163
  27.2247934  78.2749748  54.5419502  28.3786106  78.4065151  53.5711861
   7.7985549  24.4469786  27.1266365   7.4569553  24.4682693  28.0205560
   7.8519410  23.5155082  26.9127560  76.6990420  27.8062510  59.8950338
  77.3408148  27.7731442  59.1856241  76.1154458  27.0668912  59.7247553
  40.7349778  86.2133764   8.6347866  40.2351502  85.4412507   8.3697796
  41.4406965  85.8662032   9.1803741  24.4117522  17.3837841  56.9463110
  25.3642631  17.3036468  56.8959713  24.1364479  16.6377306  57.4790764
   7.0144439  38.5532069  63.1497049   7.8233004  38.6243033  63.6565828
   6.9083941  37.6140141  62.9983664  98.4753463  30.0225544  91.1674404
  97.6360139  30.4801583  91.2159443  99.1177914  30.7159066  91.0165787
 104.9294379  27.7055049  78.1367779 104.7174945  26.9105458  78.6260128
 104.0993282  27.9720688  77.7416897  10.5194771  36.8775916  90.2271938
  11.3085270  36.4340878  90.5385399  10.3174007  37.5154972  90.9116459
  17.1739697  20.7600904  52.7005434  16.5246904  21.2425232  53.2123327
  17.8386307  20.5019403  53.3391476   9.4030082  38.5558558  46.9689846
   9.2282593  39.4969225  46.9596863   8.5515475  38.1524611  46.8001080
  87.9184052   9.7003466  74.2335796  88.6578986   9.9864197  73.6973476
  87.1855351  10.2409768  73.9388704   9.7843939  31.6892958  83.3506584
  10.4773748  31.3722205  82.7714539  10.1186013  31.5302610  84.2333984
   4.9037126  46.9064283  24.8966670   4.0318844  46.7051458  25.2367139
   5.4265493  46.1320591  25.1045632  34.3088841  16.7282164  70.2666759
  34.6796227  16.2352324  70.9986258  33.3853412  16.8361652  70.4939461
  19.0611351  52.7270651  36.9506621  19.6851921  52.1959496  36.4559889
  19.4654238  52.8315449  37.8119779 102.6362351  20.8679175  74.0954494
 103.4331927  20.8704424  74.6256256 101.9386294  20.6475520  74.7127151
  93.8364693  73.5842639  77.8942728  94.6028515  73.4494906  77.3368406
  93.1076964  73.6783153  77.2808552   6.2710243  26.0198307  40.8644867
   6.0173845  25.5733514  40.0566769   6.5721208  26.8818617  40.5773020
 101.6186437  39.2066360  64.0443993 101.3201234  39.5979142  64.8653889
 100.8219203  39.1056991  63.5235596  14.9659514  36.9601202  45.3565645
  14.0660620  36.8504548  45.6638145  15.2396429  37.8050327  45.7135677
 107.7945563  31.5843201  78.5516405 108.7365073  31.7535186  78.5334301
 107.5572509  31.6500068  79.4766283   2.9895073  57.4978638  44.3337631
   2.5451487  56.6549158  44.4244051   2.6458901  58.0282831  45.0526667
 107.7406591  23.2170773  59.6107864 107.6475370  22.6679015  58.8323498
 107.2019112  23.9865947  59.4268703 111.7044510  50.9796000  50.4472303
 111.2184196  51.6177082  50.9695530 111.1127454  50.7582617  49.7281170
  88.4670993  91.1200362  52.2596359  88.1775709  91.8385297  52.8219271
  88.2452091  90.3281778  52.7494907  28.9909244  32.8835845  68.9589834
  29.5747280  33.6420441  68.9709568  28.1449175  33.2279873  69.2451477
 103.9482018  34.1066456  39.7124052 103.0101547  34.1641831  39.5307755
 104.0330163  34.3842053  40.6245470 111.5738843  37.0881200  38.7382340
 111.2508385  36.3529086  38.2173347 111.9032475  37.7129412  38.0922055
  84.2197344  30.1172209  85.6633759  84.6320841  29.4690537  86.2344074
  84.9526665  30.5935621  85.2733231  16.7530131  28.1025696  70.7704449
  16.8842888  28.1616259  71.7167568  17.6015210  27.8214884  70.4280090
  37.9350328  38.7660408  54.8866892  38.6240768  38.3945370  55.4375362
  37.4294186  39.3230271  55.4785967  88.3420345  55.4147434  91.0165310
  88.9171478  55.9798288  90.5006313  88.6377642  55.5322456  91.9192886
  18.9909959  20.0853586  62.5378418  19.7020102  19.8227835  61.9532537
  18.4819555  20.7154679  62.0278692 103.7149605  40.8554888  26.4793420
 104.5311007  40.3728580  26.6105580 103.0998984  40.2006292  26.1490560
  25.4596651  89.9564575  15.5658817  26.1817289  90.5262922  15.8307266
  25.3456212  90.1326893  14.6319866  15.1500118  45.7181072  53.3669281
  14.6316981  45.3149033  52.6705027  14.5049393  45.9842968  54.0221071
  22.7042627  46.7634583  64.1325474  23.3763170  46.1529303  63.8295174
  21.8783045  46.3682508  63.8535595  98.4544656  42.6918936  82.1677971
  98.4587285  42.3709011  81.2660408  97.9631791  42.0305490  82.6551247
  22.6182461  38.3996296  77.3184586  22.3981524  39.1373563  76.7496395
  21.8991375  38.3604980  77.9489994  22.2928596   5.9195942  61.0302162
  22.1913004   4.9683261  61.0619307  21.4564276   6.2386006  60.6913233
  18.9581525   9.5720249  68.2102346  18.5496902   9.2156017  68.9991283
  18.9613640  10.5190825  68.3491707 104.9372503  12.5062406  68.0426836
 105.3513065  11.6656804  67.8471088 104.6054021  12.4078774  68.9351130
  12.3194492   7.4222279  73.0768442  12.1804452   6.8228281  73.8100767
  12.3477030   8.2903117  73.4791708   0.1973732  15.3115535  59.8502779
  -0.0525274  16.2345397  59.8936176   0.7742642  15.1839972  60.6033802
  25.3605461  60.3888416  59.3895006  26.2730908  60.1907730  59.1791201
  25.2081609  61.2522459  59.0053844  39.9042034  32.3918796  53.9224863
  39.6988606  32.9437828  54.6771193  39.8309636  31.4967060  54.2534399
  33.1652379  44.3136883  39.9342203  33.6930251  43.5278416  40.0760651
  32.4018645  44.0046740  39.4463634   6.9757724  45.1515722  30.9697175
   6.0197985  45.1182175  30.9345937   7.1680850  45.8061981  31.6410685
  44.1782757 101.6232982  49.2573881  43.3693071 101.1861309  48.9915133
  43.9747974 102.5570637  49.2034388  47.2694397  30.7473731  80.4412651
  47.4296570  30.3522158  81.2982464  48.1312704  30.7758260  80.0257301
 101.8283644  12.9974020  74.3850565 101.6455242  12.5760078  73.5452795
 101.1254665  13.6387312  74.4892836   0.7242130   8.8304478  81.1526299
   1.5261865   8.7312025  80.6395817   0.2288175   8.0298167  80.9799862
  99.4757828  43.7235689  59.9829388  99.3346450  44.3711138  60.6735897
  99.5420989  44.2403793  59.1799831  17.8186929  37.0718932  73.8728428
  16.8837798  36.9237733  73.7306118  18.1397307  37.3999357  73.0328703
  27.0073724  16.0987759  83.9888763  27.0619035  16.0326159  83.0355263
  27.5724816  15.3962886  84.3104267  34.8813347  94.0992473   5.1160908
  34.8350763  94.4352840   6.0111713  34.2229790  94.6025060   4.6369934
  90.5133793  32.3684859  36.1208057  89.9553701  33.0850053  36.4232230
  91.0384175  32.1343803  36.8861556  32.7702995 104.9510296  65.5537653
  31.9806620 105.4148805  65.2752924  32.9700180 104.3606253  64.8272896
  99.3036780  20.3188848  59.2210484 100.2133808  20.5240345  59.4368887
  99.2269811  19.3775642  59.3768263  72.3181660  86.2184769  22.3441553
  72.5127245  86.3892048  21.4226174  73.1120963  85.8057409  22.6840901
  57.1251059  69.1929184   7.6605988  57.3923589  69.5554911   8.5052013
  57.2062910  69.9249433   7.0492172  37.6583934  51.1747122  74.7407913
  38.0510831  50.5004835  74.1863203  38.1901646  51.9546986  74.5824289
  42.8167057   4.1913265  55.6847763  43.3041191   5.0057560  55.5608273
  43.4850216   3.5064322  55.6622553  98.5405216  40.1784468  86.4723873
  98.0412969  39.3710852  86.5955830  97.9647753  40.8686495  86.8015766
  19.5014918  28.0825186  82.3091221  18.9995611  28.8139868  82.6686382
  19.9401343  27.6972604  83.0676746 106.9971755  56.5221596  53.3288383
 106.8660006  55.5745029  53.3599710 107.8766146  56.6539907  53.6830139
 105.5474696  20.5722427  35.9135818 104.6309766  20.4824471  36.1747479
 105.5112007  20.7799578  34.9798942  38.8128996  37.0327902  66.1571360
  39.4863081  36.3525772  66.1651468  39.0692830  37.6319098  66.8582439
  69.4125595 101.0542032  41.2490082  68.7977877 100.4339388  40.8571386
  68.8640120 101.6330459  41.7784119  35.3527284  25.0572801  50.4316998
  35.7503271  24.2121243  50.2222776  35.8799148  25.6956100  49.9512386
  21.7553329  21.4457417  81.4761066  21.8240523  22.3114038  81.8787670
  21.0059142  21.5154767  80.8847237  59.6410299 105.1424383  21.4467144
  59.7833920 104.6942113  20.6130123  59.1172148 104.5290207  21.9620514
  21.3095236  28.6697817  55.3882074  21.1140084  29.0280581  54.5223856
  21.6197038  27.7809215  55.2151442  34.1526389   2.3455124  53.6709547
  34.1083622   1.3983640  53.8020325  33.2726121   2.5889495  53.3836889
  27.7376127  27.6109958  66.2931252  27.3085189  28.2711887  65.7488298
  27.6750064  26.8030429  65.7836914 106.4631209  24.1440630  86.1979198
 107.0998025  23.4293580  86.1898232 106.7820755  24.7413087  86.8745327
  88.1137964  53.2667732  84.8095131  87.9715344  52.4606657  84.3133450
  88.9996526  53.1783819  85.1611900 102.2710708   6.3299406  73.5080671
 102.8033581   5.7676435  72.9452848 102.9063341   6.8787265  73.9679670
   5.2209425  16.9965625  62.5824022   5.7127732  16.2242973  62.3032188
   4.6350271  17.1852744  61.8493795 110.0594175  19.7182345  57.5910425
 109.3681464  19.3212032  58.1208944 110.7569132  19.9155366  58.2161856
  26.4950228  34.6203375  74.4758892  27.4170160  34.5081735  74.7073555
  26.5068269  34.8378491  73.5438061  96.7734370  45.1186180  52.1409512
  96.7982396  44.7833014  53.0371523  96.6933808  44.3366337  51.5947676
   0.5967778  24.1018033  82.2721386  -0.0053327  24.4851375  81.6343689
   0.2190557  24.3255758  83.1227207  29.5953197  53.6192800  26.5968609
  29.3250705  53.8211195  25.7010651  29.6900881  52.6668680  26.6096115
  33.5422301  33.2766271  47.0035267  33.5091949  33.5752749  46.0947084
  33.3015227  32.3511910  46.9604301  24.2997909  47.0776510  70.8910513
  24.1033959  46.5224361  70.1364660  24.2343855  46.4903259  71.6440487
  29.0992832  85.5740547  89.3504620  28.4633708  86.2619495  89.1538811
  29.4585395  85.3291893  88.4976959 105.2897736  55.6644869  78.2432842
 104.6440324  54.9624491  78.1633377 105.3274664  55.8495235  79.1816711
  21.1253119  73.7708616  52.1578217  22.0417547  74.0426064  52.2080374
  20.6735158  74.5219421  51.7731285   1.7605956  50.3651810  48.3337116
   1.2047014  50.5284309  47.5717640   1.5858343  51.1014748  48.9198542
 104.0309796  30.3721762  46.7211866 103.8778755  31.3166213  46.6926861
 104.1277918  30.1174331  45.8035994  33.2869196  37.5106692  80.9890079
  33.7616158  36.9844770  80.3455639  32.9633093  38.2620597  80.4920959
  44.4414587  71.1031984  10.0806141  44.3971229  71.8095575   9.4361591
  45.3319908  71.1516749  10.4282284  80.5905530  98.2652664  42.1629810
  80.0628445  99.0638542  42.1643353  81.1514756  98.3475304  42.9342318
  25.0536084  53.8265610  58.1124067  25.0951552  54.7072458  58.4851027
  24.1384768  53.5656500  58.2158136 102.1298578  37.8626513  70.2521133
 102.7089146  37.5117731  69.5754957 102.6329055  38.5707998  70.6542301
  40.5727720  27.0936155  55.8622837  41.0395956  27.9059672  55.6663418
  39.7058105  27.3791289  56.1505365 108.1086081  63.8703489  76.4029264
 108.1601331  64.8059511  76.2074089 108.9936903  63.5430431  76.2425184
  26.3050795  63.0258560  64.7852182  26.4758730  63.1685829  63.8542557
  25.8351707  63.8112020  65.0656700  50.4122890  83.4342049  27.0130444
  51.3470686  83.3867191  26.8126392  50.2643884  82.7224897  27.6357937
  21.1962962  88.4775257  74.8066998  21.9083595  89.1172028  74.8044014
  20.7067299  88.6669636  75.6071186  20.5685878  84.6210384  56.9337130
  20.2608871  85.5047894  57.1350431  20.2543306  84.4546604  56.0450125
   4.2542854  45.7925606  63.4543610   3.9276442  45.2590084  62.7298880
   4.5465362  46.6048479  63.0408239  22.3861313  35.9943819  63.6249924
  22.1866989  35.0584769  63.6017370  21.5991926  36.4156222  63.2792807
 102.8662994  14.4870901  63.2707500 103.7704954  14.1808712  63.2008123
 102.4147448  14.0700173  62.5370073   3.2613742  36.1734390  65.0740004
   2.9015443  35.7599449  64.2892838   2.6624399  35.9177589  65.7755232
  25.9031272  60.2842951  76.5452099  25.5394244  60.0258636  77.3920679
  26.8283749  60.0449753  76.5988302  39.1721559  27.7927470  62.6798582
  38.2672191  27.7926064  62.9918194  39.1311622  27.3623657  61.8258524
  99.6296379  40.5883551  37.2124386  98.8828811  41.1803627  37.3025322
  99.6797356  40.4071188  36.2738895 109.6284386  89.0049320  26.7073011
 110.1989122  88.2977944  26.4060593 108.8109513  88.8743430  26.2267923
  35.1892900  42.2782946  62.9615355  34.6365738  42.8352404  63.5097551
  35.0574756  41.3955069  63.3072901 107.8771421  43.8656807  82.4615955
 107.9977027  43.9938068  83.4024906 108.7584117  43.9383793  82.0951176
  28.5442901  69.2573690  77.6968575  29.2793584  68.6443663  77.7084351
  28.3218741  69.3820858  78.6194658   2.1371746  43.3237028  54.9404478
   3.0502507  43.3749151  54.6577787   1.6767131  42.9393196  54.1944885
  32.6590371 101.0864544  64.9437857  32.1722364 101.3232231  65.7332134
  32.8759575 101.9247055  64.5357275  93.3558962  75.5925941  72.2644138
  93.3293018  76.5421629  72.1467781  93.1302223  75.2382851  71.4043140
  56.4724458  77.7361511   1.3994122  56.2039948  77.3932813   2.2518253
  56.6744006  76.9573735   0.8808041  93.8798787  11.1744778   2.2874260
  94.4402207  11.8113606   2.7308464  93.5196306  11.6518252   1.5400314
  94.4628443  14.5176118  39.6505356  93.6943532  14.2651885  39.1387367
  94.2557181  15.3929703  39.9777603   4.9980944  48.8709974  83.3765411
   5.5569702  48.1713867  83.0382538   5.6091058  49.5579052  83.6431026
  17.6677787  45.7575464  45.3911686  17.3653209  45.0647306  45.9783220
  17.0258546  45.7669926  44.6811819   9.3498361  23.7303758  61.5028906
   9.5882821  22.9319644  61.9739676   8.4460270  23.9031553  61.7665339
   2.3821053  23.7999701  69.6559334   3.0159026  24.4353127  69.9889088
   2.6842627  22.9585195  69.9978304  39.4217587  51.2060452  39.9438477
  39.1808724  51.3662243  40.8562899  39.3315339  52.0590496  39.5190239
  19.3306339  53.7256289  80.2759171  18.6273193  54.1767311  79.8089218
  20.1352286  54.0919304  79.9089289  24.0002084  35.1055384  91.4238358
  23.9004183  35.2163410  90.4783249  24.4324040  34.2570424  91.5212631
 108.7860009  18.6674154  66.5040827 108.3179876  19.3466580  66.9896984
 108.4581822  18.7445986  65.6080866  16.1646271  51.6708183  51.9550610
  15.7819831  50.7973194  52.0375824  16.2409377  51.9849682  52.8560162
  57.2823381  35.3954172  75.6762505  56.4970255  34.9357724  75.9733152
  57.1252537  35.5619025  74.7468233   2.1052131  20.4971480  85.8464813
   2.1870115  20.7187510  84.9188805   2.9252100  20.0516701  86.0595226
  24.0277600  43.9580011  71.1542749  24.2893004  43.8582563  70.2389193
  24.2274380  43.1115007  71.5540266  59.1007137  70.8731031  42.8525496
  59.0919781  69.9298191  43.0149269  58.8444471  70.9604788  41.9344378
  20.6699586  85.7858944  49.5449018  20.2997065  85.0534248  49.0523243
  21.5681219  85.8615589  49.2227077  11.5246987  34.2524624  70.5478334
  11.1629760  35.1182079  70.7372379  10.8852899  33.6406755  70.9126663
  11.7563081  62.8319645  41.1559105  11.2254333  62.7449656  40.3641796
  12.4457085  63.4508514  40.9152174  17.9786479  26.3657188  62.2961903
  17.7833807  25.4424548  62.4564457  18.3469582  26.3828135  61.4128542
 101.9243190  41.0410595  48.6194849 101.9528827  40.1918697  49.0602732
 102.3969349  40.9010220  47.7989626  13.5283399  31.6867232  34.7575498
  12.8376460  31.8505836  34.1154242  13.3848155  32.3454356  35.4370570
   2.4928674  60.8493471  75.5707741   2.0431720  61.4793062  76.1339378
   2.2426125  61.1013937  74.6819115  98.3495209  47.3236942  68.2356119
  97.9519793  47.2699594  69.1046953  97.6190087  47.1983528  67.6299095
 111.2387859  28.0502629  50.8026409 110.3216055  28.3119226  50.7217360
 111.2659141  27.5142431  51.5952206  22.6472974   4.5622787  79.6453094
  23.5561991   4.5935225  79.3467236  22.4371099   5.4691243  79.8682070
  12.5507474  63.2048845  56.6443634  13.4510422  63.5282516  56.6106987
  12.3200297  63.2349014  57.5728559 107.8439620  33.8468456  36.2604499
 108.6813730  33.4115911  36.4202309 107.2964102  33.5928178  37.0033431
 103.0882121  85.6341671  23.1808090 102.7760554  86.3585495  22.6385403
 102.4948264  85.6241773  23.9318275  27.2978163  37.2130990  63.2545376
  26.5033031  37.3922825  63.7574100  27.2478771  37.8092456  62.5073147
   1.2272698  10.3813660  78.3407402   1.3600887   9.4431591  78.4762335
   0.9411883  10.4537261  77.4301624  36.0973250  61.5695791  27.6318645
  36.3483673  61.3296418  28.5238552  35.3251354  62.1245097  27.7414417
  27.8401160  77.2677708  59.0074825  27.3736286  77.8799677  59.5765448
  27.7495909  76.4199448  59.4424915  51.2755060  21.2423301  48.4466028
  51.6487980  22.0789218  48.7240887  51.8236446  20.9674978  47.7115917
  80.8855773  70.3228973   5.0345135  80.2695466  70.3763603   4.3038368
  81.1688233  71.2262832   5.1755714   1.6953607  11.5371048  49.7337008
   0.7420428  11.5940440  49.6690893   1.9091381  10.6777012  49.3704414
   9.6152723  39.4475031  21.3136697   9.1993624  39.6031117  22.1616292
  10.0967669  40.2544498  21.1313844  39.5726752 105.0116348  54.3930244
  39.8695421 105.8583260  54.7265244  39.9474788 104.3712616  54.9977303
  32.6616645  62.4318981  56.4683008  33.2353234  61.8229961  56.9334698
  31.9302654  61.8913364  56.1698341   6.4722055  30.8166122  54.3386936
   6.7208481  30.0212812  54.8097086   5.5453950  30.6935859  54.1334677
  81.0731889  19.4892733  16.3597393  80.6742807  20.3128903  16.6403866
  82.0154102  19.6513550  16.4064407  49.6529150  79.0198803  63.1923389
  49.4106627  78.1756544  63.5729074  48.8262796  79.3879271  62.8801680
  31.8128157  58.7924719  64.9152470  31.9571972  58.3261108  65.7385874
  30.9771633  59.2427540  65.0383854  17.9797029  37.4371266  76.7130423
  18.7363458  36.8732643  76.5524769  17.6946175  37.7095294  75.8408260
  45.0695038  38.7802887  59.2390728  45.9165430  38.9583087  58.8303328
  45.2418804  38.8309550  60.1792574  10.6403506  39.4271421  72.6266861
  10.1437712  39.3326306  71.8138456  10.2356267  38.8025475  73.2286119
  10.7609785  41.9890404  67.8697634  10.1409388  42.1193123  67.1522617
  10.4599154  41.1912298  68.3046055  31.9514799  76.9323587  66.7720747
  31.0396862  77.1672583  66.9443750  32.4072123  77.1241760  67.5916767
 102.0641318 101.6979504  60.1520681 101.9678733 100.7703781  60.3678942
 101.9612184 101.7345238  59.2011166  35.3537536  39.8580194  74.5449305
  34.5782995  39.4390130  74.1716480  35.1095390  40.0506878  75.4501724
  88.5027935  20.7341139   9.1903973  88.4499742  19.7787469   9.2171764
  87.6723482  21.0304396   9.5629406  18.9169860  41.7011166  42.4652863
  18.8879478  41.2380886  41.6280317  19.7985792  42.0720243  42.5034142
  15.7470620  48.2146645  56.5843058  15.0799572  47.7181292  56.1103296
  16.5774488  47.8350019  56.2970018  29.9518824  31.0549879  50.3422880
  30.6070089  31.6359353  49.9555826  29.6519852  30.5128574  49.6126366
 111.1331959  42.8848457  70.9629917 110.6727807  42.2608662  71.5241528
 110.6357846  43.6979628  71.0504723  29.5441914  17.3325551  33.8329959
  28.7768650  16.9760001  33.3854342  29.1873884  17.9795611  34.4415212
  18.2875550  57.0673275  79.7610235  17.6758134  56.4499044  79.3600368
  19.0766251  57.0065212  79.2225981  16.4156747  33.2927060  31.9050455
  16.4008760  34.0909219  31.3769722  15.7336199  32.7402282  31.5232038
  18.9340115  13.7067544  81.3868618  18.2875884  14.1707397  80.8548069
  19.2606747  14.3677390  81.9972897  38.3162618  65.7496548  64.1267681
  37.4162102  66.0624552  64.0357065  38.2325315  64.9041176  64.5675564
  23.8213444  24.2899823  80.9632301  24.7702074  24.4160295  80.9615898
  23.6406255  23.8209844  80.1486015 103.6499621  12.4707835  20.1042748
 104.4440819  12.8787224  19.7590351 103.9668466  11.8342106  20.7450485
  30.1626253  23.5094905  85.3788280  29.8362923  24.2222810  84.8295784
  29.4445968  22.8769326  85.4019451  23.8309669  41.2119627  60.2273750
  23.7087440  41.1300755  61.1732006  24.3516541  42.0081091  60.1211977
  18.9201653  60.4383850  65.8820629  19.6124923  60.5129385  65.2252865
  18.1097984  60.4083872  65.3734970   6.9098502  49.2429018  67.4295855
   7.6846576  48.6851883  67.3598433   6.5808332  49.3089914  66.5331459
  45.5506516  57.2730875  65.3943300  45.5247545  57.0009565  66.3116646
  46.4538479  57.5574112  65.2542543  24.5918083  55.7603836  54.4029665
  25.4842663  55.9806824  54.1361046  24.3731332  56.4122725  55.0688934
  50.4609395  84.7990607   7.3331165  49.8633230  85.1813959   7.9756927
  51.2713588  85.2985667   7.4328423 103.8481213   5.8994954  18.5735989
 104.4206335   6.4204304  18.0104923 104.0710641   6.1754077  19.4626427
  18.4222317  58.4153461  60.3370762  18.3659244  57.9342365  59.5114899
  18.1107593  57.7958870  60.9969950   4.3458000  77.4873066  13.2382095
   5.2704573  77.7340651  13.2569313   3.8748932  78.3195639  13.2809770
 108.3937877  51.1923265  38.5685110 107.9306927  51.5393877  37.8060651
 107.8490803  51.4435959  39.3144250  25.0170708  32.1125722  66.9251585
  25.8946443  31.7337298  66.9759226  24.9119067  32.5847960  67.7511024
  15.9702445  94.7635721   2.4125767  15.3936244  95.5053352   2.2294807
  16.7768288  94.9643301   1.9378662 108.8663986  46.8329811  89.5339775
 109.7623502  46.5579414  89.3394184 108.4443697  46.0467529  89.8803425
  26.1572361  82.0981979  82.9843807  25.2496028  81.7981911  82.9350948
  26.1095214  83.0366707  82.8021049   6.0139275  85.2822876  57.9123306
   6.7839432  84.8016834  58.2161713   6.2326902  86.2025356  58.0590200
  17.7068484  10.3996825  65.7401705  17.7398884   9.8651755  66.5335417
  17.6771331  11.3014007  66.0599375  28.2200480  46.9469929  60.3717041
  28.3204865  47.8541613  60.0832796  29.0240955  46.7592049  60.8559275
  43.3779240  29.0650868  79.4279909  44.2189837  28.6376667  79.5897341
  43.2843447  29.6895552  80.1473808  17.5180495  56.4078045  58.6418819
  17.5418830  56.4990187  57.6893330  16.6378367  56.6923857  58.8877869
  43.4276056  21.5995669  53.7334681  44.0832710  21.8899584  53.0994225
  43.6088228  22.1158171  54.5188808 111.5251554  62.2982311  36.2506580
 112.1085345  62.0650148  35.5285025 110.6557836  62.3400497  35.8523178
  64.1696049  97.9422830  19.7461319  64.9852873  97.6770042  20.1710129
  64.2880083  98.8738941  19.5608997 106.7196169  21.6686845  57.3000479
 107.2172281  21.6366768  56.4829874 106.0081539  21.0412812  57.1719217
  81.1245251  97.0999740   1.7817402  80.9599353  97.6981615   2.5106525
  80.4596902  96.4179300   1.8768215  17.0438719  92.0190239  57.0769930
  16.6613209  91.2597466  56.6372347  17.0476806  92.7054310  56.4098644
  36.9857001  92.3736858  53.0396652  37.5827909  92.3917198  52.2917414
  37.5489473  92.1896935  53.7914181  27.8874469  97.6850605  59.8563766
  28.7207818  98.1103611  59.6541071  27.2936821  97.9813576  59.1665316
   5.8467579  42.2537136  73.4096670   5.9534675  41.5209675  74.0162373
   5.7768273  41.8430233  72.5478840 111.2697112  74.3583488  43.7063551
 110.5018574  74.7677708  43.3075953 111.3567779  73.5199308  43.2528019
  47.0374925 102.7452444   5.5155659  46.4184267 102.1947883   5.9951401
  46.8329114 102.5886510   4.5936871  30.0289297  54.4569254  75.0427675
  30.5568409  54.9374771  74.4051075  29.6669531  55.1347876  75.6134748
  16.7731214  80.5626774  86.9949818  16.6762269  80.4267979  86.0524464
  15.9120536  80.3533936  87.3569107  30.2224970  45.5432177  71.2582111
  30.3483772  44.6067572  71.4112711  30.5126572  45.9596777  72.0697546
  20.5560946  26.6826701  66.8701410  21.3315034  26.3855028  67.3462343
  19.8224699  26.2698197  67.3257542 110.7425965  19.9853408  53.0305195
 111.1359429  19.7281110  52.1966457 111.2574272  19.5220363  53.6912251
   6.3600641  62.2962904  63.4684610   6.5684628  61.4700127  63.9044237
   6.0573208  62.0380640  62.5978899  24.7969389  84.0595436  36.1486864
  25.5977869  83.6196423  35.8634543  24.9612689  84.9877453  35.9823132
  19.3962479  42.5486708  47.8242207  18.7492204  42.3957539  48.5128450
  20.0183058  43.1639624  48.2124090  99.8941757  14.4925873   6.2330246
 100.1992966  14.4076293   5.3297424 100.6735159  14.3323033   6.7651558
 100.0328943  50.9808874  70.6039381 100.8436033  51.1012650  70.1094770
  99.9351296  50.0314331  70.6761551   1.8005571  59.1587687  48.6093950
   2.5810057  58.8888025  48.1254005   1.1047367  58.5913706  48.2775497
   6.2722784  51.1890554  88.2658577   6.7252409  51.3257027  89.0979481
   5.6072271  51.8769789  88.2393932  97.4296412  37.6152658  60.9764147
  98.0911204  37.2302103  60.4016018  96.6729364  37.0350075  60.8931684
  22.6864481  33.1821990  82.2263527  23.2357311  33.2244110  81.4435768
  21.7912126  33.2518744  81.8947887 106.8650153  42.5359297  59.9767399
 106.1387774  42.6687288  60.5859804 107.4559039  41.9384003  60.4350424
   9.9041313  46.8959332  63.6331511  10.2545798  46.1011696  64.0353584
   9.1090548  46.6071129  63.1851912 103.1597164  58.5589075  45.1743126
 103.4683302  58.6086369  44.2695951 102.2387084  58.3090544  45.0998163
  16.2129521  23.4549809  61.4991331  16.9234788  23.0003428  61.9515562
  15.5778265  22.7674079  61.2989092  18.0036008  19.5157874  86.6894722
  18.3464205  18.8724041  86.0691738  18.7522614  19.7370267  87.2433567
 100.2318236  20.3811216  43.6104059 100.4211518  19.4740367  43.3704376
 100.5980322  20.8997989  42.8940964  92.3253784  37.1666241  83.2371044
  91.8906125  37.9696131  83.5241890  92.6392314  37.3663640  82.3551559
  33.8031745  27.1356750  82.6199055  33.2708597  26.3532615  82.4760151
  33.3964229  27.5672460  83.3712578  44.4969082  80.8917236  79.7333384
  44.5165730  81.3923454  78.9177275  43.7266684  80.3294659  79.6507406
   1.2527810  44.7690010  66.1161184   2.1359661  44.4194651  65.9976339
   0.7836942  44.0800858  66.5868425  66.9560671  28.7166095  62.7812576
  67.4585390  28.2847714  62.0904112  66.0727692  28.3580899  62.6947689
 100.8151150   6.6722417  66.6557360 100.7255077   5.7593638  66.3821363
 101.5546227   7.0035076  66.1461973  47.2081280  33.4798217  37.7744913
  47.3745489  32.6624370  38.2439756  47.7544498  34.1273880  38.2199359
  94.4496819  94.9557370  77.4509239  95.0400992  95.5978971  77.0568800
  94.6501013  94.9884397  78.3863354  10.6890738  33.6323309  40.4029322
  10.3590906  33.0420470  41.0803604  11.6080725  33.7702870  40.6323671
  30.0783014  40.4625559  38.4132314  29.5914984  41.2620640  38.6133170
  29.8851871  40.2887821  37.4919581  15.8039737  93.7811756  55.3163719
  15.6960750  94.5761490  55.8384895  15.4617584  93.0811787  55.8723640
  19.9455440  65.5026627  86.3447857  20.4222965  66.2824631  86.6291237
  19.1170728  65.5409050  86.8227005  31.8708229  63.2501984  39.1890645
  32.1707249  62.5070953  38.6655283  31.1592364  62.8958654  39.7222877
  19.9699998  46.0642290  42.8468132  20.0907016  46.6655397  43.5817194
  19.0215719  45.9521723  42.7823114  59.3387485  89.2490004   3.8487720
  60.2109600  89.0767954   4.2034912  59.2671586  88.6640357   3.0945015
  10.3391385  74.9526310  49.5991325  11.0132623  74.3380070  49.3092680
  10.3939915  74.9351931  50.5545998  13.8094687  55.8287382  77.5503016
  13.2719982  55.0463057  77.6734114  13.9188218  56.1853361  78.4318447
  83.4004113   4.3383777  54.1806221  83.1432936   5.0649691  54.7482395
  82.6304790   3.7702322  54.1552258  92.3663780  55.0117397  83.6142063
  92.7909896  54.1972923  83.8836765  92.4299440  55.5802822  84.3816471
   7.9833043  16.3964546  80.8913898   7.5941771  16.2927294  80.0230217
   7.5712651  17.1843338  81.2459278  23.8987970  44.3613911  49.3490028
  23.8949609  43.9092398  48.5053349  24.6772933  44.0285873  49.7955656
  39.4627929  10.9921348  67.0931435  39.0461564  10.8360851  66.2456179
  40.3115225  11.3774991  66.8754625  43.2554865  20.1650620  84.1016960
  42.3161602  20.2254105  84.2756462  43.6100388  20.9994507  84.4088173
   0.5696794  30.3813434  34.0116549   1.4054932  30.5767155  33.5880065
  -0.0094609  30.1273632  33.2930994  28.3466816  27.3360634  78.4689903
  29.1333747  26.7999816  78.3691740  27.9331493  27.0081782  79.2675591
  16.1836243  21.5611911  57.6712656  17.0826685  21.8879175  57.7059078
  15.9459078  21.4165068  58.5871172  24.9647021  17.9831445  25.8394480
  25.6874371  18.3894002  26.3178205  24.2074990  18.5348463  26.0356617
  19.2714512  99.1219139  43.4991312  20.0254273  99.3606853  44.0383387
  18.6766076  99.8679543  43.5753584  47.3889971  54.9569511  90.8631516
  47.4166346  55.4208136  90.0263119  48.1862307  55.2320099  91.3159084
   6.4230233  73.7095451  67.4267912   6.2830520  74.3714046  68.1039762
   7.1806699  73.2107258  67.7323771 103.5277054  58.7541580  81.0620213
 102.8255579  58.3176756  81.5444183 103.0762216  59.3808937  80.4966927
  32.7530217  22.2818184  76.0260439  33.6549616  22.2286654  75.7099581
  32.3288703  22.9050851  75.4362440  39.7116280   0.6167661  74.3740082
  39.7505021   1.3557775  74.9811172  38.7760687   0.4716295  74.2329550
  85.4232332  47.2898245  57.7951956  84.6746776  47.7670145  58.1532288
  86.1298892  47.4482870  58.4211016  10.6581247  58.5605431  56.6303015
  10.3867042  58.7038183  57.5369644  10.9469736  59.4215393  56.3278484
  19.5835626  28.0113387  69.7569990  19.4836056  27.3840427  69.0409422
  19.7033596  28.8551402  69.3212461   8.0189973  53.3409595  62.7748060
   7.4841911  52.7068281  63.2523918   8.8925475  53.2529497  63.1561136
  26.7430758  50.7590437  63.2676792  26.0025072  51.1874533  63.6969280
  26.8616319  49.9425650  63.7529945  23.7937760  26.7987013  65.9993982
  24.2186809  27.6554441  66.0403824  22.9332113  26.9760704  65.6196594
   9.8692465  75.5358696  63.4770870   9.6737796  74.6897554  63.8797235
  10.8020163  75.4913092  63.2668781  34.4902921  58.0080128  57.6028252
  33.7924266  57.3528719  57.6001835  35.2806592  57.5151587  57.8233767
  95.2293727  38.3607769  49.5326328  95.0390944  37.4391150  49.7074604
  95.4123101  38.7352157  50.3943539  31.8662500  28.2505417  45.2803040
  30.9816384  27.9056668  45.4017782  32.4370503  27.5886750  45.6706285
   8.1567335  66.9602919  39.8763561   7.6642048  67.3726749  39.1667175
   7.6250976  66.2057829  40.1299477  21.1229014  70.0491905  73.9310455
  21.8643236  69.7875214  73.3851004  20.5430984  69.2875767  73.9286184
  21.9083357  31.9412374  78.3708906  21.0289502  32.3172784  78.3320999
  22.4933267  32.6988435  78.3636522  16.0233331  54.5034647  62.7940464
  15.9747422  53.5687113  62.5937796  15.3427613  54.9005461  62.2505569
  23.6925864  35.0926995  73.4236336  23.3101201  34.2345691  73.6068392
  24.4612241  34.9024653  72.8858280  15.9969306  41.1433792  68.2873297
  16.3116527  40.2612305  68.4848166  16.6674423  41.5140247  67.7135134
   5.6550205  82.2381210  60.5783224   5.5768949  81.5744209  61.2636089
   6.0761356  81.7818165  59.8498440   7.9726040  54.7656345  78.1371355
   7.7512515  55.5433083  78.6494493   8.2622474  54.1252184  78.7869072
  94.6832678  51.9133377  85.7318974  94.0745232  51.3917160  86.2549400
  94.1974732  52.1188641  84.9331570  29.3757415  35.3717184  63.6479664
  29.9187517  35.5142736  64.4232368  28.6177826  35.9415698  63.7783527
  18.9531648  30.7609582  51.4715147  18.4261024  30.4245806  50.7467461
  18.6503541  31.6612053  51.5902281  39.6370244  53.0306292  74.3590021
  40.2683401  52.5683498  73.8076687  39.9956751  52.9611683  75.2437496
  23.6271572  30.7595968  45.2077675  23.3463144  31.1763191  44.3930864
  23.4312820  31.4050913  45.8868837   2.9682371  55.1938105  68.2822084
   2.4076147  55.0484562  67.5201035   2.5245818  54.7365952  68.9966011
  18.9088559  20.4723215  82.7982712  19.3268776  20.6906199  83.6312389
  19.3944180  19.7118568  82.4786568  18.0485380  78.5715437  56.5395689
  18.3323932  77.6578808  56.5692711  17.0953178  78.5287905  56.6155529
  35.2275229  38.0877972  62.6183558  34.7762275  37.5761724  61.9469357
  34.9968410  37.6583362  63.4421158  38.3566165  25.0692081  69.4438076
  39.0212512  24.7016478  70.0263786  37.8980565  25.7152343  69.9810266
  47.7061463  85.9622048   0.7977486  47.0291734  86.6173862   0.9670925
  48.5286070  86.4494275   0.8467770  14.3621397  47.2628736  22.9216385
  13.4254360  47.3657131  22.7535892  14.7868264  47.7635717  22.2250938
  19.2725372  70.6006908  48.1421566  19.3698394  71.0631180  48.9745760
  19.0527546  71.2864065  47.5115061  31.8205333  30.0678253  42.7085495
  30.8927393  30.0149298  42.9379702  32.2779632  29.7436714  43.4843779
  24.4773889  66.9022131  46.5783072  23.8986039  67.6029158  46.2778807
  24.0415263  66.5471601  47.3530245  11.8271732  18.4489107  59.8645353
  12.0938373  18.7915742  60.7175875  11.5660655  17.5449812  60.0405025
  48.3805681  -0.0548917  28.7589502  49.3314052  -0.0895959  28.6543751
  48.2453907   0.4696864  29.5481133  16.6696692  82.2666836  66.5259409
  16.6521537  82.9504776  65.8563566  17.5577998  81.9122505  66.4831448
  36.7814422  31.3199592  45.4213428  37.0768380  30.9674382  44.5818758
  35.9223962  30.9210396  45.5596781  62.0171643  88.2868193   5.0318813
  62.4220229  87.4306081   5.1705360  62.6829410  88.7942170   4.5676327
  23.0781746 105.2275085  27.5824833  22.5939918 106.0520363  27.5381947
  22.4084640 104.5653820  27.7536750  18.0814111  92.4198246  63.5770702
  18.9586234  92.4277592  63.9600468  18.2093334  92.7256107  62.6790953
  14.8763597  79.3357372  84.9025059  14.4069290  79.7799492  84.1964340
  15.4411113  78.7054825  84.4552135  73.5338208  85.3971481  81.1236858
  74.2793366  85.9872627  81.2341499  73.3765504  85.0434589  81.9991398
  17.9809606  73.4803772  42.0156813  18.1228173  74.4208908  42.1230984
  17.4287915  73.4088230  41.2370777  39.4331861  97.7238369  69.8786116
  38.5788321  97.6992130  70.3095436  39.9861312  98.2322598  70.4718971
  31.8745780  74.5758057  65.4154873  31.6398883  75.3741598  65.8885431
  31.0466719  74.2595482  65.0538445  15.3413880  27.3317671  60.5820560
  15.2685916  26.8607330  61.4121532  15.7088208  26.6902351  59.9740601
  28.0901361  41.6518879  51.8329144  28.8263202  41.2035418  51.4166832
  27.7189016  41.0008621  52.4283791  56.0387897  79.4942951  64.1064835
  56.2113523  79.8487568  64.9787283  55.1842117  79.0703106  64.1850042
  53.4025335  69.5050526  61.8248272  53.2326078  69.3034983  62.7450085
  52.8811121  70.2887344  61.6510534  10.5005002  83.7524414  55.9595108
   9.6818459  83.2763672  56.0987759  11.0844970  83.4306622  56.6462708
  29.6008086  49.1578770  53.1084585  29.9983835  48.7010241  53.8497114
  28.9649010  48.5350609  52.7563858  41.2574816  81.9122028  79.1504288
  40.5074024  81.7781734  78.5710716  41.5041780  81.0308170  79.4306612
  31.0167718  32.2964692  65.9459972  31.4656281  32.4476314  66.7778111
  31.0151792  33.1515718  65.5158472   0.1711402  66.9699144  77.5068283
  -0.0702113  66.8127823  78.4196758   1.0777553  66.6694307  77.4436569
  19.7249174  70.4330301  68.6960649  19.5933688  70.9971189  67.9340029
  19.8427701  69.5572090  68.3282661  14.2390561  44.0100574  63.0667448
  13.5714555  43.6771059  63.6664820  15.0282168  43.5158396  63.2885647
  12.0799029  60.5235815  46.6749907  11.9265068  60.1672888  45.7999134
  12.5329888  61.3524103  46.5200949  36.7743802  61.5535498  59.0692759
  37.6324463  61.9718981  58.9989853  36.9645143  60.6671858  59.3765783
  46.5421438  72.4349594  65.2940130  45.5872774  72.4269295  65.3602743
  46.8455458  72.2624731  66.1853170  23.4331096  98.2074712   1.7957401
  24.0540291  97.4792408   1.8150711  22.9833234  98.1611703   2.6394176
  17.5928867  94.4512939  28.0744410  18.0060077  93.6352921  27.7921081
  18.0813694  95.1370907  27.6191425  37.9844379  99.3947983  34.6310878
  38.7494659  99.9582291  34.7473407  38.2698059  98.5360432  34.9430776
  38.5678625  56.8062925  53.0495453  39.5239806  56.7609501  53.0458450
  38.3517623  57.2381926  53.8759804  45.2444267  61.1718225  53.9748192
  45.9456301  61.6530752  54.4140720  44.9724913  61.7455053  53.2584572
  28.0955148  82.8352070  56.1117506  28.8132405  82.3388195  56.5050745
  27.3053050  82.4695873  56.5094042  36.7960453  96.6688538  63.2426786
  36.9566894  95.7956123  63.6002684  36.8103886  97.2465229  64.0057850
  87.8642930  24.2523139   0.1545334  88.3936347  24.0131180   0.9153271
  87.2547270  24.9122994   0.4848099  23.2906342  46.7591763  79.3332672
  23.1420898  47.6335859  79.6932268  23.8081956  46.9104767  78.5424042
  90.8393981  20.6058638   6.5894413  90.6225957  19.7870724   7.0353222
  90.0117721  21.0854190   6.5534782 102.7949765  54.9078083  71.8684673
 102.8352115  53.9678049  71.6923857 101.8622872  55.0904512  71.9823217
   5.4117060  56.2087584  84.8924065   6.0152489  56.1395884  85.6321239
   5.4068148  55.3336382  84.5046329 108.3694316  -0.1829536  16.1775303
 107.8380944   0.5932229  16.0001755 109.2477824   0.0551503  15.8808231
  45.6512403  62.1990108  68.3953047  45.8028984  61.2560081  68.4583616
  45.0373125  62.2947073  67.6671743  36.2426615  72.5403023  64.8405123
  35.4922557  72.0530033  64.5004225  35.8588600  73.3147335  65.2518368
  11.0814309  92.6337051  87.7844429  10.9845102  93.1097126  86.9596672
  10.9268606  91.7180729  87.5521278  32.7426839  68.8247442  49.2208481
  31.9162679  68.7876940  48.7392902  33.2523823  68.0903101  48.8787270
  20.9611583  24.7080040  53.8718939  21.8084288  25.1198459  53.7023401
  20.3204060  25.3968406  53.6953306  40.0534153  97.8061962  19.7752905
  40.5162239  97.5016785  20.5558729  40.7382202  97.9038906  19.1136777
  14.0638292  56.9420195  80.1823521  14.2467272  56.1425829  80.6759930
  13.7510860  57.5633049  80.8399487   8.8245553  33.8823771  44.8497200
   9.0993583  34.7787476  45.0426817   9.6300352  33.3680582  44.9036741
  26.8278170  44.4763422  87.6769447  26.8665576  43.9919901  86.8522453
  26.6941476  45.3869200  87.4138737   5.7567888  44.3364859  79.7810745
   5.7213432  44.4030809  80.7352924   6.3811874  45.0121689  79.5168543
  13.3027387  52.8913307  63.3427572  13.6617625  53.0118513  64.2218494
  13.8769841  52.2421932  62.9364395  52.2560787  89.7003365  33.0962753
  51.5490913  89.0998650  32.8599763  52.9954147  89.1294193  33.3052444
  18.0194902  95.1272488  87.8592300  17.3630762  94.7712421  87.2603893
  18.3241558  94.3695641  88.3585548  20.8004904  22.6851845  46.6717434
  20.1870108  22.1859431  46.1326408  20.2695322  23.3837104  47.0543385
  28.5321856  62.0563173  58.2274342  27.8559518  62.2892237  57.5912762
  28.4961486  62.7541590  58.8816118   9.5680076  73.1293535  74.5110750
   8.9307439  72.8454304  75.1664495  10.4110217  73.0865622  74.9624395
  42.1129084  39.5530796  81.2544441  42.8555918  38.9520502  81.3129139
  41.3773537  39.0611148  81.6193581  26.5333724  66.2445545  59.4383764
  26.5471482  66.7276192  60.2646255  26.8499064  65.3705168  59.6666336
  43.1840324  60.0656509  89.6497440  42.4459696  59.8314238  89.0870476
  43.5481071  59.2256880  89.9292850  58.8326693  96.1227512  50.9657049
  57.9914713  96.5657139  50.8543444  58.7085056  95.2664757  50.5562973
  27.4253559  51.3241243  65.9324551  26.8747449  50.5512619  66.0579205
  27.9060578  51.1470366  65.1238823  71.5749264  64.1294670  54.3617821
  72.0882702  64.2822218  55.1551104  71.4397764  65.0020504  53.9922333
  29.5185978  -0.1025659  81.1400795  29.4744403   0.7470531  80.7014084
  29.7482181   0.1069564  82.0454025  38.4534574  82.1199226  60.4032040
  39.1758561  81.6243267  60.0175142  37.8948951  82.3469067  59.6597528
   9.0307051  65.9673786  67.9302073   8.7054276  65.3038120  68.5385656
   9.9326551  66.1260462  68.2086706  49.8101521  82.0359516  20.8111310
  49.1105127  81.4973831  20.4414272  49.3534803  82.7537632  21.2498021
  31.2444377  86.3966656  85.9469604  31.6221189  85.7540894  85.3463936
  30.3902745  86.0331726  86.1804485  28.6397314  59.3418550  47.0682383
  29.2079973  58.8625050  46.4653015  28.7316322  58.8805151  47.9018736
  37.1200228  58.8993263  59.8754549  37.8222966  58.2633400  59.7392035
  36.5941501  58.5274267  60.5835390  11.5974820  74.0864754  54.8483086
  12.5150096  74.3416786  54.7521687  11.3483155  73.7584543  53.9842749
  63.9997078  91.5484832   4.0865135  64.8093129  91.9482421   3.7687588
  63.7382627  90.9489630   3.3876133  27.5678468  58.7479639  63.4294605
  28.2320666  58.1655979  63.0608177  27.3026824  58.3229065  64.2450857
  51.9338144  97.9264091  15.9284496  51.6863776  97.3273109  16.6327858
  52.8558160  97.7313017  15.7608891  14.3343353  64.3732786  81.6918182
  13.6851704  64.0542936  81.0648727  14.5825529  63.5977888  82.1950436
   7.9931027  93.2513142  68.3603764   7.2127247  93.6885262  68.0196571
   7.9659814  92.3765087  67.9728127 101.7802020   4.3955304  89.3362354
 101.9919487   5.0407530  90.0108303 102.4055525   3.6851574  89.4795421
  13.4625673  47.1406364  49.6613169  13.8868535  47.8940248  49.2506790
  13.3036518  46.5323973  48.9394999  37.4944997  39.1141534  34.9454975
  38.2068610  38.7328005  35.4586697  37.7636600  38.9928484  34.0349650
   7.0805621  53.6999798  74.5383072   6.6533518  54.5175028  74.2826176
   7.9983717  53.9393854  74.6669197  22.2852969  41.4953804  77.7373075
  22.3145151  42.4205923  77.4936724  22.1816397  41.0320044  76.9061804
 105.8869925  52.7206469  67.5493908 105.2234551  53.1760836  68.0675936
 106.6054460  52.5661325  68.1627274  43.7868786  67.7763367  58.1772709
  44.2770386  68.4582806  58.6365366  44.4043159  67.4303579  57.5328302
   5.6910759  47.4084187  60.4713869   5.5785739  46.7740488  59.7634649
   6.2605041  48.0825949  60.1006126   7.5613564  67.8761292  56.7245150
   7.8515160  67.6751232  55.8347750   6.9087851  68.5674953  56.6131783
  33.7593102  64.3183422  58.1983948  34.3173552  64.9685574  57.7717400
  33.4880948  63.7339783  57.4904442  15.3246999  57.3443985  32.9100084
  15.0231850  58.1872034  32.5708866  14.5234764  56.8916702  33.1732774
 110.3733049  48.4108591  76.3304329 110.5495933  49.0923357  76.9790840
 111.1014632  48.4743595  75.7123804  27.0829153  54.4529533  66.8289375
  26.6783667  54.3291330  67.6875639  28.0053067  54.6220016  67.0208979
  93.3393527   6.8176669  27.9524040  94.2653752   6.5823668  27.8945446
  93.3197118   7.7581901  27.7756095  25.9125900  72.2407770  62.6520061
  26.3285923  72.4787331  63.4805918  25.1193690  71.7704821  62.9086256
  33.2751894  61.2697649  65.6339788  33.4133482  60.3226900  65.6199598
  34.0587115  61.6198587  66.0579586  58.0358982  44.7464323  85.6858826
  57.2028542  45.0201893  86.0697079  58.6664581  44.8239231  86.4018536
  69.4843622  26.3658230   6.5824986  68.5408516  26.3735287   6.4213753
  69.8734660  26.2214511   5.7199478  63.0082846  57.4941587  78.3993101
  63.2528496  57.5261545  77.4744320  63.7216949  57.9445744  78.8514185
  13.7042725  62.8768492  85.5674267  12.9247522  62.3406982  85.7127476
  13.3715141  63.7724543  85.5091476  11.5666878  38.4218597  79.7836065
  11.6806793  39.0354919  79.0578699  10.7467318  38.6906028  80.1979446
  31.8584967  55.4006147  50.3220367  31.9063377  54.4943237  50.0177622
  31.5629101  55.3331566  51.2299538  30.9397888  39.0379930  78.7114429
  30.0550056  39.2034793  78.3858538  31.0895753  39.7270298  79.3587589
   3.5517982  81.6888428  72.2759295   3.8653180  82.3464584  71.6550636
   2.6775521  81.9902897  72.5230169  15.3267491  43.3011818  72.7379942
  15.6828368  44.1857481  72.6544380  14.5757890  43.3996010  73.3233213
  35.6273627  74.3219328  51.4399767  35.9863853  74.9619532  52.0545578
  35.6526113  74.7643089  50.5915070  11.5687501  58.1615782  76.7178297
  12.2104883  57.4829578  76.5083456  11.1147141  58.3252192  75.8912086
  57.4729897   2.3657076   5.5598259  56.7271282   2.4557679   6.1529636
  57.1721734   2.7504771   4.7366047  20.0321555  56.4695215  81.5952206
  19.3513167  56.6741610  80.9542751  20.2139354  57.3045444  82.0264149
  15.1842761  41.8402719  36.4579678  14.6596777  41.3306952  37.0755100
  15.8127177  42.3088694  37.0072484  30.5968547  67.4094200  74.5414686
  31.0754395  67.9640818  73.9254045  30.8540773  66.5169764  74.3099356
  22.7778006  51.0278749  33.8221550  22.9233193  51.1132812  32.8799438
  22.4073887  50.1517200  33.9288521  72.3598719  70.1111746  49.3705606
  71.9881248  69.3889904  48.8641119  71.5990782  70.5750990  49.7201347
  68.3689523   3.0836886  76.0517836  68.0391694   3.3583564  75.1961899
  69.3059874   2.9450339  75.9140539  22.8246379  95.2273560  40.8506489
  23.4225464  94.6803284  40.3412437  23.3843327  95.6540775  41.4994097
  34.3734002  67.2516823  75.7058096  34.0082836  68.0231047  75.2724266
  35.1255441  67.0074844  75.1664782  46.9991589  62.6397610  65.6734228
  47.7369881  62.1703339  66.0626125  47.3101330  62.8974295  64.8055887
  39.8438907  50.2982855  81.6132355  40.3450489  50.3486013  82.4272060
  40.4453182  49.8967695  80.9860992  30.4766035  90.0781345  54.4971180
  30.5296254  89.4291687  55.1987362  30.4026055  89.5593548  53.6961031
   2.1013980  19.9666970  19.3191338   1.9077449  20.2688258  18.4317493
   2.8515248  20.4942553  19.5934105 101.2706313  76.6546726  80.4572010
 102.1744415  76.3407707  80.4859066 100.9156510  76.4418650  81.3202953
  31.9986439  69.6779108  59.0546560  31.5688419  69.1818523  59.7513819
  31.5249991  69.4336748  58.2595205  29.7274446  56.9468498  62.6844931
  30.6500149  57.1896505  62.6061153  29.6463370  56.5972376  63.5718584
  52.4989784  17.8315276  63.5153198  52.4086941  18.3736247  62.7315998
  53.2547022  18.1981200  63.9743614 107.8024235  76.7576981  83.5551262
 107.7052635  75.8132648  83.6769199 107.7919832  76.8790817  82.6057053
  94.9547562  92.9714680  51.1882067  94.9019477  92.6505184  52.0884466
  94.9589083  92.1790504  50.6512785   4.0044987  67.0134735  75.9324503
   4.0701151  67.9372692  76.1743736   4.1831389  66.9988489  74.9921846
  39.5039630  56.3656950  86.6774464  40.0895166  55.6884527  87.0161247
  39.4601393  57.0166063  87.3778915  38.7488914  42.3907566  68.6822510
  38.6699438  42.4145794  67.7286100  39.0185666  41.4934158  68.8779163
  17.5803792  76.7494440  43.5568619  18.4301722  76.4170647  43.8460159
  17.7759230  77.2501183  42.7648258  77.5370778  19.2821734   8.8388252
  78.1653140  20.0020306   8.7808704  77.5043525  19.0673106   9.7710228
 103.9264879  37.3387671  68.3538437 104.3213418  36.5525913  67.9766798
 104.6639410  37.9318690  68.4974575  35.2640080  48.6110687  58.1223488
  35.9181738  49.1980314  57.7431726  34.6848488  49.1877842  58.6205482
  16.9971669  54.2704105  84.3482494  17.0179272  53.3926344  84.7294426
  17.6984429  54.2652655  83.6967754  10.7916009  17.7355337  87.0489120
  11.6164994  17.9471207  86.6118717  10.9761059  17.8565717  87.9803276
  23.4613514  58.3738899  59.2597532  22.9210186  58.4579134  60.0453854
  24.1761041  58.9964819  59.3929386  38.6991954  46.8976402  32.3141527
  38.9396262  47.5453138  32.9766798  39.2718244  47.0905018  31.5717697
  28.9308047  68.6626863  30.9647512  29.3462157  69.4172478  31.3822460
  29.6614385  68.1091261  30.6891108  25.9580946  67.9477262  74.5681143
  25.2612853  68.5790539  74.7473240  25.5129790  67.1007204  74.5419693
  75.4697192  42.6564400  10.1645470  75.9803630  42.9635613  10.9136486
  76.1073253  42.2113793   9.6063232  20.7875848  64.9047470  61.0999346
  19.9767256  65.4002142  61.2150717  20.9005976  64.4349623  61.9262266
  15.6110728  57.0363665  10.2921903  16.3065851  56.4182043  10.0677466
  14.8913836  56.4856148  10.6003320   2.3327649  49.4108057  83.5817432
   2.0419599  48.6541367  83.0727100   3.2288802  49.1954708  83.8402748
  33.1243992  61.4234209  87.2710419  32.3593593  61.1665964  87.7858162
  33.7860751  60.7640934  87.4801064  70.2095579  20.0007098   1.8532372
  70.4825874  20.0166552   2.7705383  71.0199432  20.1276677   1.3598919
  90.3603408  78.6866331  66.3597727  90.9289524  77.9391909  66.1747169
  90.3159091  78.7229967  67.3152494  19.4355607  58.9463663  24.9087119
  18.6450708  58.9471483  25.4484868  19.1980124  58.4325457  24.1368365
  49.6206093  41.3914919  71.0210276  50.5365372  41.6200399  71.1793756
  49.1243792  41.9906759  71.5786695  38.0201554  49.7778797  58.8748789
  37.5741053  49.0493155  59.3066978  38.9514685  49.6010160  59.0075588
  39.0700054  47.6172972  74.6751499  38.3615446  47.8493261  74.0747547
  39.4134593  46.7920303  74.3327999  14.7452915  68.4948444  63.2552671
  14.8643064  69.3048191  63.7512541  15.4538274  68.5017681  62.6117134
  89.6629931  19.0994637  -0.0699329  88.9042951  18.5217421   0.0128365
  89.3572761  19.9448769   0.2587605  52.4113703  38.0788589  85.4954624
  52.3422384  37.6590252  84.6380329  53.3119249  37.9104185  85.7727146
   6.6973513  76.6464567  89.1943645   6.3361973  77.5023556  89.4250774
   7.6429796  76.7485952  89.3020058  17.6563394  74.2548704  50.3968239
  18.2149053  74.9068737  50.8200598  17.7338135  74.4439077  49.4616795
   6.8533397  69.8484182  69.4627666   7.1120274  69.4456768  68.6338472
   7.1946192  70.7412720  69.4120455 104.0010311   7.3875039  20.9063053
 103.3014323   8.0256360  21.0462379 104.0668203   6.9180148  21.7378616
  15.1091158  95.6665897  56.9983387  15.1416004  96.3022518  56.2834263
  14.3075192  95.8826923  57.4747515  50.8972311  19.7721887  65.0996828
  51.4141703  20.1833630  65.7924604  51.5466928  19.3705904  64.5224905
  23.3652258  71.9851398  86.6948032  23.5161066  71.9718456  85.7496643
  24.2121792  72.2275209  87.0691681  47.9815578  36.1566830  63.4247780
  48.5336828  35.9058905  62.6841736  47.9015303  35.3574014  63.9453363
  29.4444728  57.5911427  80.6105614  29.3558264  56.8675089  79.9903011
  28.6254072  58.0794764  80.5275249  85.0521657  62.9076958  56.5142679
  85.8799502  62.4335003  56.4358997  84.8816559  62.9379368  57.4556732
  60.2236748 101.7506027  40.3855467  61.1227751 101.7394829  40.7137537
  60.2812529 101.3548851  39.5158815  18.8169050  63.6399078  20.5768657
  19.4781637  63.8482666  19.9168968  18.1046069  63.2343435  20.0825167
  25.5833364  39.0796185  77.7757597  25.7865071  39.0069890  76.8431950
  24.6280980  39.1307235  77.8095055  25.6122708  62.5618744  61.3649368
  26.2318087  62.5537729  60.6353235  25.5393958  61.6442680  61.6274643
  25.4102015  94.0028572  67.6911402  25.1798630  93.6451054  68.5485697
  25.2176070  94.9377918  67.7621031  55.8230066  67.0825338  61.9958735
  55.2934074  66.2892628  62.0763779  55.2515793  67.7077913  61.5500498
   6.1101860  47.0787764  49.7810173   6.6293460  47.7268171  50.2571917
   6.7419970  46.4066982  49.5253563  32.5073624  46.0520172  69.4441175
  31.5718198  46.0203886  69.6440935  32.9055858  46.4419031  70.2223444
  26.2009430  60.9197235  88.4398174  26.3514924  60.7330179  89.3664837
  25.5684686  61.6382027  88.4399223  29.3404245  48.9482307  72.6902533
  28.4313512  48.9790678  72.3921537  29.2856646  49.0664339  73.6385441
  42.7479887  57.6791000  58.5776663  43.2330990  56.9601011  58.9825630
  41.8975878  57.2995520  58.3563280  29.8940301  76.3073874  71.6708231
  30.5218291  75.9733438  71.0301113  29.6674061  75.5453444  72.2038937
  37.8474021  61.8997765  80.0320721  38.3544803  61.3724661  80.6493664
  36.9407248  61.6268396  80.1723194  35.0942397  66.0708475  64.3084335
  34.6573853  66.1275101  65.1582432  34.5604014  65.4560041  63.8052273
  36.9801879  93.0877686  60.2685785  37.5659370  92.5839424  59.7035170
  36.1361885  93.0674934  59.8174810  24.6758771  73.1000996  50.5933571
  24.3158174  73.3324766  49.7374439  25.4941273  72.6453781  50.3935385
  38.0204797  84.5155334  76.4439201  38.0445910  85.3260612  76.9525433
  38.6654639  84.6493053  75.7494211  40.3035831  20.6158161  76.8692064
  40.6636858  19.7846639  76.5597725  40.3694677  21.2011027  76.1146641
  15.2546477  53.3762026  54.1474247  14.9971354  53.8870764  54.9148369
  14.4293201  53.1719208  53.7077236  18.7112463  75.3832436  73.6255646
  18.8597310  74.4720936  73.3725977  19.5513558  75.8148909  73.4702396
  98.8578698  35.6169820  76.6027498  98.2623681  35.9415889  75.9272909
  98.4167835  35.8186817  77.4279690  32.2121692  25.4377055  47.3933792
  32.6383400  24.6871042  47.8071547  31.4869356  25.0579333  46.8973541
  22.3195195  40.6629658  87.8559303  22.9047418  40.6270170  88.6125374
  22.1826196  41.5979385  87.7032280  23.0253291  50.5110455  84.6824741
  23.1457424  51.2774754  84.1218281  23.7875938  50.5156469  85.2614021
   0.8719862  97.3600864  38.0484080   1.0805050  97.0422173  38.9268780
   1.7217898  97.5730515  37.6627755  57.6584530  71.6178083  59.3177986
  57.0750809  71.8486881  58.5948849  57.1195793  71.0800838  59.8980570
  75.8028007  76.3470458   5.1703453  75.0115085  76.1478256   5.6707478
  75.7358599  77.2824834   4.9787521  32.3533773  88.1946945  70.4595470
  31.5885019  87.6224995  70.5211353  33.1015229  87.5982380  70.4869890
  32.4334264  66.3615704  53.2318544  32.1841264  66.5904379  52.3364782
  32.0525908  65.4947042  53.3723593  22.9643059  56.5034723  50.0414085
  23.7396836  56.8330002  49.5870590  23.2881451  55.7736206  50.5693102
  30.7498670  42.9331160  71.7187691  31.5811729  42.4586630  71.7109823
  30.5258679  43.0086279  72.6463223  32.0202780  73.3069992  87.8576756
  32.4470544  73.8013268  88.5574818  31.5075302  72.6398563  88.3140182
  25.2026224  34.4697475  45.3245258  24.4396377  34.1946030  45.8328390
  24.9855042  35.3527665  45.0255775  36.4929652  57.2108364  51.1456871
  37.2924685  57.1342611  51.6664219  35.9443092  56.4841747  51.4409351
  75.0625700  14.2387574  13.2510948  74.9892462  13.6929219  12.4682045
  74.3640805  13.9271252  13.8266182  67.9718519 105.4629015   1.0571384
  67.0498682 105.7126497   0.9954453  67.9655863 104.6443533   1.5532875
  92.5091483  33.2962315   4.9833202  92.9858805  32.6715367   5.5298615
  92.1990015  33.9628117   5.5962658  35.0604153  84.5113945  73.9779234
  34.8250580  84.5242691  73.0501986  35.9107304  84.0725803  74.0032339
  57.8412914  78.9633608  85.0355625  58.5779190  78.9003563  85.6435490
  57.2164440  79.5399332  85.4753017  22.5500512  79.5811749  80.6318474
  23.3052206  78.9998913  80.5420589  21.9183111  79.2537498  79.9915886
  99.2517878  44.0577309   2.2451115 100.0513245  44.0455716   2.7712536
  98.5819603  44.4031518   2.8352356  19.5690215  67.7460861  67.5370789
  20.5124450  67.5943851  67.4807787  19.2565644  67.6479769  66.6376448
  44.6332645  80.8269596  84.8153782  44.7370386  81.7581558  85.0111485
  44.3415403  80.8048725  83.9039898  40.6424284  49.6885967  59.8603058
  41.5313625  50.0084734  59.7063255  40.7636452  48.8249445  60.2548313
  25.2098322  91.1984444  66.9492149  25.2738190  92.0518398  67.3780060
  25.2672958  90.5657482  67.6651955  77.2576094  63.1898355  85.7301903
  76.8284750  62.9468870  84.9097919  76.5421295  63.4703922  86.3008118
  50.4555702  76.1288166  76.7239666  51.2224913  75.6821060  76.3654804
  49.7100163  75.6953812  76.3086176  45.7158899  65.3412199  54.0424204
  46.5032768  64.8702812  54.3153286  45.3731728  64.8301411  53.3092213
 104.3379212   5.2955932  49.8488808 105.0340796   4.7239131  49.5251894
 103.5719395   5.0603217  49.3252897  56.7552423  86.8938446  70.9247923
  56.0704088  87.4069023  70.4958248  57.3010206  87.5446033  71.3662338
  32.6061988  95.7787704  54.7094727  33.2192779  95.0506401  54.8104143
  31.7443824  95.3635025  54.6770525  44.9528790  89.1992664  73.3288193
  45.8421755  89.4223881  73.0538607  44.9189043  89.4461060  74.2530251
  23.7408090  56.8025780  13.1857443  22.8461814  56.4761114  13.2821631
  24.0753675  56.3579845  12.4068737  78.6306344  60.8660977   8.5423183
  79.0398283  61.0551732   9.3867302  79.3485419  60.9179108   7.9113197
  22.4273705  81.8301105  66.9052553  22.6993275  82.6876640  66.5783501
  23.0225968  81.2122059  66.4808321  56.3993216  77.7632999  49.8931170
  56.5622377  76.9612741  49.3966818  55.6670952  78.1810522  49.4397211
  39.0711880  75.9487104  46.7358208  39.3885565  76.7199421  47.2056150
  38.7171125  75.3804493  47.4198866 109.0941760  75.3268337  63.5910559
 108.7536603  75.6510878  64.4248104 108.4078285  75.5317163  62.9560900
  86.3846827  16.6644877  43.1846905  86.3914204  15.7318896  43.4002161
  87.1885968  17.0065135  43.5758114   5.8957485  16.7984790  82.9548454
   6.1733631  15.9752482  83.3566570   4.9795679  16.8948764  83.2147598
  46.6254568  93.3777618  30.3535295  46.1915016  93.5305119  29.5141339
  47.3761988  92.8244972  30.1378536  42.6301289  85.7910252  85.6930351
  42.2427464  85.0142574  86.0965061  41.8795967  86.3170815  85.4169941
  32.2623086  59.9254131  60.4744148  32.2854543  60.8823204  60.4794025
  33.0441642  59.6694708  59.9851036  41.0194254  83.3115482  44.7551346
  40.2202129  83.7198353  44.4222784  40.9130144  82.3809528  44.5578957
  58.1035328  90.9814739  90.9737110  57.2705507  91.1479378  90.5325031
  58.1428385  91.6397858  91.6674805  16.4910829  52.8404522  47.6345682
  16.9785023  52.1348667  48.0597830  16.2395072  52.4793339  46.7845488
  65.0535631  77.7541113  55.8829880  64.5337820  77.5101089  56.6488361
  65.9576225  77.5715065  56.1390352  78.9695692  82.2243309  58.7930250
  78.2664251  82.3984718  58.1673288  79.1022491  81.2775040  58.7468243
  56.8517303  84.2636776  73.3957100  56.0880423  84.7853661  73.1490088
  57.1865463  83.9222336  72.5665283   3.7513730  70.2881050  68.5740948
   4.6823445  70.0658274  68.5848951   3.3416134  69.5792246  68.0782938
  48.0067492  66.1046267  65.2218151  47.1146107  66.3597345  65.4568529
  47.8951263  65.3592110  64.6317863  45.5653954  85.1045132  87.0810699
  45.8220005  84.2548084  87.4393940  45.5489683  85.6889629  87.8389359
  40.0521994  74.5651960  63.5237503  39.1953635  74.2970037  63.1918859
  39.8654604  74.9663258  64.3725491  56.4460611  65.5338240  89.5303726
  56.9006824  64.7066402  89.6894741  57.0725155  66.0596275  89.0330696
  30.7437325  57.2573566  48.7763214  29.9969554  57.6265049  49.2477942
  31.0737991  56.5680122  49.3525934  36.5026164  87.1303940  77.6906490
  36.1753416  86.5688038  78.3933163  36.1812019  88.0041599  77.9130173
  23.6354280  60.1275730  56.3900375  24.3811607  59.5590162  56.5820122
  23.8745689  60.5693579  55.5752563  59.8050737  77.9847240  48.4887695
  59.7583580  78.5780144  49.2384768  60.6121445  78.2321119  48.0374813
  93.8278247  14.9393933  14.2953873  93.6041869  15.7427352  13.8254356
  93.0263104  14.7043793  14.7629070  50.3899956  82.1584892  65.1106071
  49.4523382  81.9943333  65.0102043  50.5908537  82.8154755  64.4440699
  30.0165963  79.6004868  85.6246281  30.7850027  79.2078543  85.2103519
  29.9611998  79.1737986  86.4796734  43.1844759  75.7056332  50.6035805
  42.6347923  75.2332973  51.2288618  42.8342915  75.4635954  49.7462463
  44.6801662  76.9879150  66.9020796  43.9382839  76.6183567  67.3809004
  44.8846102  76.3330221  66.2345886 104.3430449  58.4066479   6.8717480
 104.8382308  58.2835095   6.0618973 104.2462207  59.3556111   6.9513321
  72.5223971   8.8081473  38.7634134  72.7981520   7.9035872  38.6151791
  71.6092563   8.7376231  39.0416765  94.4078304  45.2911465   4.0920067
  93.7237383  45.8879655   3.7885952  93.9887346  44.7777360   4.7826672
   8.7953299  55.2058315  67.3277092   9.1244435  54.3163395  67.1983957
   8.1935149  55.1332045  68.0685043  96.5994455  24.6944754   0.4363632
  95.8050062  25.2163260   0.3233624  96.4250494  24.1569607   1.2089539
  94.2593178  69.3555784  75.6477880  94.6370944  68.4785032  75.5825853
  94.8680422  69.8375463  76.2076044  63.8315201  75.3562260  65.0385046
  63.9118719  75.1440048  64.1085911  62.9992867  74.9639893  65.3026485
  50.1784945  85.9072495  69.5078564  49.7168303  86.5184402  70.0819111
  49.4856024  85.3716183  69.1215420  13.0051422  81.0840702  38.4478354
  12.3368752  80.4097748  38.5702610  12.7567911  81.7805672  39.0556550
  31.3786030  94.6427250  42.6897621  31.6800427  93.9935017  43.3252716
  31.9692183  94.5396614  41.9435787   1.2109588  69.2499304  55.9476757
   1.7409761  69.8426533  55.4147720   1.0139946  69.7508860  56.7391825
  67.6845312  90.9833336  72.8251934  67.5747108  91.8012333  72.3401976
  68.1475925  91.2383842  73.6231613   8.4939361  56.4188814  54.6867180
   8.1595123  57.2147512  55.1002216   7.7372396  56.0492516  54.2317295
  13.4861998  19.3436425   8.7902546  13.9895205  20.1021569   9.0861511
  13.0921607  18.9915221   9.5883656  26.7305970  89.1865730  36.5025687
  25.8696127  89.3629074  36.8818355  26.5911460  89.2392063  35.5570459
 108.2366396  46.6967957   7.2643280 109.1173436  47.0337479   7.4288082
 107.9381444  47.1744053   6.4903641  25.3653526  56.0815859  65.6590986
  26.0630226  55.5289030  66.0112810  24.9304533  56.4403391  66.4326572
  33.4085679  84.8245335  68.5256863  34.0415502  84.4053841  67.9426908
  32.5991535  84.8583031  68.0158377  26.8568420  78.7579250  62.4616098
  26.8150377  79.0136051  61.5401363  26.0039425  79.0064144  62.8180456
  80.5642510   8.1818599  61.5478992  80.9251691   7.6322955  60.8522367
  81.2593222   8.2241649  62.2046471  59.2160416  67.5712872  51.4187860
  59.4826698  67.0808554  50.6412125  58.6081553  68.2326031  51.0880756
  69.7842646   2.7973098  70.4601526  70.0211597   2.9015941  69.5386124
  69.9156070   1.8658656  70.6372976  44.4422722  70.8728743  83.8575935
  44.8683167  71.3670731  84.5579433  43.7646627  71.4623260  83.5265064
  51.8878031  82.3551655  81.3313198  52.8067303  82.5639343  81.4993095
  51.3986111  83.0172539  81.8197536   3.6456828  44.1640561  13.2237720
   3.5778575  43.2119458  13.1522369   3.6095957  44.3367379  14.1645718
  54.5177794  84.6176815  47.7120447  54.5478344  85.4240513  47.1971703
  53.9792395  84.0213203  47.1918964  38.2058549  94.1933727  55.5886459
  38.8138247  94.5786285  56.2196636  37.3429847  94.3076038  55.9869432
  75.8623648  69.8727655  87.5847435  75.8258104  70.8197641  87.4502468
  74.9485970  69.6116495  87.6991177  39.9533272  78.1239748  48.2301283
  39.8484921  78.8993835  48.7814760  40.0109434  77.3960400  48.8490248
  33.4748554 102.6577759  55.4493761  34.3390203 102.6207829  55.8593559
  33.6570692 102.7633762  54.5156288  53.8384295  73.9762545  64.0184689
  53.1948376  74.5977640  64.3586874  54.6825504  74.4059801  64.1563988
  23.8681221  65.2440453  67.6704359  23.5369253  64.3550301  67.5431871
  24.6156693  65.3085089  67.0760918  20.9324431  57.5082493  68.1290197
  20.4353476  56.8219566  67.6838970  20.4977489  58.3222008  67.8745556
 105.4463777  69.6755171  55.2228117 106.2653133  69.2973042  54.9026108
 105.3070465  69.2596722  56.0736322  44.8712730  64.9743795  68.3763742
  44.6292162  64.2166281  68.9087772  44.1107130  65.1255941  67.8151989
  98.0417252  78.9852810  62.2801352  98.6778927  79.0917444  61.5728951
  98.1098080  79.7942162  62.7873039  63.7537718  88.7300014  61.1226320
  63.2312059  88.1561184  61.6828251  64.6357155  88.3595181  61.1565495
  29.1509795  97.2343159  47.8132772  29.6379495  97.9158306  47.3500013
  29.1933155  96.4736938  47.2337151  69.8407937   3.4480018  53.6955690
  68.9175750   3.2010192  53.6417007  70.3017951   2.7566356  53.2204676
  54.6828842 101.1282444  70.7312155  54.5142078 100.9081745  69.8150539
  54.2829990 101.9900227  70.8480692  24.8701787  61.5012598  54.2901468
  25.6242537  60.9234715  54.1728306  24.5656729  61.6812420  53.4007025
  62.8237247  72.6373434  74.8806143  63.7265968  72.3572206  74.7303438
  62.4206209  72.6221561  74.0125656  93.7290646  31.0536282  19.8777580
  93.6775006  31.0552685  20.8335590  93.3089544  31.8722050  19.6138287
  61.5499592  79.2724895  83.9013100  61.0273790  79.9577427  83.4846878
  61.3299704  79.3352461  84.8307705  37.7605367  83.7423325  84.2082214
  37.1871066  82.9773045  84.2544842  37.2574091  84.3892193  83.7136173
  45.1995754  68.2468700  70.6036806  44.7854996  68.3697176  69.7494698
  45.0265598  67.3316574  70.8243179  67.6124931   1.5365047  51.2412977
  67.4910522   1.8439788  52.1396017  66.7522789   1.2054557  50.9830999
 111.0857941  43.9410393   5.3775215 111.9713999  44.1082375   5.6999683
 110.8698393  43.0702489   5.7111740  66.2717533  81.9782066  68.0419159
  67.1755409  82.0655441  68.3448458  66.1278057  82.7486515  67.4924421
  49.6679401  87.6785660  78.6620712  50.0580597  88.3296394  78.0788517
  49.1809845  87.0960617  78.0791569  62.1867347   7.6016349  84.1418362
  62.6230264   7.8424853  84.9590683  62.7590967   7.9435081  83.4549904
  69.9422599  -0.0914079  82.2447109  69.4557429   0.7284087  82.1584797
  70.8448339   0.1417083  82.0273399  32.1525955  97.9320717  62.3039818
  31.9046712  97.1013832  62.7098322  32.8764510  98.2543850  62.8409910
  55.7556248  78.7665319  73.7372303  55.0062037  79.2947197  74.0122128
  56.4441633  79.4054079  73.5528755  59.8710108  90.0113678  59.6038008
  59.6611691  89.1754532  59.1873312  59.9231911  89.8073196  60.5375433
  28.4292841  67.6711321  50.9796810  28.9824057  67.8156710  51.7474031
  27.5671315  67.4652386  51.3409710  70.8093834  75.8859348  35.1229787
  70.4221678  76.6004610  35.6286979  70.0665617  75.3313828  34.8844028
   8.6921549  63.8997793  56.5629673   8.1945044  64.2954731  55.8474255
   9.3700767  63.3838272  56.1265612  30.4041886  84.7808647  45.2827406
  30.3509712  83.8264275  45.3321409  31.0274291  85.0218010  45.9681273
  38.3347516  16.6550295  13.0157280  37.6852755  17.3138659  13.2613850
  38.7375502  17.0010703  12.2193432  43.2042265  85.1139450  61.2825394
  43.8130903  85.0508595  60.5466509  43.0293846  86.0510540  61.3690853
  42.1348476  76.7332268  83.5618687  41.2088728  76.6717291  83.7964153
  42.1363831  76.7950964  82.6066685 105.2859458  37.6193166  77.4193954
 104.4678316  37.9972506  77.7420235 105.2580926  36.7068028  77.7071047
  22.2211933  97.4148178  52.1329594  21.9162774  96.9432640  51.3577890
  22.4129081  98.2975483  51.8163157  32.4737358  72.0629597  74.1658211
  31.7875934  71.7157698  74.7358227  32.0188379  72.6783848  73.5908842
  55.9069109 104.1998100  48.5684252  55.5658340 105.0875473  48.6770964
  56.6400242 104.1481495  49.1817045  52.0719481  69.7957134  72.6195765
  52.0812273  68.8492918  72.4766397  52.2029591  70.1707649  71.7487144
  95.2214076  29.7489159   2.6917839  95.5232193  28.8702862   2.4612236
  95.2220012  30.2275651   1.8628502  45.5053902  96.1088276  76.5976954
  45.0389862  96.3054752  77.4101162  46.3026285  95.6614876  76.8814754
   3.5209183  31.1658948   9.1258335   3.9446883  31.5345376   8.3507442
   3.5264783  30.2206605   8.9750957  31.9840336  50.2382660  72.1711445
  32.3277235  49.7106266  72.8920507  31.0614610  49.9902248  72.1114159
  38.0763245  55.8903980  59.7621870  38.6856031  56.0263014  60.4878187
  38.1307530  54.9530363  59.5761013  11.7821395  86.6313744  81.4266682
  12.2416735  87.3025322  80.9220791  11.7433619  85.8756447  80.8405018
  48.0900955  58.4546423  63.5755825  48.1036282  58.2001257  64.4982243
  48.3954048  57.6771402  63.1081390  24.7440934  86.4579391  59.7257853
  24.3476629  86.6141701  58.8686562  24.0087867  86.4838219  60.3380632
  51.4401102  91.2555027  29.6930504  50.5185366  91.4941978  29.7928452
  51.8550158  91.5594006  30.5003452  12.6778173  77.6088572  58.5398293
  12.9100573  78.1035995  57.7540016  12.2835910  76.8024540  58.2073689
  69.5127869   2.5565547  27.7569532  69.1159273   2.6383227  28.6241603
  69.5465184   1.6134280  27.5969458  29.1570306  64.8526096  68.8263130
  29.9215627  65.0066423  68.2713413  28.6102200  64.2522955  68.3195066
  18.8460231  65.9724092  35.9344745  19.5822883  65.5069590  35.5376101
  18.2678568  66.1770201  35.1995635  49.9371243  83.7906742  55.3061771
  49.7124958  83.4626102  56.1768961  49.7891808  84.7348118  55.3604412
  33.2572508  83.8539028  58.2459164  33.2296729  84.1475964  59.1565275
  34.1820717  83.6697197  58.0815649  53.1374030  23.2770293  20.0031281
  52.7760176  22.8316825  20.7694817  53.8541751  22.7124112  19.7138596
  72.3118711  11.5269679  37.6116490  72.2234321  10.7183379  38.1161547
  73.0507661  11.9818419  38.0158257 111.7825244  83.4259987  71.0221004
 111.9767056  82.4895096  71.0610056 111.2584519  83.5291386  70.2277803
  61.3014841  99.4183826  86.7694569  62.1816301  99.5134926  87.1334934
  61.3479805  98.6261368  86.2342644  38.9452386  92.5396252  81.8282223
  38.6670280  91.8448162  82.4249458  39.4975162  93.1087780  82.3642063
  47.5293541  88.4685612  50.5774593  47.6641083  88.8926792  49.7299910
  46.8450737  87.8194237  50.4143190 110.4265786  13.1246203  78.1898260
 109.5500851  13.4869689  78.3190346 110.2807713  12.1889323  78.0503607
  73.2451010  74.2342949  35.1636338  72.6209211  74.7653437  34.6690440
  72.8881502  74.2098999  36.0514522  34.1087008  97.4495316  86.1972713
  34.3005872  97.8944588  85.3717709  33.2772350  97.0019627  86.0404873
  65.6832886  97.2272110  68.8000584  65.5433321  96.8503475  69.6687508
  66.4169502  96.7298889  68.4385967  77.6272679   1.5698546  61.8544006
  77.3878670   0.8797187  62.4729729  76.8351484   2.1004313  61.7691660
  33.0384254  80.0695133  77.8366232  33.0476904  80.6967258  77.1136093
  32.7541018  79.2475128  77.4369907  24.2243481  96.2205505  42.9733324
  24.7728038  95.9327316  43.7031174  23.9873075  97.1216202  43.1926966
  94.8385169  11.0606663   8.0092716  93.8974442  10.9789269   8.1639767
  95.1081325  10.1927369   7.7088737  44.2799282  94.8137283  39.1195273
  44.8217583  94.5559025  38.3737516  43.7654781  94.0326405  39.3231988
  29.8777890  68.3203173  23.3523560  29.4753695  68.9191484  23.9813972
  29.2304564  68.2380915  22.6520491  32.2762632  62.3288918  52.1172857
  32.2727299  62.1613455  51.1748695  32.6135063  61.5203762  52.5030327
  85.6920338  50.6119442  76.7766237  85.2343082  49.9745083  76.2285423
  85.7115555  50.2105951  77.6453972  85.3219605   5.8043689  76.3029861
  86.0396147   5.5190677  75.7374716  85.1125241   6.6869563  75.9973383
   2.9381184  33.0123990   6.9798374   2.6461248  33.9064400   6.8019104
   3.7629704  32.9301159   6.5012169  44.4297838  95.3149223  52.0703268
  44.4837379  96.1766720  51.6571617  44.5315218  94.6958923  51.3473654
  42.7549171  52.2690105  16.9435287  43.0437469  51.7116499  16.2209225
  43.5661936  52.5822878  17.3434293  43.0075312  73.1639814  60.4254436
  43.8945007  72.8114796  60.4979515  43.0951691  73.9138412  59.8370028
  80.8501434  83.1097698  62.9357958  81.4995193  82.4639130  62.6575899
  80.9897804  83.8561726  62.3530245  65.0118780  62.2459316  73.4300089
  64.1957998  62.5531244  73.0351925  65.4421711  63.0424023  73.7409925
  36.1416817 101.7674446  62.2387552  35.9549308 102.1535683  61.3830280
  36.0685396 100.8236599  62.0967722  59.5444298  92.6201153  66.8296480
  58.8099432  93.2120800  66.6673756  59.8722172  92.4004745  65.9575558
  66.3006830  79.1163063  68.8693666  65.8852148  79.8174095  68.3672953
  66.5516281  79.5296049  69.6954727  63.1256485  76.5757275  80.7588482
  62.7215862  76.1464548  80.0047398  63.7518835  77.1908522  80.3771591
   6.6478550  52.9173899  66.9018316   5.7645404  52.6233673  67.1244001
   6.6825068  53.8239956  67.2069550  27.2010851  86.8995476  68.9412355
  27.3936057  86.9295406  69.8783922  26.5960622  87.6272583  68.7976074
  20.8440304  95.1592350  53.6535931  21.4979529  95.7689571  53.3117437
  21.1875200  94.2927361  53.4358168  33.4190440  63.4819460  68.8771915
  32.9622960  63.2404709  69.6829844  34.2655420  63.0395222  68.9399099
  84.4179894  37.7802937  21.8098545  83.5163255  37.4599640  21.7849445
  84.6178748  38.0040543  20.9008980  61.1377478  86.1637211  60.4729128
  61.9322300  86.4125252  60.9452772  60.8024216  85.4053020  60.9510326
  14.4980276  43.6792231  88.5310936  14.5140791  43.5049343  89.4721603
  14.9373925  44.5243502  88.4365082  46.5527773  80.2414989  47.3044634
  47.0438099  79.4203377  47.2759581  47.0426178  80.8334160  46.7335653
  49.7653866 101.8594074  62.9890442  49.3793201 101.4278698  63.7512493
  50.6039333 102.1968269  63.3040285  40.3278017  59.7315693  78.1985807
  40.3809071  58.8647318  77.7960825  41.0862446  59.7720194  78.7811279
  19.3031836  62.7826643  75.0228453  18.6487997  63.3857727  75.3753662
  19.9187112  63.3451509  74.5527744  46.5215952   3.1328410  71.0334969
  47.0670158   3.8621539  70.7387781  46.0790289   2.8291911  70.2409315
  61.4486313  99.2690372  77.3171902  61.1750650 100.1247787  77.6475000
  60.6709337  98.7181377  77.4062538  48.1718445 100.1502514  40.1205444
  47.6242971  99.5966339  39.5638323  48.6210966 100.7343674  39.5096326
  23.9355922  57.5864840  81.5333080  23.4801507  56.7625046  81.7061138
  24.5263505  57.6945114  82.2786713  21.7257524  94.2603588  70.2278852
  21.6009998  93.7277126  69.4424152  21.7281866  95.1624012  69.9076748
 110.2353812   7.1611041  67.9173136 110.9574700   7.3170489  68.5260010
 110.6627084   6.9184131  67.0958996  78.7493420   5.4969996  62.4952602
  79.6266700   5.6369609  62.8515387  78.3258725   4.9126548  63.1241083
  48.1748104  73.0043316  60.8779812  48.7516403  73.3062267  60.1762962
  48.5583448  72.1749973  61.1631823  76.7592001  53.9092493  80.2843761
  77.0440435  53.3308077  80.9918404  77.5670004  54.3086958  79.9616766
  61.9030809  95.9183216  81.8071270  60.9827805  96.1498165  81.9324017
  61.8957567  95.2892780  81.0856819  50.2766323  92.8508663  58.0652523
  50.2054024  92.4571800  58.9348316  50.5330849  92.1264076  57.4946213
  61.3984919  75.5898952  48.9764166  60.8718634  76.3741875  48.8222075
  60.8139563  74.9982405  49.4502258  39.1301894  73.8035631  51.2509823
  38.6010194  73.7597418  52.0474052  39.6885657  73.0271530  51.2913990
  41.8236303  87.9560757  89.3899727  41.5356874  88.2219124  88.5166740
  41.0137129  87.8659058  89.8921013   1.2209023  66.6753626  91.1437511
   1.8370561  67.2264576  91.6263294   1.5826857  66.6298485  90.2587318
  64.1004896  91.7574596  52.8595114  63.6151266  92.2634792  52.2079039
  63.4487534  91.5356159  53.5245323 105.0631238  58.6417096  22.6222897
 104.2860915  59.1703694  22.8038788 105.7272865  59.2765038  22.3536682
  88.3561386  44.4225972  13.2110596  88.9946021  44.3479626  12.5018215
  88.5028161  45.2959149  13.5744476   7.1351314  80.7588863  58.6216402
   8.0778062  80.7049274  58.7787533   6.9229567  79.9491215  58.1574202
  91.2942935  22.5868243  57.0040655  92.0902634  22.1377105  56.7195225
  90.8411361  22.8093928  56.1908388 111.9105244   3.7473697  35.2627993
 111.9031525   3.3762855  34.3804884 110.9995461   3.6955470  35.5520487
  40.6500912  87.2006416  55.9604883  40.0421381  87.6593971  55.3806829
  40.5249119  87.6143837  56.8145227  20.3222919 104.7453308  67.9168892
  19.8013484 105.4754162  68.2512856  20.4122138 104.1534042  68.6637306
  46.9115925  68.6124611  67.1625423  46.0856628  68.3133364  67.5427961
  46.6785240  68.9004755  66.2799549 109.1611911   9.9755115  56.5047359
 108.7866545   9.3357486  55.8992195 110.0805903   9.7210807  56.5834951
  85.9376907  85.6582355  49.8115015  86.2216568  86.4922619  50.1856565
  86.2660408  84.9978352  50.4216623  43.5623550 105.0615311  84.7250271
  43.2259893 105.1492023  85.6168747  43.2451153 104.2071819  84.4323063
   4.3362050  55.8009713  23.8695908   3.6667351  55.5468838  23.2343864
   4.2868333  55.1303475  24.5508003  75.6395340  64.0166092  90.1338577
  76.4087725  64.4953346  90.4426098  74.9003077  64.5832968  90.3544140
  80.7959270  70.9667540  53.4754372  80.6680679  71.3019371  54.3628693
  80.4209328  71.6407013  52.9085112  67.6575613  70.8923388  80.6730938
  67.5284672  71.7904615  80.3682327  68.4041786  70.5724812  80.1666546
  33.4536986  56.2403386  11.6123867  33.7442784  55.3534501  11.3997364
  33.7841181  56.3949006  12.4973583  35.3753523  33.0555146   2.9509544
  35.7835297  32.4773018   2.3065090  34.5939116  32.5821583   3.2364559
  32.5599456  80.2092552  69.8920012  32.0707488  80.4246712  69.0979528
  31.8868899  80.0787830  70.5599880  49.6198463  70.8484983  70.0044346
  49.8112631  70.0953627  69.4455290  48.7368536  70.6832075  70.3349495
  85.2028132  14.1240710  65.5357647  85.4229975  13.2314509  65.2693415
  85.0187016  14.5805282  64.7147989  60.4714346  85.4409885  56.4648199
  60.2784300  86.0114861  57.2088099  60.2191114  85.9545135  55.6974459
  27.1516466  96.0698032  70.0728083  26.6415524  96.4536953  69.3596029
  27.3415112  96.8058014  70.6546164  12.5827984   3.5877793   5.8382607
  12.3799758   3.4934085   6.7689514  11.7372136   3.7633078   5.4254532
  69.7183228  74.1893482  76.6242647  68.9608288  74.2540121  76.0426664
  69.4340849  73.6003017  77.3231649  14.1526663  68.8514566  78.2580948
  13.7146616  69.2213726  79.0246105  15.0843906  68.8860464  78.4747124
  80.7057572  25.6695193  28.8319850  81.3239527  25.5215091  28.1163335
  81.2332917  25.5827827  29.6259737  78.0513525 105.1549530  51.1029387
  78.3388233 105.8740902  51.6654634  78.6074257 104.4174194  51.3540792
   6.8629889  40.6854241  11.5703583   6.6764741  39.7482770  11.6269970
   6.1878018  41.0290806  10.9853268  53.4836483  94.7251034  69.2800140
  53.5324478  94.0762711  68.5779667  53.7931299  94.2604256  70.0575304
  76.6454101   2.1134967  85.8235359  76.1014868   1.8801993  86.5758324
  76.0528517   2.0598334  85.0737190  56.2824488  95.8800220  36.3069057
  55.8520699  96.6978550  36.0575914  55.5708885  95.2421951  36.3625193
  60.6848145  73.7834644  61.6540909  59.7802877  73.6750412  61.9478846
  60.6081104  74.1422939  60.7700157  38.9110539  17.1055717  69.8690796
  39.2965495  17.4299926  69.0552139  38.1346023  17.6498431  69.9999523
  77.0661879 103.7725925  82.2404480  77.2215271 102.8329945  82.1442127
  77.2982454 103.9618397  83.1496048  37.4282408 104.4963455  86.0025501
  36.5151167 104.2778587  86.1888313  37.8490400 104.5197678  86.8619728
  67.6142741  27.7182406  74.6653080  67.1984578  28.5700530  74.5320797
  68.5490037  27.9150218  74.7268820  66.8636847  82.7544594  62.6406097
  66.8915129  81.8107414  62.4829483  66.0626078  82.8891850  63.1469250
  11.5238146  20.3305047   7.0799351  12.2652249  20.0272696   7.6039505
  11.0026459  20.8581059   7.6851273  14.5242743  46.1603158  25.8429623
  14.9854283  45.3243725  25.9120750  14.4427304  46.3117402  24.9013424
  55.9248209  84.9152374  54.8496962  56.0984564  85.3042603  53.9925289
  56.7301702  84.4458771  55.0672817  92.2770978  61.9043439  13.5324764
  91.8695618  61.1435883  13.9464855  91.7721869  62.0398133  12.7306366
  40.4645924  32.8546612  15.7424164  41.3951926  33.0768483  15.7716084
  40.0664763  33.5577195  15.2291489   7.9736096 100.0966358  85.2462006
   8.1654602  99.3937206  85.8669567   7.3913431  99.6945763  84.6015739
  43.5564756  62.6490736  59.0351248  43.2784128  63.4986544  58.6928892
  44.2403507  62.3597383  58.4311152  35.9232736  85.5362415  56.5324879
  36.0608172  85.6962204  55.5988264  35.0926232  85.9690285  56.7298269
   8.4855752  47.7705472   6.7353344   9.1074662  47.4483197   6.0829163
   9.0047269  47.8676503   7.5336361  18.6728147  60.1035357  75.0804424
  19.0755323  60.9471035  75.2864790  18.9425901  59.9229097  74.1799831
   6.2965301   5.9529990  35.3394866   7.2425369   5.8201140  35.2791071
   5.9716133   5.7652587  34.4589114  70.7750940  80.1343918  60.3392363
  71.0409737  80.3577900  61.2312222  70.9192228  80.9371471  59.8381996
  67.1609259   2.7588958  43.9923096  67.7863742   2.0345229  44.0105534
  67.3060966   3.2215232  44.8176193  92.5676823  20.8805007  42.8099060
  92.4716712  20.0486392  43.2736206  93.3922625  21.2420482  43.1348372
  99.0222694  35.2270596   4.1649914  99.3569089  34.3625538   4.4034672
  98.0703045  35.1287263   4.1829777  80.6531478  34.6927184  64.8763943
  80.1092339  34.7363681  64.0899563  81.5371037  34.5294017  64.5474911
  74.7636128  14.7709102  52.8681803  75.5520345  14.2517489  53.0265999
  74.4124175  14.4283599  52.0462608  68.5107660  79.8600054  65.9936380
  68.0300665  80.6757927  66.1338329  68.7707090  79.5812511  66.8716812
  42.5848961 104.0447617  81.4986801  41.8863821 104.6027565  81.1567020
  43.3881330 104.5388412  81.3345909  96.5351105   0.9370536  63.1598663
  95.7004643   1.2758273  62.8360891  96.9720746   0.5925197  62.3810244
  23.3577919  86.2536049  74.2311144  23.3270597  85.7015038  73.4497881
  22.4494076  86.5207195  74.3715191  36.7821217  87.1981335  65.8660889
  36.2245893  87.2827911  66.6395378  37.5468636  86.7118359  66.1741590
 103.9299536  16.0146541  52.9665375 104.7294713  16.0050029  52.4403143
 103.2624436  15.6351966  52.3949862  34.3944220  48.5533707   2.7196980
  34.6741299  49.0545743   1.9536781  35.0463442  47.8572934   2.8015995
  13.8904528  72.6773732   5.1375198  14.0891032  71.8015473   5.4687405
  13.0833869  72.9264062   5.5879211  62.6344919  64.8829269  83.9734077
  61.6791868  64.8867607  83.9133549  62.8696108  65.8007812  84.1094112
  50.6647682 101.3458920  51.7467976  50.7980299 102.2581959  51.4895439
  50.9293890 100.8394051  50.9788942  11.8930483 100.0136185  27.3515368
  12.5838637 100.1257133  26.6985130  12.0559871  99.1480732  27.7264023
  80.0425434  84.8580933  89.0583706  79.8770666  84.6448326  89.9767208
  79.9871683  84.0176582  88.6035728  43.8220072  93.4764576  71.8208981
  43.7986231  92.9784298  72.6380014  43.2978630  94.2568874  72.0009851
  38.2904105  41.8038170   9.5687675  38.3236651  41.9107049   8.6181355
  39.1563372  42.0777505   9.8710251  49.0061808  86.1000729  42.0644331
  48.0834341  86.1676788  42.3097849  49.0384436  86.4205265  41.1630440
  55.6916809  74.9415827  37.4705529  56.5889406  74.9070120  37.8021574
  55.7192135  75.5964327  36.7729568  77.1587849  75.4095173  33.1467628
  77.2587252  74.4578600  33.1223702  77.9185152  75.7424545  32.6690626
  24.9298529  43.9991562   0.0575352  24.3779950  43.2720845  -0.2306652
  24.4764380  44.3558495   0.8213520  64.2577863  24.7611636  49.4947958
  63.6824179  24.1570014  49.0255785  63.7765384  24.9789924  50.2930355
   8.2697587  31.0888474  25.2409554   7.3981099  31.0862439  25.6364918
   8.1837945  30.5305379  24.4682121  28.1788468  80.9357929  77.8502369
  28.3595181  80.2716923  78.5154867  28.1735063  81.7626286  78.3324671
  33.3484817  94.6186829  61.9029045  32.4242568  94.8677635  61.9027662
  33.4755898  94.1703510  62.7390099  61.9302893  77.6853657  69.7559643
  62.8617811  77.8585672  69.8921824  61.6799498  77.1283484  70.4930496
  63.0278254 105.4603958  47.3454380  63.9364958 105.1754379  47.2487736
  62.6533985 104.8541641  47.9845905  60.1661730 104.6519756  88.8316345
  59.2259550 104.8304081  88.8510704  60.2543354 103.8947201  88.2528210
  46.9163275  74.5804358  71.8194199  47.0980358  75.1833439  71.0985088
  47.7624464  74.1770887  72.0133781  65.6151199  86.0814571  64.3183661
  66.1038733  85.6337547  65.0089550  66.2507629  86.1983299  63.6122990
  49.4653749  74.3676043  71.9461632  49.7136307  74.6005678  71.0515547
  49.9875069  74.9491835  72.4987745 107.5838758  68.8647263  17.3605061
 106.7092992  68.5105794  17.1994782 107.6368166  68.9484685  18.3125591
  34.7451930  55.0724499   1.2622929  34.8877720  54.5846169   0.4511642
  35.4502921  55.7195752   1.2796783  38.3414893  45.0826829   1.5163231
  37.8916316  44.3724911   1.9740105  38.9814477  45.4081242   2.1493912
  97.5003577   2.7684707  43.4630156  97.4654961   2.7628058  42.5064707
  97.6391936   1.8523139  43.7030602 108.3034159  44.9954693   2.0574760
 108.5052659  45.7015221   2.6714611 108.4240724  45.3881161   1.1928940
  35.2707601  80.0303841  80.7772446  36.1148834  80.3826332  81.0593891
  35.0799227  79.3337536  81.4053535  75.9965134  96.4801598  88.4039688
  75.4788637  97.2197247  88.7222672  76.8971252  96.8042850  88.3952713
  77.6103783  16.6564578  69.3714952  76.7652345  16.7727393  68.9373970
  77.6734067  15.7136554  69.5243740  85.2542735  32.8588408  55.3263855
  84.4655514  32.5818366  55.7926607  85.9765626  32.5183410  55.8541965
   8.2645589  55.5165577  71.3353300   7.7925473  55.6702423  72.1537542
   8.9988571  56.1299419  71.3635159  78.8988495  82.7328396  71.0604429
  79.0178299  82.5651264  70.1255941  78.4085798  81.9750595  71.3792324
  47.3671579  97.6141357  82.4596977  47.3875237  96.7859650  82.9392338
  46.7432785  98.1556034  82.9432392  72.1341706  24.8133105  77.5111008
  71.5708543  24.1299075  77.1479750  71.6154576  25.6145591  77.4391747
  39.1360712  77.8831434  89.7249508  39.3330002  78.0854273  90.6395721
  38.1799412  77.8849697  89.6797562  97.3336173  30.1773948  42.9625702
  96.9979048  29.3391055  43.2800770  97.4626876  30.6991881  43.7545967
  52.5377226  86.5082932  68.4232378  52.4319601  86.1077976  67.5603104
  51.6460228  86.5846729  68.7627602 107.6474048  59.6657555  15.8595371
 107.7561928  60.6155579  15.8118916 107.8199770  59.3599408  14.9690723
 104.9893332   3.8485164  66.3432693 104.6092845   3.5052508  65.5345917
 105.9337474   3.7445277  66.2270737  51.7101097 103.8773632  50.8349943
  52.4391317 103.5996437  50.2803469  52.1279430 104.2891121  51.5913725
  65.0116873  76.6680813  62.7777243  65.0466633  77.5705338  62.4605703
  65.7145691  76.6143608  63.4252596  35.8242273 103.6248302  80.3095055
  36.6803551 103.3602715  79.9729204  36.0232568 104.1454220  81.0877132
  11.1116271  57.7154343   9.3229580  11.0739522  58.3695881  10.0207424
  11.7438702  58.0688756   8.6971951  21.9026713  34.0256112  12.8872299
  21.1751275  34.4093697  12.3976994  21.5364842  33.8358109  13.7510109
  29.2561579  85.8225822  41.4040995  29.6569037  86.6061783  41.7804050
  29.6467376  85.0966358  41.8905926  72.6031423  19.9364013  71.4039183
  73.0262709  20.6850738  71.8242502  71.8419648  20.3098125  70.9596205
 106.6819192   3.6221713  24.6809864 106.2135363   2.7878779  24.7093320
 107.1608306   3.6562366  25.5090666  41.4637423  84.5392704  78.2817698
  41.4273787  84.9136257  79.1619778  41.5270329  83.5950375  78.4255123
  51.9209528  78.9274025  61.6693401  51.1104441  79.0697908  62.1582556
  51.9659233  79.6644926  61.0603142  28.0135107 103.8799667  76.7113209
  28.6199546 104.6156502  76.6263390  27.2332740 104.2583275  77.1166611
  97.2078515  10.4553336  49.9250889  96.6065217  11.1952037  49.8401165
  97.8494454  10.5867499  49.2270041  14.4938568   4.5558471  73.5819721
  13.7291149   4.5005340  74.1549873  14.3370441   5.3344745  73.0477715
   0.4245523  15.7771224  69.6152830   1.1836723  15.4252070  70.0801849
  -0.3055426  15.6555289  70.2222490  12.5917916  28.8134091   1.2592602
  12.4737363  28.2610028   0.4865170  12.4767022  29.7066300   0.9349918
  49.4879580 104.4075489  77.5800467  50.2589273 104.9410629  77.7729177
  49.7976446 103.5046196  77.6510954  40.5268817  47.1187489  12.5547218
  40.5040745  47.5703805  11.7110729  39.8317151  47.5322144  13.0665970
  18.1366384  38.2375884  41.6136932  17.3311138  38.1763220  42.1271181
  18.4358764  37.3323512  41.5286207  88.5383321   6.0597629  83.6018085
  88.8464881   5.4509944  84.2731380  88.1022883   5.5036658  82.9561710
 102.6060486  99.3286610  56.8004513 101.8947697  98.7069416  56.9546413
 103.3449841  98.9747810  57.2954035  88.7297153  88.7343311  80.7256222
  88.8534737  88.2052135  79.9376106  88.0069447  88.3100033  81.1879635
  99.9235584  33.3909981   6.3170338 100.8523919  33.3753197   6.5478039
  99.8710372  32.8932088   5.5011368  40.3881073  87.6859760  84.3708897
  40.7145739  88.5519886  84.1266346  39.6412516  87.8640079  84.9425030
  78.3447362  21.7979259  53.9738369  77.9177666  20.9561652  53.8145876
  78.5754681  21.7775458  54.9025917  67.3470879  97.1310616  66.5359020
  66.6278267  96.6260624  66.1565876  67.1618748  98.0363750  66.2862349
  55.5709743  97.7532482  59.7872114  55.3816414  98.5602951  59.3086100
  56.4366913  97.4880886  59.4766235  75.5219173  86.5635490  77.9909563
  74.8296165  87.2034550  78.1567240  75.5211687  86.4507103  77.0404291
  67.7855778  80.9354687  73.4735012  67.8083134  81.3777924  72.6249361
  67.5311613  81.6191578  74.0932369 111.3442780  21.1818831  16.9288063
 112.2211958  21.4537375  16.6579914 111.1069132  21.7961924  17.6234341
 103.9548708  49.4219964   6.6036701 104.4490839  50.2415936   6.6194344
 103.7221481  49.3003171   5.6831932  25.6195712  83.7715530  70.0441504
  25.8212757  84.0459728  69.1495895  25.7014608  82.8180313  70.0263882
  34.2131829  74.4203711  61.4950848  33.9368558  73.6903381  60.9410715
  35.1047969  74.6156979  61.2068033  79.8299790  23.4351176  69.6306181
  79.2719126  22.8198070  69.1550303  80.6727124  22.9870910  69.7034454
  51.2518263  77.1764278  35.2921653  50.7532454  77.9920387  35.3414464
  52.0744610  77.3710871  35.7411861  77.9519320  72.0955372  35.1944804
  78.2001686  72.5895071  34.4130707  77.0034742  72.2080660  35.2577043
  41.6194534  75.9357071  67.4491596  41.4932251  74.9869204  67.4389029
  41.4727974  76.1869955  68.3610678  82.6591206  89.3073559  78.0977917
  83.3254147  89.9897480  78.1791544  82.7913666  88.7507629  78.8652229
  16.6232038  43.6717844  77.2329569  16.7028654  43.2813263  76.3626528
  15.8000040  43.3247852  77.5767136 106.0954524  26.2261504  70.6629562
 106.2618161  25.9731502  69.7549105 105.1612139  26.0611362  70.7902431
  37.3902678  82.4333954  64.5223618  37.8187490  83.1132221  64.0022945
  36.5490127  82.2937870  64.0875912  34.6331525  87.6582050  23.5259271
  35.2366996  87.5881100  22.7863002  34.1571641  86.8277359  23.5261798
  72.5354458  31.4864749  24.4396925  72.3349143  31.0897750  25.2874231
  73.4470630  31.2470073  24.2728376   9.2728856  41.9383049  86.3130474
   8.5639718  42.2109747  86.8955517  10.0231698  42.4667454  86.5852070
  42.0438290 100.4380989  81.8729591  41.6359234 100.0359726  82.6398563
  42.5335503  99.7261620  81.4611912  39.0104985  79.9201536  65.1703691
  38.3464813  80.6088829  65.2015162  38.6080337  79.1787910  65.6227350
  37.4115586  87.7449036  84.8517609  37.0811963  87.0227909  85.3862095
  36.8149400  88.4707260  85.0346851  32.7066760  46.3599770   3.9854050
  32.9266362  47.0486825   3.3580780  33.5527615  46.0036461   4.2563248
  60.0223732  93.0285168  88.5101795  59.0878630  92.9790592  88.3089828
  60.4543066  92.6861286  87.7275944  14.7513679   9.0211314  86.3432407
  14.3825821   9.9016017  86.2725449  15.5342010   9.0444392  85.7929134
  20.9447960   5.7699985  33.0973172  21.8296913   6.1349601  33.0984807
  20.4651932   6.3066691  32.4662924 111.6730148  83.6789894  58.4641695
 111.5873549  83.6396885  57.5116205 110.7945640  83.8982201  58.7748003
  57.3281527   7.6213855  24.5601487  56.6958845   7.7487773  25.2674270
  56.9143344   8.0195731  23.7943578  44.6280384  78.3739805  83.8954449
  43.6982727  78.1515789  83.8474274  44.6626234  79.1351843  84.4747543
  64.3817711  82.2285175  63.6555386  64.0329361  82.2972488  64.5442581
  64.0323257  81.4012051  63.3243847  59.7339916  92.6858139  52.2583199
  58.9517212  92.1365356  52.2075462  59.4005060  93.5591030  52.4642229
  98.3515622  22.5767605   8.6754990  97.7509429  22.1409028   8.0709171
  97.8747965  22.6093238   9.5048714  90.9291458  99.1370296  68.1897497
  90.9309196  98.1953144  68.0182457  91.4635372  99.2380333  68.9774370
  93.7765790  29.5504016  82.8986454  93.6372662  29.8817271  82.0114899
  93.7464476  28.5981578  82.8061676  89.8175144  85.7483768  67.9395103
  90.3986359  85.4303360  68.6304379  90.4061794  86.1295414  67.2880411
  58.3587265  71.7465258  80.8519554  58.0797958  71.3019085  81.6524220
  58.4396982  71.0460281  80.2046776  64.0762949  88.5544014  83.3332825
  63.3064985  89.0117359  83.6716461  64.5696783  88.3053589  84.1148090
  50.8336926  98.6068916  60.3717470  50.1025105  98.4309387  60.9638977
  50.6480646  99.4747925  60.0132465  55.8702850  95.9680843  67.5341368
  56.1283064  95.0652885  67.7201700  54.9769497  95.8973885  67.1977091
  12.9726040 104.9023724  46.3411856  12.3989308 105.6240749  46.0837412
  13.8546133 105.2723217  46.3033772  86.9812489  72.1686363  82.6084805
  86.6791344  72.9618502  82.1660233  86.5517902  72.1930122  83.4635830
 109.7199418  63.6150735   4.6621037 109.2320372  64.3935006   4.3933487
 109.8216988  63.1065648   3.8575649  19.1678989  85.3339005  83.5850334
  19.9455571  85.0170326  83.1256008  18.9859784  84.6605301  84.2405415
  34.1201834  35.2456372  24.3663788  34.6898513  34.4764798  24.3557835
  33.9071278  35.3985875  23.4458065  51.7363691  88.2164669  85.4827404
  50.8489895  88.4403706  85.7632065  51.6165352  87.5036716  84.8552132
  29.8981595  89.3744087  66.1374140  30.8151269  89.5378876  66.3580322
  29.8696089  88.4463978  65.9045887  64.5730352 104.5421219  71.3795233
  63.6257696 104.4231224  71.4485073  64.8991632 104.3864250  72.2658777
  46.7070336   1.6113299  62.4884176  45.9852440   2.0865840  62.8999758
  46.6643269   0.7342166  62.8693199  45.3491688  92.7719688  82.3647499
  45.4022646  92.9823589  83.2970333  44.8374128  91.9637871  82.3303699
  67.7408267  13.9597816  85.8412743  67.3470927  13.8196963  86.7024231
  67.0285083  14.3100280  85.3063393  33.6330771  92.6183033  39.0274096
  34.0018129  91.8156147  38.6586976  32.7624917  92.6842308  38.6350274
  85.5455781  32.1856898  51.6011906  84.8504544  32.8324813  51.7224407
  85.8571101  31.9999808  52.4870205  72.0816374  77.1447325  57.2139978
  71.4131021  76.6901064  57.7264500  72.5331736  77.7007580  57.8489685
  57.2536707  73.1103802  78.8266325  57.5384188  72.8331566  79.6974325
  57.8564787  72.6714134  78.2264948  67.7620960   1.6754741  73.1130123
  68.0365039   2.5578994  72.8635073  66.8058658   1.7038745  73.0806351
  60.8182907  83.7197971  61.2139654  60.1505423  83.1097317  61.5272713
  61.5869188  83.1721878  61.0540819  29.9804883  20.7898800  -0.0385189
  29.5136075  19.9613755  -0.1473045  30.5571274  20.6432002   0.7112789
  43.9000702  73.7530518  70.5570078  44.7434616  73.7278509  70.1050329
  43.5434675  74.6170473  70.3506517 104.3450928   7.3243159  75.5198956
 104.5555974   8.2577914  75.5433893 105.1671124   6.8995112  75.2748251
  73.0008745  98.6284161  75.9010029  72.5728750  99.4712162  75.7501984
  73.2651758  98.3346176  75.0291920  28.9279036  45.3659909   2.6622963
  28.1640391  45.8595269   2.3637009  29.4510226  46.0043995   3.1470680
  48.4245543  35.8119099  40.7323837  49.0533785  35.8327763  40.0110149
  47.9078917  36.6102212  40.6229115  79.0608598   5.7607097  69.2335129
  79.3340350   5.2107066  68.4992743  78.4069157   5.2360934  69.6954298
  71.6306067  84.1778755  75.5175161  71.7998791  84.8557091  76.1718225
  72.3887730  83.5962582  75.5735111  60.4761314  80.0658798  68.4369278
  60.4745770  79.3953753  69.1200495  59.9846601  80.7947636  68.8156319
  89.2105962   0.9594840  69.9474716  89.8622323   1.5353126  69.5474386
  88.5029746   0.9153670  69.3043852  90.5525494   3.8016814  65.3051281
  90.4631091   2.8489226  65.2830791  90.6250239   4.0139693  66.2356758
  41.8083239  78.9388847  64.7622919  42.1992636  79.0372562  65.6304646
  41.1554575  78.2473087  64.8705721  89.7999096  65.7078123  70.9226322
  89.4047070  64.8420000  70.8205652  89.3198013  66.2640667  70.3091860
  53.6330032  72.3361731  74.7212124  53.8095236  71.4116001  74.5473385
  54.4946861  72.7524900  74.7007751  18.6537457 101.6438866  71.4764118
  18.1891429 100.8696270  71.7940617  18.4428251 102.3274708  72.1123791
  91.6237355   2.6523322  20.3441477  91.6690541   1.7945594  20.7665277
  92.3335887   3.1542987  20.7446027  57.1484232  75.1166344  70.8758640
  57.2786188  75.8576345  71.4676428  56.3480425  75.3307104  70.3964901
  63.7393427 101.6351223  79.3366098  63.7527704 101.5933895  78.3804178
  63.4451914 102.5244904  79.5334291  14.1983521  90.6314945  66.3964939
  14.6351814  90.0056076  65.8188486  13.6154187  91.1241150  65.8187914
  89.8901798  11.3980668   2.2082329  90.6557704  11.5304272   1.6491413
  89.4194879  10.6705611   1.8015289 106.9750739   6.4938087  74.6468449
 107.4766684   6.1289901  75.3759146 107.4245549   6.1756248  73.8639307
  76.7505598 100.8854866  54.6199656  77.6957846 100.9859371  54.5073080
  76.6352844 100.7412338  55.5591869  56.7781830 104.1866779  77.3133039
  56.3675213 105.0268364  77.5175667  57.6395416 104.2339802  77.7280998
  70.3042413   3.7790507  85.3220654  70.9076119   4.1751975  84.6933842
  69.5806051   4.4024390  85.3850460  52.2361279  85.8425713  83.5214043
  51.4409018  85.6834126  83.0129528  52.8966331  86.0716152  82.8675652
  99.2912532   6.3803691  84.3488121  99.6205617   7.1316546  83.8554955
 100.0095559   6.1463183  84.9365997  85.1424313  28.0177993  74.7225666
  85.9067202  27.6699943  74.2630863  85.1982785  27.6400966  75.6003237
  64.3403054   2.7304191  44.4054365  63.9570547   3.6063880  44.3603325
  65.2768946   2.8713340  44.2669535   7.7200607  14.4787902  89.3641949
   8.0295471  13.6068744  89.1188335   8.5187248  14.9740047  89.5461845
  68.1900597  90.4455566  64.7197199  67.5078106  90.5564404  65.3818989
  68.2188606  91.2859726  64.2624474  19.7483115  14.9225991  13.2711411
  20.4814677  14.9487059  12.6562881  19.4998126  13.9989750  13.3084774
  58.9110374  97.4077988  64.5770121  59.4851303  97.8385735  63.9436960
  58.0727816  97.8611755  64.4875193  52.1123075 102.1303940  75.5126095
  51.9666004 101.5254211  74.7852850  52.4941778 102.9076385  75.1048136
  98.2909919  18.6561412  54.2721653  98.8722850  18.0373973  54.7143030
  98.7355805  18.8556212  53.4482861  58.6298037 103.6606407  56.7062759
  59.4511795 103.3503819  56.3250685  58.2486153 104.2209816  56.0303020
  89.5628167  23.3949679  72.5892305  89.1855002  22.7828521  71.9574308
  90.5049706  23.2309169  72.5483751  62.5205255  16.2473315  76.0263777
  62.1733642  15.4156322  75.7039118  63.4111405  16.2863845  75.6777954
  30.3051758  68.3900928  64.3205547  30.1195741  69.1082287  63.7155247
  31.1619163  68.6036730  64.6901703  23.4028058  58.1032841   5.3199959
  23.1798987  57.7601807   4.4546509  22.5894837  58.0377381   5.8204365
  39.3244509  30.8240407   4.4519615  39.5455174  30.2735036   3.7007809
  38.4447722  30.5432503   4.7040653 101.2366534   8.4045524  60.0977755
 100.4878140   8.8518924  60.4919338 101.2971640   7.5753707  60.5721426
   1.3957076  64.8644631  12.5903034   1.4358859  63.9298718  12.7931976
   0.4894309  65.0121110  12.3199368  34.2081285 101.6934776  79.3103695
  34.5267820 102.5754833  79.5021200  34.9750018 101.1319065  79.4234180
 105.2245951   2.8304214  82.2954369 105.7443858   2.4040526  82.9767990
 104.4493533   3.1550616  82.7535248  22.6103023  32.6131743  73.4314013
  22.3704914  32.6727218  72.5066471  23.1592850  31.8309993  73.4865856
  84.0642834 104.5966625  69.3695879  83.8145065 105.3213882  68.7963438
  83.2785416 104.0527439  69.4242477 107.3783589  22.3432273  74.6448231
 106.9880152  22.9424304  74.0085697 108.2301903  22.1182364  74.2706680
 107.2784472  26.6364020  75.6996632 107.2413779  27.3929996  75.1145029
 106.8805457  26.9438285  76.5141535  89.7013331  29.1074866  80.7653999
  89.9786092  29.0315742  81.6784096  89.0689851  29.8260802  80.7660866
 104.4229460   4.0217227  87.1117783 104.0171386   4.7819823  87.5283813
 104.0567971   3.2696933  87.5771999 110.4055573  54.0669148   2.8995323
 110.1853587  54.9872010   3.0438328 110.5631329  54.0032094   1.9575405
  85.0683213   4.1184253  89.8225689  84.1836072   4.3818110  89.5693016
  85.2991582   3.4269065  89.2022991  87.7581216  31.4325828  86.4871407
  87.7409507  30.7506389  85.8156586  88.6734057  31.7104262  86.5229797
 107.7902365   7.4840850  38.9949632 107.2846223   8.0325908  38.3951902
 107.2322608   6.7220897  39.1507196  60.3911781 100.9731388  70.5738831
  59.7037792 100.6796741  69.9758911  60.3214550 100.3851414  71.3259697
  84.3161822   3.6088866  77.0794201  84.6904803   4.2473811  76.4724207
  84.7716857   3.7686080  77.9060030  93.3038331   7.5733584  70.0829458
  94.0131331   8.2145423  70.1278496  93.0260182   7.5872725  69.1670513
  91.0693360  16.1441726  71.3901424  91.5908385  15.8395595  72.1327591
  91.1835194  15.4669208  70.7234240  55.0871897  91.8656445  45.2426195
  54.9429417  92.8053951  45.3534842  56.0109949  91.7917442  45.0031376
   0.7500032  11.6812438  70.3312826   0.8462194  12.1651382  69.5110273
   1.4939312  11.0790175  70.3427792  98.8525821  35.2726192  62.7749968
  99.7551966  35.5226249  62.9724979  98.3642627  36.0953635  62.8044081
  56.6103892  51.6847413  12.6995850  57.3915057  51.3185399  13.1142998
  56.9374518  52.1117299  11.9077873   2.4301247   1.0469836  43.0425453
   2.4061874   0.2553958  42.5049162   3.1906370   0.9272975  43.6113405
  71.2559343  15.3699321  66.5703487  71.0324050  15.1317901  67.4701023
  71.1648250  16.3224429  66.5450144  20.5094676  51.0765832  21.3872242
  19.7416119  50.5050748  21.3841629  20.2060132  51.8832200  21.8037415
  74.6705484  99.7296619  86.7229462  75.0867081 100.4748726  87.1562004
  73.8127565 100.0578308  86.4532661  47.3320627 104.5617390  29.8399973
  46.4373970 104.3573380  29.5679188  47.4827719 105.4508591  29.5191002
   6.6433147  34.1660995  79.7663164   5.9738449  33.5120601  79.9670267
   7.3254303  34.0195197  80.4216480  99.0424634   4.7769755  60.0905228
  98.3277226   5.2677745  59.6849442  99.6308518   5.4497928  60.4330826
   7.4861006 100.7212632  35.3112602   7.3703913 100.4635327  34.3967056
   8.2610421 101.2831109  35.3055573  11.0244040  89.3765633   8.4699821
  10.9881405  89.0462964   7.5722885  10.9329419  88.5959046   9.0162754
  97.0383453  91.4283657  16.1872721  96.6417408  92.1778679  15.7432199
  97.4651623  91.8044281  16.9571018  12.4168019  35.1472561  20.5873203
  11.5049462  34.9716656  20.3551197  12.5024848  36.0981743  20.5191135
   8.0221800  77.5628941   3.1042671   7.0862584  77.6155179   2.9105759
   8.2982831  76.7277043   2.7268410 106.1104441  36.9367713  45.3442097
 106.5750266  37.2646922  46.1141872 106.7340184  37.0415420  44.6255922
  16.4963393  47.4033349   4.3563175  16.7562012  47.8684132   3.5610771
  16.7957024  47.9652588   5.0710583  30.7444263  92.1957874  64.8052979
  30.8421850  92.0009327  63.8732529  31.2178946  93.0184460  64.9289465
  92.0087147  28.8898200  39.3633342  91.5501643  29.4871062  39.9542832
  92.4983454  28.3073443  39.9440312  40.6657028  86.7097378  44.8139143
  41.4080191  86.1490726  44.5884275  40.1621151  86.1974812  45.4465437
  82.7710898  68.0874436   3.1803799  83.2404049  68.8095181   2.7625275
  82.6225550  67.4580853   2.4746323  96.7734076  48.9501183  14.1915035
  96.3365008  48.1400197  14.4543457  97.6834227  48.6937707  14.0418530
  10.2896550 100.5875492  58.3226919  10.8813050 100.8565521  59.0254211
  10.1304963  99.6579552  58.4862947  83.3733559   4.5714969  69.9725103
  84.0405799   4.6178741  70.6572628  82.7044822   5.1987952  70.2469635
  33.2211471  90.1593018  63.9645195  32.3317337  89.8097420  63.9099216
  33.7372136  89.5914745  63.3922577   9.7755245   0.7755107  28.0170441
  10.6414036   1.1409396  27.8354955   9.8973755   0.2533454  28.8099647
  75.8400822  75.0034285  89.4044590  75.3078127  75.7904243  89.5209122
  76.6973400  75.3319979  89.1335678  77.2208308  20.9955208   5.7406807
  76.7897814  21.2395852   6.5597439  77.5107793  21.8270676   5.3655815
  31.0116772  88.3062451  39.9617958  31.0925440  88.9765923  39.2833138
  30.6320624  87.5526421  39.5098877  98.3091307  37.1270103  68.1769991
  97.9462338  37.9201049  67.7826118  98.5590173  37.3924083  69.0620708
  61.4596033  79.6634007  77.8856754  60.6173420  80.0987816  77.7542591
  61.3990927  79.2844534  78.7625837  30.1923347  97.0803452  68.6178017
  29.5181441  97.1145439  67.9391766  30.0676870  96.2286854  69.0365553
  47.0589770  16.7021102  67.6947689  46.8665833  15.8047599  67.9667616
  46.2714929  16.9856662  67.2303391   0.9563211  49.1403216  70.2454615
   1.8255476  49.1772670  69.8463154   0.9757379  48.3528251  70.7892466
 111.5216399   6.1619967  88.5867119 112.1154261   6.8916434  88.4099197
 111.0056449   6.0735339  87.7853680  81.1063338  19.1189498  61.7710209
  81.5923167  19.9125403  61.9952345  80.4378701  19.0469283  62.4523449
  77.9641199  87.0368767  80.0443745  77.4472618  87.8207588  80.2304459
  77.7269030  86.8008709  79.1475725  87.0587397  16.7759246  37.0083857
  87.2942067  16.6156501  36.0945463  87.4734832  17.6123923  37.2194290
  55.0676870 101.5246391  39.4458771  54.1984415 101.4819908  39.0473557
  54.9588537 101.1120510  40.3027058  66.1203361   6.4418811  44.6887112
  66.0302878   7.3585147  44.4281006  67.0261575   6.2195796  44.4735336
  88.1966400  90.1855087  84.1756248  88.9801884  90.3047466  83.6389160
  88.4421062  90.5244923  85.0364685  96.6103125   7.9062099  81.0878849
  96.2473202   7.2826022  81.7168427  95.9205962   8.5600108  80.9735489
  75.9156084  82.7079773  64.2348146  76.2499046  81.8371201  64.4495201
  76.6574574  83.1557465  63.8281298   5.6258491   8.9008254  62.4329615
   4.9893812   8.4804172  61.8546915   6.4754299   8.6997909  62.0404863
  46.2457323  87.0367813  67.6249266  46.7793941  87.6161480  68.1687737
  45.6779528  87.6280117  67.1306610   0.3432468  10.8226985  73.2631540
   0.8643583  11.5297145  73.6436701  -0.5467697  11.1732310  73.2282019
  91.0636330  18.7712688  71.3786125  91.5752936  19.2706794  70.7421970
  91.0715342  17.8752250  71.0420561  88.7991047  94.9698448  59.1194057
  89.0914536  94.4478893  58.3721972  89.2678642  95.7996178  59.0299940
  27.3926263  91.5980713  10.0940228  28.0193381  91.4201729  10.7953167
  27.0871262  92.4887459  10.2660561  76.8332482  37.9433555  77.8038740
  76.0508109  37.4447555  77.5684643  77.0249916  37.6776332  78.7032413
  27.3807578  81.9701092   1.1200714  28.3257489  81.9112771   0.9794998
  27.2527556  82.8240674   1.5331078  83.9940978  37.1761245  55.4215670
  83.9653683  37.1477050  56.3779163  83.1016875  37.4049872  55.1618385
  94.4684935  20.8429450  64.5797348  94.8505688  20.2591247  65.2350235
  95.2225734  21.2283057  64.1335249  92.2590637 104.5458794  71.4719152
  92.1238995 105.3801632  71.0225344  91.3754749 104.2263603  71.6546631
   4.0185217  51.8663234  66.7244291   4.2110828  51.0103911  66.3416338
   3.0788807  51.9848460  66.5856504  51.5184645  78.5566704  12.9977894
  50.7062010  79.0561574  12.9142857  51.5520529  78.0199139  12.2059631
  24.6029572  66.1867230  16.4896965  23.9422373  65.9018605  15.8584023
  24.1411214  66.8030255  17.0581245  68.5147310  25.8016318  88.7148762
  69.4576216  25.6429309  88.6701298  68.4091044  26.7038077  88.4129620
 111.4339400   2.3584193  65.4970932 111.4585353   1.4023513  65.5367565
 112.0028401   2.5822944  64.7605753   2.0495705   9.1296214  64.2012167
   1.3064817   9.7025031  64.3905878   2.0443062   8.4878558  64.9113798
  76.7878986  10.7600421  87.6172638  76.1676813  11.4145011  87.2959614
  77.4921227  10.7588214  86.9689560  98.1488848   7.0696086  66.9523096
  99.0872002   6.8947619  67.0246506  97.7389718   6.4148635  67.5175619
  13.2146744  28.6430377  90.1035309  12.6458553  29.3839282  89.8943615
  12.9366497  27.9508037  89.5037460 103.9973856  20.5383961   4.1801834
 104.3392469  20.4175418   3.2943153 103.2557084  21.1336653   4.0715599
  64.7531223 103.9770317  61.3585424  64.1538906 103.8900661  60.6171942
  65.5628872 103.5616207  61.0619831  67.0343304  96.7681217  53.7053442
  66.4483309  96.7503452  52.9486942  67.2673941  95.8509731  53.8493824
  44.1599035  95.7909870  63.0991840  43.8879013  96.4813328  63.7038898
  44.7483587  95.2393150  63.6145592   4.6252207   3.1643123  45.0593519
   4.2593817   3.8791865  44.5384359   5.4414133   2.9368133  44.6140337
  96.2513781  12.7350062  73.5380936  95.8607770  12.1176642  72.9195881
  96.7329694  13.3528060  72.9879808  53.9679909  82.9281044  63.0638361
  53.8185120  82.4346733  62.2573471  53.8850880  83.8451672  62.8023863
  16.1973957   9.0518207  80.9174824  16.4154724   9.9817199  80.9804726
  15.5659965   9.0019721  80.1997948  39.9212412  74.5401757   5.7371235
  40.6445746  74.5667641   5.1107788  39.5067124  73.6903088   5.5883598
  36.4882112 104.7894859  42.5351954  37.2664475 105.2075958  42.1667337
  36.3586640 105.2248096  43.3777761  68.7355233   7.3042983  76.5432358
  68.0280090   6.6682261  76.4380360  68.9635802   7.5589293  75.6491518
  77.9716445  15.4259223  45.4154778  78.8065243  14.9986667  45.6069517
  77.6333285  15.6854838  46.2724495   3.1912236  75.3107255   8.6781120
   3.3243565  75.8619588   9.4492435   4.0048985  75.3939145   8.1808662
 101.2584306  24.8911971  84.8405552 101.6412450  24.1076201  84.4459629
 101.7376090  25.0045318  85.6613922  43.8073874 101.0033035  68.8404512
  42.9026699 101.2745857  68.9957952  44.3318129 101.7640877  69.0902948
  30.4733948  56.5667527   6.4096165  30.2840523  57.5047200   6.3851738
  29.9146609  56.1917966   5.7288456  42.1595764  86.7889404  64.6475029
  42.3907804  85.8862495  64.4286013  41.4868212  86.7066956  65.3234243
  48.8429976  99.7880840  42.6245403  48.2889605  99.0240669  42.7844095
  48.6413956 100.0461483  41.7251015  96.8941975  16.5858096  84.6947384
  97.3921395  16.5841407  85.5122185  97.5608493  16.6098517  84.0082741
  82.0330906  57.9643631  76.1420584  82.9087830  57.7575684  76.4686155
  81.7877102  58.7652969  76.6052198 102.0599556  75.8675146  62.9412031
 101.6800404  75.0265980  63.1956863 101.9904137  75.8826923  61.9866562
  37.1668963  37.8212063   0.2515411  37.9086594  37.5277512  -0.2775288
  37.5352721  38.4873765   0.8318424  79.4197512  97.4246597  26.8502736
  78.8510847  96.7307949  26.5165067  79.0526247  97.6440239  27.7066207
  66.7347813 101.5347099  64.2557907  66.6850805 101.0198784  63.4503651
  66.3823986 100.9561157  64.9320221  82.9790306  81.1067963  25.4655743
  82.5589943  80.6511497  26.1950803  82.5411797  80.7653046  24.6858954
  27.5838046  59.4138615  25.7612324  27.8576331  59.9265759  26.5217400
  26.6825871  59.1575616  25.9570503  90.6986809   9.9511451  55.8055258
  91.3219929   9.4059295  55.3254700  90.4922677  10.6659335  55.2032804
  87.8739072  35.6636733  32.9223561  87.6114274  34.9515361  33.5056114
  88.4817744  36.1883086  33.4434080  81.1150169  96.3177395  68.0420637
  80.7962036  96.6924858  68.8631392  80.6026649  95.5171108  67.9293203
 101.5790892   4.3276519  65.8481979 102.1782256   3.6755294  65.4848719
 100.7067967   3.9989203  65.6307793  88.7639189  34.3141765  56.1855698
  89.3068600  33.5361976  56.3128281  87.8664208  33.9814872  56.1792803
  77.5218296  92.0597553  69.4556618  76.5871429  91.9767761  69.6446180
  77.8338385  91.1572552  69.3894291  19.9651766  88.5453606  77.7037191
  20.3708172  88.4637070  78.5668612  19.5099270  89.3869114  77.7316713
  29.4054794  71.7861366  72.2361898  29.0798354  70.9121656  72.0208549
  29.9376893  72.0362425  71.4809227  81.7779065  19.7387332  88.4737587
  81.4749051  18.8338107  88.3994198  82.6741744  19.7195453  88.1382465
  13.6822896  72.5414269  24.0096092  13.1064038  73.3040230  24.0646744
  14.1311841  72.5187581  24.8547173  84.4079971  81.3564014  80.8505917
  84.0637779  80.6055927  80.3668308  84.0152931  82.1173763  80.4228878
  32.4239564  83.1594753  87.5777340  31.6366625  82.8303432  87.1440601
  32.7363849  82.4206161  88.0999470  51.0909700  95.8271313  70.4114771
  51.9693279  95.7139969  70.0482655  50.9594107  95.0569534  70.9644270
 101.4610339  34.9521750  59.4012594 102.1704055  34.9259204  60.0433922
 101.3449002  34.0400523  59.1352272  34.5312457  32.2732251   8.7168789
  35.2929835  31.8597500   9.1231155  34.0599017  32.6758950   9.4462109
  58.8745403 102.0867348  61.8325138  59.2727280 102.9562569  61.7924404
  59.3065977 101.5930939  61.1354685  27.6493076   3.0024356  68.3109808
  27.7278236   2.8227157  67.3740911  27.6167015   2.1371383  68.7189436
  99.2753983  14.2074794  40.9934521 100.1107550  14.5860595  41.2674761
  99.0868998  13.5401935  41.6533327   3.8932661  33.2373446  77.4267292
   3.1427864  32.8021449  77.0222330   3.7259869  34.1711444  77.2991896
  76.2676859  77.4168205  55.3648043  75.3918600  77.0309734  55.3479910
  76.5663576  77.3726225  54.4564676  50.1735973  96.2264633  53.8817263
  49.9365234  95.8026218  53.0568743  50.0287914  95.5536556  54.5469999
  80.0977612  94.2112064  40.1068258  79.5507097  94.0595245  39.3361425
  80.6852531  93.4560680  40.1359129  74.8486423  99.8710728  72.1649265
  75.5028486  99.4796467  71.5861130  74.3010330 100.3997612  71.5845394
  48.5624075 103.4684372  65.0015211  47.8079319 103.6628914  65.5575609
  48.3284330 103.8282013  64.1459179  54.5596517   0.3085441  79.1908073
  54.1665781   0.2667731  80.0625801  53.8630284   0.6499118  78.6300802
  95.5535699  11.0358352  76.8420410  95.0784732  10.2313537  76.6338921
  94.8713780  11.7020530  76.9256830  14.8067764  22.5424308  29.5886374
  15.0918869  21.9312114  28.9094138  14.0931896  22.0875567  30.0359750
  33.7462306  65.8832741  66.5943623  33.9786720  66.1621380  67.4800444
  32.8783417  65.4903126  66.6870070  91.4999390   5.0137538  61.6408157
  91.6554642   5.4966849  60.8291435  91.8102504   5.5995769  62.3312855
  90.5009318  11.3376636  68.8031483  90.5995608  10.4355163  68.4987831
  89.9213792  11.7455119  68.1597090 109.6437598   8.9550990  64.1369152
 109.2524148   9.1506976  64.9882793 110.5582238   9.2234153  64.2263317
  88.8860512 102.7931213  52.6757765  88.3312893 102.0270157  52.5289679
  89.7711849 102.4902153  52.4732447  23.6320834  37.8758710   3.9456081
  23.8602786  38.3811562   4.7258949  22.6990752  37.6874344   4.0466690
 111.0745717   4.8243064  81.2386131 111.8892480   4.3247527  81.2932587
 110.3866578   4.1793555  81.4030838  92.6969195   6.1644763  77.4060631
  92.3270703   5.8811206  76.5699100  92.0514298   5.8918208  78.0581617
 103.9206553  13.6133307  83.7665462 103.4119797  12.9190749  84.1854668
 104.5975400  13.8337344  84.4064522  74.9667072 101.8331814  73.9663410
  74.9572515 100.9327698  73.6416817  75.1847935 102.3621845  73.1989956
  66.7692233   3.9422912  46.4580202  67.3931313   4.5582313  46.8421936
  65.9556008   4.4409293  46.3831329  63.3578540  22.3306197  66.8764067
  63.7203956  21.6722030  66.2837172  64.0217615  23.0196017  66.9039392
  41.6647438   2.6444644  45.5619812  41.7450432   3.4783954  45.0990105
  42.2624210   2.0559711  45.1007938  10.3289275  70.3801243  14.4519711
   9.6230607  71.0097306  14.3050766  10.6342749  70.5655186  15.3400135
   6.7397694  13.2295436  71.5065622   6.5232662  12.6520938  70.7745028
   7.6226715  13.5433883  71.3110542  13.7093834   1.2822360  64.6650267
  13.3082775   0.4315871  64.8431635  13.5786156   1.4168471  63.7264061
  38.3225731  27.0299644  75.9366131  37.7314571  27.7761764  76.0364532
  39.1222862  27.4055118  75.5683041  99.6222449  23.9636439  63.8633537
  98.8454343  24.3618697  64.2560530  99.3709803  23.7929267  62.9556322
  73.6173821  13.1100768  62.4647856  72.6990367  12.9535216  62.2448635
  73.5858799  13.6831683  63.2308197 101.4569951  32.0266837  65.7245350
 101.5208293  32.0562572  64.7699261 101.6956378  32.9092521  66.0079956
  46.9382910  21.8815558   4.7287369  47.8162055  22.2112506   4.5368862
  46.3694529  22.6454775   4.6335125  61.1197281  93.6570740  63.5922050
  60.2673101  94.0446472  63.7906837  61.3930750  94.0828419  62.7796602
  32.7730087  25.5789680  50.5760860  33.6943725  25.3588981  50.4386377
  32.3357967  24.7324962  50.6686068  97.1757317  19.0292758  57.4136496
  98.1181813  19.0442866  57.5803614  96.7879058  18.7821979  58.2531548
  92.2178031   6.2901610  72.3205233  92.3892499   6.8987674  71.6018867
  91.6325808   5.6331748  71.9435310  63.7365913  84.1444492  85.5889225
  63.6642361  85.0277996  85.9504414  64.4385433  84.2074871  84.9412251
   4.9549869  15.1493091  65.1095533   5.7038788  15.6228274  65.4717350
   4.8427729  15.5140513  64.2317152   0.5131487  15.2880687  43.1878567
   0.2594427  14.7992152  43.9707232   1.3653568  15.6650657  43.4065962
 109.2364217  32.6172751  57.7104235 109.2177630  33.4218997  58.2285595
 110.1164342  32.2657603  57.8455162  57.2924089 103.6075211  83.8671017
  58.0624199 103.1544304  84.2106533  56.5901375 103.3828259  84.4774818
  42.2140221  29.2978470   7.4786091  41.2781434  29.2802994   7.2784710
  42.5000052  30.1710122   7.2102356  46.9156361  78.6687756  90.1120377
  47.7456665  79.1453123  90.1259899  46.6831827  78.6197090  89.1847897
   6.9360927   8.0985850  43.5276222   6.1491016   7.9400653  44.0489054
   6.6256145   8.1089705  42.6222372  51.8990565  17.8832358  83.8271809
  51.1874891  17.6291389  83.2395267  51.5736938  17.6725310  84.7023773
  83.5194064  30.7881469  57.3133230  84.0918303  30.4290694  57.9912758
  82.7086831  31.0041541  57.7740908  33.9246249  78.7949753  49.4338894
  33.8391590  77.8657532  49.2206430  33.6713099  78.8535881  50.3550959
  77.1141792  19.1886920  85.2474117  77.0954872  19.4461268  86.1691570
  77.9895116  18.8234538  85.1184464  75.4784752  17.7042789  57.4537516
  75.6339718  17.8786868  58.3819962  74.8664642  18.3878058  57.1808672
 106.7185975  16.9680137  90.7900715 105.9330846  17.4715632  91.0037041
 107.3956681  17.3251075  91.3647842  71.6279173  91.9049740  43.6827135
  71.1133623  91.6596794  42.9137564  72.3404551  91.2663078  43.7077904
 111.0650326  42.6890748   3.0176163 111.9669320  42.9918854   2.9122067
 110.8078457  43.0001156   3.8855648  67.0893240  75.1121950  48.4925938
  66.8151140  75.9294748  48.9086390  68.0452299  75.1284218  48.5396910
  28.9087013  29.4419307   7.1597624  29.0409283  30.3524798   7.4236959
  27.9856495  29.2701930   7.3460591  51.5984821  91.6892624  74.9920511
  51.5243292  91.0698795  74.2660332  52.5404119  91.7724895  75.1406240
  80.0280762 100.6096840  77.3844004  79.2047310 100.7085991  76.9063377
  79.8979998 101.1081696  78.1911373  84.1486312  13.4203357  73.1440163
  84.7164012  13.5203284  73.9081287  83.2841302  13.6940593  73.4505224
  90.0462724  18.7667579  63.8532495  90.6496859  18.0278987  63.7744665
  90.1822091  19.0932197  64.7427320  53.7764406  75.8332443  33.6677361
  53.7819815  74.9868107  34.1146708  53.8046074  76.4776945  34.3749285
  81.7638398  28.5138530  84.7753048  82.3408795  28.7975520  84.0662384
  81.9931317  27.5955123  84.9178028  46.2576537  31.6393941  16.8984413
  46.4838557  31.7392914  15.9737301  46.1968951  30.6931298  17.0292854
  49.2964554  81.1292934  60.1524925  48.5601711  80.8160400  60.6778431
  49.3504000  82.0644855  60.3493309  15.1169113  18.5414046  42.0668077
  14.6408371  18.0551070  41.3936806  16.0369114  18.3280772  41.9108486
  54.5244789 102.0981407  51.0451221  54.5716715 102.1770763  51.9978905
  54.8873281 101.2323189  50.8582497  99.7419692  10.7880992  48.7452316
  99.5145894  11.6902179  48.5200405 100.0244380  10.3985995  47.9177475
  99.1908170  19.9716681  65.1114702  99.2098284  19.1172999  64.6802711
  99.2154837  19.7686214  66.0465574  94.1086865   3.6930675  52.2337580
  94.6867181   4.1932410  52.8099012  93.3253241   4.2367000  52.1498203
  11.8290714  24.1156596  28.3221507  11.5614799  23.8398093  29.1988087
  11.2543968  23.6282844  27.7318597  95.3577328   4.2599887  56.8866587
  95.8877469   3.4701652  56.9938803  95.2034283   4.3187064  55.9438038
  88.2188548  21.7732566   5.9065247  88.3522691  21.5929024   4.9759865
  87.6767327  21.0475390   6.2158298  66.1707116   7.0868224  84.5488262
  65.8614660   7.9573745  84.7992897  65.3978611   6.6529387  84.1873264
 102.5527240   1.3951510  62.2676563 101.8777371   1.9148559  61.8311501
 102.4318457   0.5094737  61.9253159  43.2228279  95.5615520  87.8535557
  43.6627626  95.2137852  88.6292839  43.7103844  96.3565445  87.6379013
  45.5065489  85.3599548  70.8622026  44.6118784  85.5340290  71.1545992
  45.4121351  85.0940704  69.9475336  28.5473637  66.5843194  19.4357300
  28.8235621  66.9526379  18.5965061  27.6024680  66.4617722  19.3441486
  66.6096449  86.2330246  50.0832415  66.2766600  86.0797119  50.9674644
  66.0341454  85.7178211  49.5179129  25.1255802  11.5803164  57.6286936
  25.2220158  11.9234008  58.5170746  24.4253448  10.9313220  57.6972771
  88.9917565  15.0527591  60.6683826  88.6219407  15.6510657  61.3176060
  89.6767283  15.5624789  60.2356768  56.1591200  74.6364396   0.7787037
  55.6693225  73.8553136   0.5214596  55.9010462  74.7925942   1.6871262
  38.6593536  26.2314242  60.4863834  37.7216152  26.1059112  60.3410721
  39.0733341  25.5055827  60.0194645  48.9752626  79.9012280  78.3636141
  49.7557211  79.5250177  77.9567003  49.1874647  80.8276367  78.4775209
  46.3320637  96.0866070  87.6543427  46.0889387  96.8177319  87.0863819
  46.5017176  96.4905643  88.5053730  38.6827663  12.3826140  64.6370697
  38.7612347  12.9251117  63.8523579  37.9808144  12.7925891  65.1424599
  87.6479340  89.0467548  61.5322495  86.7504025  88.7162876  61.5705776
  87.7232361  89.6240902  62.2920179   8.4919456  13.2570476  84.5999718
   7.9291252  13.7564868  85.1915932   7.8927616  12.8980845  83.9454842
  52.3563433 102.4724102  63.6648464  52.6488781 101.5674400  63.7729168
  53.1374359 102.9436016  63.3748436   1.1686472  24.1282672  75.1830959
   1.7440847  24.2327804  75.9408426   0.7032875  24.9622649  75.1189089
  18.2203869  20.9238141  21.1577415  18.3923773  21.8603222  21.0597801
  18.7735276  20.6541102  21.8909073 104.9213076   9.5039195  63.9646959
 105.1514054   9.6457404  63.0464506 105.6351186   9.9104899  64.4560289
  25.4686455  40.0149459  49.5103025  24.8943333  39.7218532  48.8028479
  25.3999809  39.3289489  50.1743174   7.3609307  93.9429951  53.1665468
   6.7461255  93.2429123  53.3859539   6.8044522  94.6874142  52.9376221
  75.1037336   3.2725352  60.7505322  74.2646075   3.5833663  61.0903740
  75.6572748   4.0531463  60.7287502  14.3455414  26.5871257  77.8670359
  14.9987797  26.0780257  77.3870993  14.6885971  26.6364783  78.7592888
   4.9804691   5.7856387  76.1535692   4.7979978   4.8804873  76.4058161
   5.9266666   5.8789844  76.2641239  34.4798808  76.1003392   8.5752010
  33.7203507  76.3058179   8.0301189  35.1893572  75.9499161   7.9505062
  85.3189612  25.8593864  60.7836676  85.1244355  25.3399009  60.0035858
  84.7226573  25.5209941  61.4516068   1.6157822   8.4741515  88.0867481
   1.7424206   9.0812034  88.8159180   1.6554693   9.0262431  87.3058128
  19.7163967  29.3010634  79.8364687  19.7374824  28.8072700  80.6561947
  19.0008263  29.9262733  79.9518204 107.3413945  27.7718658  54.0232468
 107.2018195  27.4306602  54.9066114 107.6829625  28.6556739  54.1590691
  86.2634564  10.5613631  68.3472443  86.3018180  11.1817950  69.0751362
  85.4401160  10.0906867  68.4768629 106.3401986   9.8509234  73.9174509
 106.9690562  10.0308150  74.6163130 105.6333590  10.4796046  74.0636158
  37.6344684  51.6592044  34.9003506  37.0926670  51.8460578  35.6670070
  37.6512436  50.7036895  34.8460484  82.9222966  41.6334933  66.1572075
  83.5139275  42.2853679  65.7813644  83.3513690  40.7947654  65.9878922
  32.9925299  81.8705559  79.7892475  33.9126945  81.7300797  80.0123882
  32.7959609  81.1909103  79.1445160  96.0163451  14.0189284  83.8316250
  95.9131003  14.8669166  84.2634773  95.8438493  14.1982860  82.9073334
   1.4711622  16.2657470  52.0009851   2.0561651  17.0193023  51.9224548
   1.9410805  15.5517978  51.5700769 108.2611375   8.4585106  15.7002449
 108.6359220   7.5797950  15.6398773 108.5157113   8.8842308  14.8815918
  97.3431397  24.8084849  65.4594088  96.4694262  25.1263827  65.6869888
  97.4611855  24.0261096  65.9981060  72.7976990  80.8424759  73.3686924
  72.3086786  80.1811409  72.8790665  72.1404409  81.4938354  73.6135817
  94.2035628  33.2066745  69.8871517  94.4208241  34.0296382  70.3250504
  95.0084210  32.9572505  69.4330263  33.0756621  68.6310094  10.2880383
  32.9814772  68.8175385  11.2221527  32.2180133  68.2991974  10.0223827
  27.0438103  62.8259080   6.5819359  27.7156262  62.8306763   7.2637558
  27.1922116  62.0092671   6.1051750 103.6642075  32.9448718  46.8451071
 102.8795863  33.4916801  46.8050575 104.3854714  33.5472220  46.6629362
  78.1392527  89.4493771  69.4033098  78.4555244  88.9287472  68.6649656
  78.4066725  88.9541531  70.1775646  32.1289448  49.1648215  59.0966082
  32.3073486  48.3338851  58.6562061  32.5057129  49.0586585  59.9701118
  28.8372092  44.8501389   5.8149052  29.7075991  44.8232262   6.2123108
  28.9581351  45.3489010   5.0069237 110.4489517  92.8482437  52.8489304
 110.0087070  92.0182037  53.0318356 111.2765026  92.5953484  52.4397421
  14.3316177  24.9978084  37.0957041  15.0291447  25.6436271  37.2079968
  14.7206882  24.3183249  36.5451074  43.2560496  69.0982239   8.2252502
  43.7198310  69.5717518   8.9158440  43.8779025  69.0651887   7.4983120
  10.0392727  27.8343696  25.8361292  10.3305916  27.0931262  25.3051686
  10.5101494  27.7359599  26.6636658  75.4701471 100.7817173  81.5309238
  74.8234415 101.2875938  82.0229530  75.4148626 101.1251640  80.6391811
  21.5446238  92.7045052   4.7654629  22.1359400  93.1079953   5.4008961
  21.4172892  93.3768933   4.0962029  14.9650196  13.4816665  62.2069359
  14.4793514  13.2001418  61.4316273  14.4174389  13.2110423  62.9439259
  98.8941383 104.0063572  69.4381571  99.6241379 103.8309383  70.0319242
  98.8773823 104.9597263  69.3543053 105.9740973  31.5355414  55.1655912
 105.9505273  31.8965167  54.2793798 105.5531407  32.2029990  55.7073641
  99.0502215  21.4697570  72.0803118  98.5610438  22.0421618  71.4893007
  98.7738038  20.5853004  71.8404055  68.1328674  86.6969722  58.7864828
  68.6512282  86.3578552  59.5162344  68.0224784  85.9468919  58.2021666
  71.3928506  37.9741979  25.0389981  71.9269797  38.7025666  24.7221041
  71.1145064  38.2442904  25.9141016  93.4355696  76.2921434  40.4902697
  93.5286161  75.5459696  41.0825491  93.8702246  77.0140248  40.9443569
   4.9489483  26.1815476  75.7632971   5.5498785  25.9492397  76.4712191
   4.4345522  26.9083309  76.1145973 111.2071048  21.7401695  44.2330456
 111.4135510  22.6640034  44.3749762 111.9764320  21.2705803  44.5553064
  58.5119153  46.5119361   1.4203548  59.4196606  46.3731669   1.1502266
  58.5600734  47.2122078   2.0711517  27.8099870 104.8294883  66.5857935
  28.6046552 105.3451631  66.7229557  27.6442146 104.8905894  65.6450367
  29.5868325   6.1210263  31.5824127  29.3947887   5.3438461  32.1071434
  30.4933763   6.3385355  31.7994356   1.5638635  10.7246423  56.7494440
   0.9715286  10.0722694  56.3755703   2.3587632  10.6575000  56.2204266
  34.8480844  36.3117003  36.3899589  34.3631530  36.0044575  37.1559048
  35.6884766  36.6063452  36.7408967  25.7022858   6.1640310  78.6121416
  25.2881193   6.9079524  78.1747866  26.6097999   6.1824757  78.3083200
  77.2173252  99.1750806  46.9852209  76.5809815  98.9241701  47.6548052
  77.8461810  98.4535932  46.9701052  35.1886702   3.2292485  45.1487923
  35.3647971   2.8332800  46.0022640  35.0701857   2.4845967  44.5591402
  77.8785294  86.1835915  44.7855139  78.7199964  85.9135145  44.4177866
  77.3679986  85.3753787  44.8343134  98.6062142  18.0184102  49.3865204
  99.4409010  18.1082261  48.9266682  97.9454264  18.0715120  48.6960316
 100.4016658  70.4955250  50.1269007 100.9700795  71.2617761  50.2043390
 100.4676052  70.0614530  50.9774685   9.2983722 101.1335927  88.0981159
   9.8228835 101.6300663  87.4699211   9.6237373 100.2363127  88.0255985
   5.8286315  33.4748793  47.6598501   6.3805783  32.8519988  47.1869802
   4.9821258  33.0346656  47.7364779   9.1619527  39.2501831  61.1027241
   8.2294619  39.1288042  61.2814951   9.6003324  38.9356232  61.8933630
  18.9994657  34.4779015  70.2030277  18.9007020  34.9182081  71.0471869
  18.1810164  34.6593761  69.7410297   0.3556753  13.7825263  33.3790350
   0.8227786  13.9816570  32.5676203   0.1843243  14.6379566  33.7728739
 103.0931547  26.8582654  34.8520184 102.5837514  26.0646272  34.6880722
 102.8403583  27.4549270  34.1475177  94.7145434  99.8936832  63.0518103
  93.7702902  99.7757065  62.9483652  94.7989007 100.6147536  63.6756468
  79.9606796  96.4854085  16.3126385  80.1735266  97.0063317  15.5383217
  80.8038845  96.3370347  16.7406845  91.7591926  14.5915771  28.8821197
  91.5999505  13.6713684  28.6721420  90.9525511  15.0387502  28.6259985
  20.5419564  30.9414625  27.4539971  21.4218712  31.0906816  27.7999926
  20.3171849  31.7592907  27.0102978  27.0011449   8.8540578  75.6867552
  26.0971951   9.1688645  75.6892538  27.5229478   9.6258742  75.4670906
  77.3786756  14.9879682  34.1878128  77.0661971  14.9083829  35.0890636
  78.1015703  15.6132734  34.2392898  50.6693121 103.5502912  47.9061842
  51.5542909 103.2111694  48.0404949  50.7496377 104.4931274  48.0505419
  27.7776837   9.3751949  61.3450623  27.6922011   8.4796637  61.0180283
  26.9141674   9.5833677  61.7017603 108.9490071   3.8287634   1.9021925
 108.8155901   3.7669167   2.8480291 109.5798723   3.1368235   1.7035465
   3.5260883  14.9575543  32.7291656   3.3523783  14.2158651  33.3087802
   3.3287910  15.7285285  33.2610536 106.0423752 100.9764611  68.4127998
 105.6281134 101.0393354  69.2734146 106.2455150 101.8819195  68.1780386
  14.0518785  19.8321915  48.7341166  14.7536969  19.7695017  49.3820000
  14.0310001  18.9697409  48.3194208  91.8068323  21.0833788  48.6123371
  92.3580584  21.7404222  48.1872749  92.1502075  21.0230851  49.5037889
  48.7648010  10.3563857  40.1048231  49.0575218  11.0184562  39.4785571
  48.3325672   9.6927285  39.5672703  12.1738719  94.8058301  27.0159721
  13.0918311  94.8002928  26.7447615  12.0899677  94.0465766  27.5927973
  13.6534715   4.6534649  45.8395720  12.7813280   4.9134853  45.5429459
  14.1107893   5.4803014  45.9926558   0.7893047  27.2773933  71.3855982
   1.1036056  28.1369400  71.1051941   1.5101433  26.9151521  71.9007730
   2.0239901  97.5063842  40.5276108   2.8150224  97.0645576  40.2189302
   2.1335553  98.4157228  40.2495241  15.3785574  30.7768917  90.2708340
  15.6343126  31.1742067  89.4383907  14.5653629  30.3117490  90.0743961
   9.6824998   0.6489013  75.0783205   8.9406902   0.7315474  75.6775856
   9.3504441   0.9709169  74.2402983  87.4456117  56.6604662  23.7834525
  87.0975062  55.7987356  24.0125322  88.3646318  56.4985991  23.5703063
   1.6204117   6.3509238  35.8344984   1.2749495   5.4741681  36.0023904
   0.9516401   6.9421118  36.1801457  98.7466504  27.7776139  23.3912945
  99.5373775  28.1889241  23.0422878  98.9485027  26.8420117  23.4029007
  92.7268693  12.3012245  55.1821136  93.2628199  13.0481875  54.9155903
  91.8549499  12.4976492  54.8394680  15.5529070  39.8306680  59.8252296
  15.4062891  38.9009881  59.6507835  15.1708519  39.9750829  60.6909132
  65.4563823  93.8427609  72.9057217  66.1746153  93.6754256  73.5159445
  64.8513522  93.1136924  73.0422211  15.5466508  87.9192227  55.6308126
  15.0494193  87.2714716  56.1302233  16.2443542  87.4149304  55.2123260
  35.9022808   8.7430823  68.4734106  36.6547370   9.3333685  68.5134506
  35.2644730   9.1269106  69.0751696 103.2028970  31.9064188  78.0604553
 102.8786007  32.8039551  77.9863501 102.7857038  31.4404202  77.3358679
  17.4436724  16.3147998  57.9611254  17.3507607  15.4534125  58.3680773
  16.8095231  16.3106215  57.2441387  16.6933501  20.6854939  72.2044611
  16.2091029  20.1395273  71.5850592  16.1838007  20.6395483  73.0134583
  97.8600714  21.5033674  54.9496031  97.4311611  20.6477451  54.9630690
  98.7262067  21.3430285  55.3242159  17.7830970   2.1589924  46.4909029
  17.2879899   2.0506495  47.3029137  18.1447089   1.2907234  46.3132048
  96.5110025   6.6145205  70.5257607  96.1089608   5.8816421  70.9921122
  96.8989608   6.2181085  69.7456455  40.3062487   6.2790692  21.1858177
  39.8147631   5.4703355  21.3294268  40.6334019   6.2045461  20.2893519
   2.8727579  29.4115376  65.3094292   3.1881928  28.8647151  64.5899057
   2.0775720  28.9732957  65.6125069  97.1702322  13.3855903  86.4426517
  96.8249699  13.4993112  85.5571651  97.1771428  12.4379122  86.5771580
  86.4273866  80.4347187  79.1429758  85.9345230  80.9461552  79.7846556
  87.2447308  80.9192735  79.0272808 104.3783632  18.2328320  17.6608086
 103.8718435  19.0072680  17.9055905 105.1441643  18.2563078  18.2345939
  31.2677002  37.5644088  59.0402412  31.9307399  36.9521999  58.7211609
  30.5892563  37.0061421  59.4200897  87.6257893   1.8324509  61.9415331
  87.3615238   1.0422046  61.4704609  88.4988782   1.6301821  62.2777367
  88.9767417  97.1189046  64.5161915  89.2819568  96.9336760  63.6280680
  88.3778282  97.8585934  64.4142342  17.4389601  31.5870881  57.4737072
  18.2189167  31.7906499  57.9899025  17.5206637  30.6545544  57.2738647
  12.3592544   9.9974751  45.7988310  11.9404721   9.8753822  44.9468040
  12.6543021  10.9080446  45.7924080   2.0117115  93.5396546  50.6963682
   2.7482986  92.9311007  50.6386280   1.5006756  93.2269960  51.4429045
  77.6151862 101.7774045  48.3400631  77.2654294 100.9522503  48.0038738
  77.6556840 101.6518149  49.2881203 111.1295106  26.2621021  69.0937376
 111.3040718  26.8250442  68.3395100 111.6565550  26.6368866  69.7994232
  31.6556883  10.7878864  47.9240704  31.5627766  11.6638947  48.2985115
  30.7571602  10.4991412  47.7643633  17.7899718   6.1394775  53.2889652
  18.6165917   5.6952041  53.4775209  17.8562760   6.3875234  52.3668432
  87.2727916  35.2410412  40.3452110  86.8706867  35.4875064  41.1781549
  87.8750393  35.9585357  40.1484013  62.1663547  82.6714920   3.5200882
  62.1156598  81.9448684   4.1411114  61.2687207  82.9984521   3.4601974
   2.9712185  29.4824767  48.7587547   3.3575952  29.6453500  47.8982782
   3.5279644  28.8078237  49.1474819  16.0367310  36.9093966  59.6695566
  16.8315506  36.7911458  59.1494513  16.2958205  36.6726971  60.5601072
 111.3568787  21.4984822  40.3999519 111.7182485  21.9729495  41.1486340
 112.0642316  21.4941192  39.7550774  78.3476564  87.7008122  26.9262552
  78.2362299  88.5272926  27.3960924  78.7972140  87.1298593  27.5492644
 105.1079603  78.3257204  49.2468071 104.5947882  78.9202839  49.7939634
 105.8805510  78.1219131  49.7738695   9.9177468  14.1803098  71.6680574
  10.2531195  14.6732259  70.9191942   9.1389757  14.6638131  71.9436884
  63.4150911  14.4252633   8.6104870  64.0530086  14.0731214   9.2312050
  63.3691622  13.7684415   7.9157162  34.3781805  13.8174546  40.3154230
  34.2551517  12.8878403  40.1233006  33.8651490  14.2702949  39.6461201
  77.6017343  74.2851835  48.3253002  77.8390016  74.7759491  49.1121197
  76.9381224  74.8258048  47.8968382   6.5379947  23.7989759  35.1267552
   5.6090695  23.7726116  34.8973322   6.6673887  23.0358076  35.6898379
  55.6242629  93.3136528  85.6442738  55.5249866  93.9328712  84.9211216
  55.9188231  92.5038749  85.2274704  25.4568672   4.3224588  36.2679458
  26.1811781   4.4556686  35.6565070  25.3623676   5.1639372  36.7142820
  25.9730196   8.9322764  40.1724863  26.3759518   8.4577799  39.4453502
  26.6508532   8.9559811  40.8479214  89.9010655  28.5582256  76.5558147
  90.1968428  28.3107686  75.6797361  89.3263027  27.8419828  76.8257666
   0.7390212  30.8077508  62.4189425   1.1170530  31.3791638  63.0873871
  -0.0981999  30.5276710  62.7888727  45.5673838   1.3622649  48.7300920
  46.3975716   1.5126847  48.2779884  44.9895811   2.0531926  48.4060669
  55.7530880  22.4082446  46.9361877  55.6030607  22.0671535  47.8178787
  56.6890240  22.6074958  46.9125080  79.0681525  80.6001645  49.1764784
  79.7668072  80.3644567  49.7868538  78.2606890  80.4604107  49.6711540
  58.2020792  77.5925499  46.3103008  58.6689492  77.7554971  47.1298838
  58.7629565  76.9814735  45.8325624  18.9838934  45.7099438  89.8901367
  19.0441167  45.0116301  89.2382431  19.3082881  45.3120422  90.6980133
  64.2277320 100.8945733  33.6967278  65.0888141 101.0085028  34.0989590
  63.6363908 100.7463100  34.4346738  57.2350788   6.2668353  49.6881485
  56.4798450   6.4124185  50.2579403  56.9454813   6.5647453  48.8258171
 106.9780537 105.7015001  63.1975174 106.4849278 105.3940458  62.4369049
 107.6519223 105.0350214  63.3314466  81.3674762 100.5719000  66.0617304
  81.4832415  99.6543807  66.3086891  82.2382232 100.8570930  65.7847881
  50.0842142  26.2019086  61.7148876  49.1680098  26.4701557  61.7844629
  50.1114559  25.6414247  60.9394217 101.8152329  15.8683312  83.6635685
 102.2080693  15.8056426  84.5341873 102.3068395  15.2411723  83.1332588
  14.6005309  57.3610878  40.7481909  14.1732752  58.1701803  41.0293531
  14.3672538  56.7209196  41.4204979  92.9939875  16.6308343  61.6035509
  92.9557905  17.5871253  61.6202641  93.0376121  16.4090908  60.6734133
  18.7272143   8.5186219  81.1766815  18.8920283   8.3604515  80.2471352
  17.7814603   8.4080547  81.2744427  74.4935438   5.6141633   2.4360982
  74.2837092   5.5302924   1.5059543  75.1755759   6.2850052   2.4682263
  16.5079772   8.2341719  56.9674349  17.4191225   7.9521024  56.8869114
  16.0886669   7.9213291  56.1658478  95.7217141  90.9631032  66.3374901
  96.3405081  91.5080863  66.8236208  95.0051972  91.5566092  66.1125803
  13.1703615  25.8058429  59.3639708  12.3847461  25.3799272  59.7069502
  13.4348071  26.4129376  60.0551558 103.3839068  78.2715654  72.8026009
 103.3678058  79.2044353  72.5887632 104.3141547  78.0472469  72.8260946
 110.4472034  13.2649279  85.6103611 110.9121524  12.4540997  85.4039288
 110.8823121  13.9322710  85.0797367  27.1335006  46.5387821  63.1559944
  27.9191327  46.0593891  63.4190512  27.3599362  46.9234610  62.3092508
  47.3757505  43.0266142  20.1039696  47.4118042  43.5469723  19.3013740
  48.2839060  42.9852390  20.4035878  13.2605886  92.6785546  89.1770649
  13.1580972  91.9875222  89.8314285  12.4424838  92.6613754  88.6804295
  37.1050096  20.8073950  68.5590410  37.9830718  21.0725856  68.8327456
  36.6559887  21.6301155  68.3647728   5.2423185  11.2058485  77.4178219
   5.0339162  10.4409325  77.9542017   5.9931815  10.9317350  76.8912315
  13.1675482  27.3879266  50.5948639  13.2753587  27.9036713  51.3939953
  12.5640249  26.6871524  50.8416605  60.8886671   1.5760249  14.0157247
  61.3722944   1.2144443  13.2730293  60.5487061   2.4118023  13.6961389
  34.6034122  35.6570745  83.1710052  35.3032160  36.2832522  83.3565140
  33.9820790  36.1453533  82.6308632  10.6435823  26.5602899  31.5028143
   9.8974699  27.1520448  31.5996456  10.3009498  25.7007599  31.7478466
  29.7797322  41.6015291  18.9704013  29.4409657  41.6230202  18.0754113
  30.4101062  42.3210049  19.0052307  96.6986819  98.0946880  70.8142185
  95.9386369  98.5116440  70.4083776  96.3876339  97.2261113  71.0692787
  19.2812955  47.0637608  48.4640074  20.1716542  47.0120478  48.1164169
  19.3273544  47.7387428  49.1411400  31.3999581  67.1976805  30.5935001
  31.6243553  66.6806316  29.8198485  32.2298241  67.3061752  31.0580277
 110.0132714  37.8476214  40.7817984 110.4826638  37.5768852  39.9927473
 110.4333928  37.3593187  41.4898157  37.3832616  58.2691263  10.7987976
  36.4393517  58.3699159  10.6758785  37.4723830  57.9012804  11.6779900
  64.0783072  16.9829965  54.8949480  63.8283491  16.8567741  55.8102751
  65.0218058  16.8223333  54.8799753  47.4545240  14.2628300  52.7050352
  46.8295002  13.5387528  52.6691866  47.2998619  14.7529435  51.8975067
  92.1644899  96.9536084  75.7420683  92.8902897  97.4033224  76.1747360
  91.3830193  97.4207455  76.0375643   8.9121449  26.9814110  48.0897093
   9.0923256  26.1126208  48.4488297   8.8427615  27.5483966  48.8577890
  96.3529726  46.6883594  66.6137266  96.7687079  46.0331374  66.0532999
  95.4533025  46.7430335  66.2914944 104.5517655  88.9184361  62.6106834
 103.8895293  89.4697267  63.0275202 104.0821310  88.1194705  62.3712444
  35.2443385  55.0567150  52.6253319  36.0804987  54.6414661  52.4140644
  34.9865460  54.6651411  53.4598637  32.4695206  19.7600651  59.6070099
  33.1292224  19.2515707  59.1353512  31.9532633  20.1795697  58.9187336
  30.8193111  13.1827939  60.0927687  31.5244174  13.1318903  59.4474268
  30.1569939  12.5703311  59.7726822  47.7293348  22.2313023  61.4693689
  47.7456856  22.5423408  60.5642605  47.8932476  21.2906241  61.4023638
   0.9867842  36.5014601  44.9859905   1.6131875  35.8321428  45.2614260
   1.3466814  37.3206997  45.3259277  48.3677053   1.4645401  65.7707357
  49.1678619   1.3372642  66.2804174  48.6625195   1.8855029  64.9632072
  34.7522068  10.3260362  33.5791731  34.6549630   9.3943000  33.7757516
  35.5861211  10.3867483  33.1131983  54.3408561  65.6247066   1.8917751
  53.4425236  65.3585158   1.6958809  54.2931486  66.5758144   1.9884777
  22.2717357  52.9017925  63.0519962  21.5753055  52.3531103  62.6912117
  23.0644417  52.3729563  62.9615259 110.2034371  53.7850714  42.0461941
 110.5896497  54.6434402  42.2201967 109.5951335  53.9382458  41.3231897
  43.4165430  21.0410714   1.5777999  43.0692482  21.5064406   2.3387510
  44.3518353  20.9492421   1.7595421 104.1460910   7.4739277  54.1927528
 103.8377687   7.3412865  55.0891733 103.8209596   8.3418721  53.9535999
   4.1128254  38.8411307  62.7548695   4.1280350  39.0849876  61.8293810
   5.0342643  38.8254023  63.0135870  21.5511966  59.1591835  42.9071045
  21.8018651  58.8950872  42.0218611  20.9493876  59.8920822  42.7770281
  45.5563974  31.3076472  74.5637083  45.2861500  31.0807633  75.4534960
  45.3840017  32.2465444  74.4930983  15.2173638  23.2735372  52.7463579
  14.4426179  23.5778451  52.2737074  15.8016872  24.0315390  52.7616405
   8.7908340   5.2524817  19.8512208   8.7353581   5.7847875  20.6448245
   8.4571552   5.8213270  19.1574585  94.5721384 102.1650699  58.6691475
  93.7993737 102.7201256  58.5643578  95.2545258 102.6066199  58.1635666
  40.0412178   7.1836489  65.2958822  40.0569439   7.7919304  64.5569801
  39.1132879   6.9872576  65.4247332  28.2550836  45.5636024  82.3379040
  29.1485405  45.6280422  82.0005322  27.7849388  45.0570774  81.6756058
   7.7990311  83.7709522  63.3865690   8.2932049  83.2680988  64.0339947
   7.3984772  83.1084633  62.8236389  51.1361504  12.3628104  86.9363117
  51.9776249  12.4962151  87.3725986  51.1826944  11.4701152  86.5940189
  16.0124421  33.0824733  62.1124935  16.9181788  33.2562852  61.8562460
  16.0834670  32.6413918  62.9590368   6.5149271  13.1495428  67.3392630
   5.5780989  13.3241475  67.4292517   6.5968657  12.2057033  67.4759531
 101.3577934 101.8030902  38.9824486 101.8018933 101.1943733  39.5727634
 100.4675671 101.8658799  39.3285513  87.6876219  85.3585821  65.8399296
  87.0673212  84.8512155  66.3634157  88.2997616  85.7221609  66.4797163
  19.8075902  13.9354753  53.6181402  20.1881480  13.0602038  53.5452843
  20.5625105  14.5233071  53.6461163  12.0911121  50.3674746  61.3319254
  12.3681891  49.8683453  60.5635977  12.6810968  50.0810528  62.0291424
  51.4297771   8.5977054  42.3446894  50.6453466   8.0960685  42.1227455
  51.1090183   9.3137014  42.8930473  10.0025702  27.6689196  58.0558872
   9.5970869  28.4612274  58.4081125  10.6246054  27.3977733  58.7310028
  38.1823969  38.6218143  48.3027363  38.7875485  37.8928328  48.4391499
  37.7648616  38.4324646  47.4624729   6.8775493  40.1296043  71.5842152
   6.7250931  39.2440081  71.9139290   6.2982261  40.2059460  70.8260679
  25.1174116  17.4966645  63.0121374  25.8429480  17.1183586  63.5088396
  24.3536282  16.9831359  63.2751083  15.5786645  51.9832563  44.9473906
  14.8548043  52.6082850  44.9073696  16.1296654  52.2065496  44.1972113
  87.2258051  86.5827077  59.9710417  87.4709412  85.9196001  59.3257332
  88.0552086  86.9866329  60.2263165  52.4438238  59.4239426  28.8026762
  52.3251009  59.8389816  29.6570063  51.6329622  58.9361000  28.6586404
  90.4651257  22.3727083  35.8751416  90.4273054  21.4174891  35.9237146
  90.5706117  22.6547432  36.7837453   0.0379663  25.6281042  40.0879955
  -0.6990892  25.0699425  39.8401308   0.7489711  25.3580499  39.5068121
  16.1142063  12.1168959  49.0063620  16.8746793  12.6731014  48.8373995
  15.5094206  12.6787853  49.4908714  29.6146178  18.1688774  20.9556675
  29.1033053  17.4198151  20.6495690  30.0890398  17.8392208  21.7188716
  12.1980858  26.3818169  54.3933010  11.2947607  26.4477205  54.0836334
  12.2493172  27.0061278  55.1170683  65.8424183  87.7307611  38.9304519
  65.8664902  88.0305701  38.0217338  66.4758136  87.0138353  38.9629889
  19.8465002  52.9142284  19.0619540  19.1615176  52.7233267  18.4211826
  19.9552560  52.0963192  19.5471632  13.0201161  22.1293783  71.9571590
  13.1739831  21.3014126  71.5021515  13.7855375  22.6642084  71.7466354
 107.5622714  72.1459818  71.5813923 108.3651006  71.8394423  72.0029736
 107.8521389  72.4924135  70.7374763  97.1549079  40.6487751  45.7749462
  97.7671036  39.9763417  46.0737419  96.3143596  40.1954985  45.7097483
   9.0745670  24.5749617  37.8782725   9.1695422  24.5799756  38.8307357
   9.4201893  23.7243724  37.6075840  10.9361243  17.7025557  46.5395498
  11.0430932  18.3021843  45.8011532  10.4611480  18.2127571  47.1955442
  40.3662825  40.8732605  59.0881062  40.1479816  39.9795651  59.3524551
  40.8895159  40.7669878  58.2936478  95.4813847  14.6675098  57.1779156
  95.7761189  13.7706542  57.3360777  95.0693664  14.6354759  56.3145208
  97.4936530  16.5681088  72.9675245  97.9954979  16.6185439  73.7810564
  96.5893885  16.7353666  73.2331562  98.0823680  99.8654067  91.0467529
  98.9035865  99.3736571  91.0429573  98.3451244 100.7690674  91.2216568
 101.5175518  42.5852442  32.4015427 101.2361595  42.1551228  31.5940499
 102.1880165  43.2077885  32.1202087  11.1663890  57.4197388  52.2814512
  11.6598833  56.7324781  51.8338251  11.5648711  57.4737024  53.1500864
   9.2527831  13.6183155  68.5005283   9.7566974  12.8099370  68.4065771
   8.4501970  13.4593570  68.0037165  69.6356650  89.2070396  86.7810035
  70.1220198  90.0226171  86.6604927  68.7677784  89.4865353  87.0723581
  45.1829529  40.4250717  29.0958619  45.6599569  39.9625349  29.7848940
  44.9859524  41.2817907  29.4746161  37.3961496  32.8314185  49.3417692
  37.9366899  32.2784543  48.7776089  37.6722407  32.6088262  50.2308464
  25.0598240  70.1872873  57.9664898  25.1181722  71.1241150  58.1540489
  25.0540280  70.1342630  57.0107794  75.8957597  91.4516610  47.1070290
  74.9962641  91.5035575  46.7838478  75.8073563  91.4364069  48.0600119
  39.6508050  47.9632378  27.6476812  38.7568259  48.2956934  27.7283502
  39.5717669  47.1999311  27.0755410  12.8052640  38.9526176  69.5271349
  12.9173791  39.7817278  69.9921465  13.5126340  38.9420843  68.8823462
  42.1365547  21.1275959  63.9273834  42.8308058  20.6299067  64.3592978
  42.3758316  21.1177444  63.0006266 100.2758536  26.9172263  46.7295265
 101.0340843  27.1279478  46.1846304 100.3641757  25.9816122  46.9113493
  31.2434745   8.0044013  46.6844130  30.4403496   8.3199370  47.0987272
  31.6021609   7.3725379  47.3075676   2.5712946   2.5906950  70.0698423
   3.3396888   3.1550232  70.1554966   2.7459362   1.8571571  70.6594658
  55.6197691   6.6816521  26.6389346  56.2443113   7.0418674  27.2685575
  55.2466917   5.9190953  27.0811462  25.9980941  21.4832568  61.1203814
  25.8609128  21.6632438  60.1903152  25.1517296  21.1598921  61.4291382
  18.1615543  21.4620137  39.8874569  19.0948963  21.6675353  39.9410057
  17.7818656  21.8677306  40.6668568  12.8847086  16.5206695  64.2116833
  13.5461998  16.4337301  64.8980522  12.0676565  16.2506330  64.6308994
   0.6315439  18.7050939  73.6965656   1.1994559  19.3523908  74.1145563
  -0.0645922  19.2228365  73.2921267   9.3920707  96.8745571  12.1491015
   8.8398217  96.3081139  11.6102195   9.4940805  96.3967627  12.9722285
  93.7978526  89.1984182  71.7813349  93.5881623  89.9100047  71.1764336
  93.2118364  89.3361777  72.5255394 109.1610503  37.7646923  29.5476794
 109.1022411  37.4997902  30.4656124 108.5872194  37.1540952  29.0849495
   3.6557397  14.2043686  54.9745703   3.5795557  13.8886118  55.8749723
   2.8819886  13.8554132  54.5321083   3.7773731  14.5648634  75.4004240
   3.8929024  14.1981959  76.2770319   4.3139607  14.0087652  74.8355722
  38.9214134  72.9958439  42.5313663  39.0666246  72.8544378  43.4668589
  38.5803056  72.1601009  42.2129154  19.0291070  98.0960798  90.0190926
  19.1129159  97.4976229  89.2767620  19.7044849  97.8105461  90.6343746
 111.3470966  49.5839739  41.2546921 111.5307767  50.4266596  40.8395100
 112.0561994  49.4690323  41.8872976  22.6222253   9.0755802  19.0552223
  23.0541468   8.4258360  19.6097565  22.3722506   9.7762883  19.6575117
  47.3641253   6.4959115  30.8335519  47.1845818   7.2425675  30.2621508
  47.0054960   5.7430315  30.3636694   2.7820042  25.1304293  26.7977142
   1.9180265  25.3827238  26.4719510   2.9563379  25.7422256  27.5129366
  76.6319353 105.5485830  21.8852162  75.9891286 105.1712231  22.4857402
  77.4583938 105.1291452  22.1245265  31.9052696  47.2776413  30.0588584
  31.6110945  47.6881123  29.2457128  31.9932771  46.3498211  29.8406029
  32.0627427  10.0553894  42.9104042  31.8362832   9.6958333  42.0526934
  32.2571445   9.2877614  43.4481668   0.6638741  37.9063153  58.1137848
   1.5089452  38.2908678  57.8809643   0.1117899  38.0590773  57.3469114
   6.4785480   5.5987227  59.7593498   6.0811996   5.5689961  58.8890266
   7.3899853   5.8428144  59.5983171  55.1137257  65.0181829  14.9378681
  55.2557052  64.2556892  14.3769073  55.3175581  64.7077607  15.8200932
  13.2884812  65.2364445  40.4809141  13.7222445  65.6184006  41.2439299
  12.5381362  65.8087158  40.3205347  34.5875072   9.8495775  70.5015993
  34.4189024   9.3864691  71.3221693  33.7438536  10.2361929  70.2670574
  21.6749382  50.4955816  41.9837999  22.2102976  51.2798738  41.8633699
  21.6756177  50.0710630  41.1258888   9.6567696  44.5045233  68.5186100
   9.8093736  43.5635233  68.6050034   8.8025630  44.5704412  68.0917406
  10.4050969  95.1367205  57.9666233  10.5595493  94.2402118  57.6688862
  11.2291002  95.5919462  57.7933836 104.4554797  25.3559971  55.0461388
 105.2426061  25.7987165  55.3634071 104.7229335  24.4439507  54.9326706
  39.6890306  22.0062780  68.3243942  40.4420042  21.8661690  67.7502584
  39.0423822  22.4420929  67.7692842  37.3694634  47.6255226  36.5838838
  37.7424479  48.0395842  37.3621297  37.5172305  46.6891670  36.7166615
  24.8987842  18.6811805   8.5527009  25.6951475  18.2273245   8.8284731
  24.7514606  19.3400884   9.2312050  41.1706114  32.0023942  57.8286695
  41.9239902  31.6707659  58.3172131  40.4366064  31.9239235  58.4380245
  23.2856822  43.9815092  80.0388145  23.0167055  44.2030764  80.9303284
  23.5303617  44.8199177  79.6471119  54.8215163  99.2820428   1.1355305
  54.9560667  98.7353204   0.3614330  55.3494073 100.0634931   0.9715271
  94.1311106   9.4178629  48.4055376  93.5910699   9.4000226  49.1956425
  94.2842194   8.4957910  48.1992054  26.9473815  44.5216227  60.2283001
  27.3319077  45.3973007  60.2678633  27.6678538  43.9559937  59.9504185
 101.2420388  95.2325636  39.6761489 100.3949472  95.5037594  39.3224216
 101.6230866  96.0368877  40.0284243  22.0438838  33.6560845  52.5312901
  22.9931927  33.5978031  52.4233723  21.7688918  32.7591014  52.7211189
  65.2753402  82.5160884   1.0737419  64.3682290  82.4409269   0.7775402
  65.5949021  81.6141318   1.0979557  10.2228224   6.8165022  80.4290676
  10.4369450   5.9798664  80.8418941  10.8822107   7.4243730  80.7636261
  13.2997191  53.9483976  39.7155094  13.2323217  54.1209126  40.6546211
  12.6157176  53.3019161  39.5410538  22.5109696   1.6667612  88.2165051
  21.9392872   0.9481045  88.4865856  22.9299760   1.3515088  87.4157047
  35.4217529  21.6974092  61.2250423  35.3697848  21.8824148  62.1627569
  36.1656404  22.2164702  60.9193707  50.2917290  34.2657781   5.2235043
  49.7198868  34.6391654   4.5528269  50.6244946  33.4581757   4.8319954
  29.3886209  60.5683327  52.2893763  30.0488687  61.2609291  52.3140812
  29.7656131  59.8593473  52.8103876   8.2546651  41.2613678  46.9643831
   7.2989237  41.2457561  47.0148468   8.4486228  41.9214201  46.2988424
 110.5379172  96.4366507  32.5245166 110.4437181  97.0902318  33.2174754
 109.7156855  95.9469610  32.5437641  15.7086301  40.1421833  21.2916541
  15.8182955  40.7860422  20.5919027  16.5915895  39.8085070  21.4506412
   4.9135303  27.3931026  68.4835863   4.6888512  28.2601023  68.1458521
   5.8607805  27.4261975  68.6172009  98.4821078  26.9850230  57.8339624
  97.6988861  27.2032309  57.3288059  98.1554469  26.4703536  58.5719585
 100.4046974   1.5843786  68.3384943 100.9948608   0.8517282  68.1619644
 100.9865007   2.3183933  68.5358763  86.6294380 104.0534182  69.6556711
  86.8035134 103.7429324  70.5442286  85.7690569 104.4691837  69.7114944
  93.7502547  93.0700129  66.1420107  93.9653536  93.3230000  67.0397663
  92.9347797  92.5751227  66.2214851  19.7314703  17.9262185  57.9757118
  18.8591695  17.5415647  57.8898954  20.2085400  17.6116848  57.2077894
  14.7225273  18.8870931  55.6623459  15.3738654  18.3226585  55.2459335
  14.8689830  19.7493076  55.2732897  19.5714676  19.9053562  26.1375213
  19.7601235  18.9845955  25.9563017  19.3392920  20.2744818  25.2854228
  16.3236558  34.6095562  70.3290606  16.0249639  34.2891455  71.1801481
  15.5334187  34.6278143  69.7892237   0.6345411  17.9787946  24.5073032
  -0.1725054  17.9656446  23.9927793   1.3327131  17.8774977  23.8603663
  91.2813743  90.2354234  49.2804337  91.5063866  90.3101259  50.2078104
  90.3248414  90.2019351  49.2680073  14.8642445  25.4859781  62.5109291
  14.3080127  25.2402210  63.2501459  15.2335298  24.6581435  62.2034407
  28.9500070  22.7606249  10.3524148  28.0198646  22.6891565  10.5667961
  29.3185902  23.2908869  11.0589564   5.0336170  70.7554436  58.4594345
   5.8065200  70.6078148  59.0044641   4.8411921  71.6872454  58.5640717
  28.4395242  39.5951533  49.0300941  28.8136053  40.3818798  48.6334085
  27.4952292  39.7517943  49.0282106  54.0714073  22.1089458  42.5748920
  53.3321714  21.6318297  42.9518938  53.8919020  23.0272055  42.7769041
  52.3858690  44.6958923  74.1672039  52.9788542  45.1722145  74.7483397
  51.7304420  45.3443432  73.9099884  64.7765113  90.2527283  10.7124615
  65.5052114  90.0841497  10.1151276  64.3262506  89.4111179  10.7845020
  14.9870490 103.1222662  85.3634357  15.7021665 102.5721201  85.0437832
  14.2133044 102.5607392  85.3160858  14.5207405  22.0695496  59.9403143
  13.8187087  22.6338553  60.2642632  14.1329348  21.6074610  59.1971350
  33.1169415  46.1048937  89.8740673  33.1028318  46.4176083  90.7786369
  32.2308922  45.7770967  89.7201157  45.1797533  47.7163315  83.6975288
  45.8773088  47.8461409  83.0550385  44.6241093  48.4905338  83.6075020
  30.0641870   7.9000068  74.4453049  30.5096388   7.4408913  75.1573563
  30.5442643   7.6438278  73.6578226  39.7948170  39.1268253  14.3041289
  39.1027451  38.5378766  14.6048105  39.7071457  39.1324925  13.3509684
  10.8121824  39.4308734  83.1771278  11.5855908  39.9716282  83.3372974
  10.9797943  38.6233044  83.6629009  12.9312610  86.6768592  76.4115667
  12.2114515  86.5110427  75.8027935  13.2087325  87.5719052  76.2162876
  12.5814450  23.2917571  61.3275051  12.5303137  23.7697363  62.1552420
  11.7490661  23.4764576  60.8924580  43.3708000  24.5593572  53.3480692
  43.7656927  25.2843189  52.8635883  42.9647875  24.0140033  52.6742935
  18.5427117  25.6046963  68.0421305  18.7921524  25.1701355  68.8577080
  17.7845633  25.1108551  67.7297735  17.3170304  21.0027361  48.0379915
  16.7579830  21.7765617  47.9680300  17.8722239  21.1762905  48.7981653
  24.7226667   5.8054358  46.9449329  24.7479486   4.8507014  46.8810940
  23.8293076   6.0387850  46.6925621 108.1569380  17.7648008  27.2707772
 108.4728074  17.3432922  26.4715338 108.1960848  18.7017655  27.0789528
  27.9290032   6.3863242  63.1614590  28.6771369   6.8945557  63.4748697
  27.4147987   6.2067521  63.9485884  34.7894621  75.8064318  48.8087940
  34.3871880  75.2885342  48.1115246  35.7215071  75.5946350  48.7571859
   5.4074281  32.0993042  68.3398008   5.9916312  32.6398611  67.8080702
   5.3373563  32.5686383  69.1710949  36.1007142  43.4580040  57.7937126
  36.8741822  43.2591295  58.3213758  35.8218312  44.3230200  58.0940437
  35.0828576  44.0802670  25.0447679  34.5241070  43.8013649  24.3193412
  34.5902801  43.8444185  25.8308816   6.4553386  32.4374461  43.6617708
   6.9884336  33.1308556  44.0506506   5.5544132  32.7469826  43.7553310
  45.6369305  32.9310799  52.0626783  46.0341501  32.8947234  52.9328108
  44.7185659  33.1448889  52.2273731  57.9745170 104.1576744  50.4513645
  58.0005392 103.2076519  50.5654335  58.5794541 104.3289010  49.7295856
  40.3337240  20.5534029  24.2438698  39.5528579  20.0919843  23.9379716
  41.0612535  19.9819613  23.9981341  72.2585096  96.2816554  11.3556564
  71.3500123  96.5829146  11.3452816  72.7118712  96.9072932  11.9206989
  72.1537352  46.9003402   4.8384285  71.8217350  46.0851090   5.2144623
  71.3687087  47.3761283   4.5671463  27.5981212   7.8031909  34.5095873
  27.2185230   7.2270030  33.8461542  28.4620237   7.4301171  34.6848631
  96.1671445  45.7435799  79.5806265  95.5900881  45.5015707  78.8562870
  95.9960172  45.0847435  80.2535915  28.1382608  16.9962502  48.9738226
  28.7133193  17.0001662  48.2086277  28.6122608  17.5042093  49.6322536
  14.0037215  45.0796938  56.5157366  13.5013831  45.8763218  56.3446522
  13.7105846  44.7927952  57.3806000  19.8313522  36.4352536  63.1224203
  19.7055888  35.4873753  63.0783606  19.7291338  36.7327094  62.2183752
  46.3049221  17.8372359  37.2532606  46.6516256  17.0429671  37.6596665
  46.7765617  17.9070640  36.4232564  17.0414304 104.8865904  75.7402468
  16.2110471 105.2667822  75.4536200  16.7950534 104.0633341  76.1618853
  32.9643035   1.4894009  65.4839516  33.4787393   2.2939616  65.4186058
  32.8774190   1.1865916  64.5800781  97.5795051  99.3223345  31.3947630
  97.3132797  98.9554661  32.2378302  96.8857523  99.9438649  31.1742163
  99.9605259  15.1500511  45.1135540 100.3684983  15.2743232  45.9704924
  99.0547344  14.9123418  45.3117180  22.1535301  22.0382214  63.0160952
  22.6570225  21.2253356  62.9720402  21.5665722  21.9162607  63.7623072
  53.6766148  20.2523208  35.3104568  52.7746201  20.2868366  34.9919605
  53.9359570  21.1698079  35.3952432  88.1303831  97.7924961  89.0425301
  88.7472674  97.2041005  88.6072445  88.3280512  98.6566007  88.6813068
  19.5605719   7.2577286  78.3439589  19.5323324   6.4320618  77.8605270
  18.8012433   7.7468771  78.0271244  19.6970224  13.7698150  64.7800922
  18.8964188  13.7708056  64.2554379  19.7452223  14.6533394  65.1451874
  14.9523199  42.2062016  51.8549156  14.6013522  42.6475525  52.6283932
  14.8150563  42.8288174  51.1409569  97.9284677  21.8812323  80.3311539
  97.9980096  22.3515797  81.1619186  98.4904358  22.3711205  79.7307920
  28.0660439  40.4258728  61.6775846  27.4300432  39.7112083  61.6460991
  27.5819039  41.1609411  62.0537663  39.0433366  50.8404620   5.0748444
  38.6882103  51.5164168   4.4976139  39.6544317  51.3083409   5.6439590
  11.1679637  42.6075459  50.6226730  10.3245008  42.2687769  50.3226137
  11.8106830  42.1953869  50.0453806   1.3076656  47.7940798  39.7317767
   0.5622488  48.1896591  40.1835537   1.5394768  47.0370150  40.2696896
  37.8662467  24.3705177  64.1636562  38.3251023  25.2098870  64.1298199
  38.2729912  23.9044762  64.8941326  28.4775281  26.1136746  33.5494685
  27.5374913  26.2938118  33.5388231  28.8801074  26.9232297  33.2351756
   3.0939934  18.2674217  16.2074780   2.2855911  17.9940093  16.6410267
   3.7039179  18.4399247  16.9247413  12.3135102  60.8468437  50.9739399
  11.7353010  61.5913630  51.1400604  11.7207468  60.1038933  50.8604097
   6.2684745  17.5172496  35.6671000   6.9202602  17.8478503  35.0489497
   5.4684275  17.4316382  35.1486135 108.9803776   9.4841743  66.7348051
 109.4082254  10.2355814  67.1453762 109.4117223   8.7221736  67.1214962
   9.8679501  62.1356249  79.2449474   9.7129977  61.6194248  78.4538937
  10.6542993  62.6448202  79.0484571 103.4015456  15.6809270  45.1137972
 103.3382782  15.4500902  46.0405874 103.1417325  16.6014957  45.0779772
  82.5808104  93.6905521  58.6844969  82.5992300  92.9452175  58.0841875
  81.6990735  94.0512734  58.5914803  19.4606400  47.9709625  52.1813345
  18.7491930  47.3826838  51.9283533  19.7932780  48.3149052  51.3523054
 101.7246576 103.8867557  86.3516235 101.4172193 104.7591029  86.1052036
 102.6500794 103.8810146  86.1070919  32.1370149   4.1749752  60.9821320
  32.4590707   3.3851761  61.4165592  31.4380407   4.4941822  61.5528965
 102.2203800  48.3928013  29.6979451 101.8647906  48.2305288  30.5717039
 101.6271040  47.9280567  29.1078067  16.6675854  33.0371690  35.1396084
  16.5305483  32.2878003  34.5600390  17.3248184  33.5695386  34.6914363
  43.8097954  91.3296318  56.5497017  44.5639038  91.8734264  56.7773676
  44.1860914  90.5777645  56.0921812  20.9191632  29.2670655  52.6069927
  20.3785777  28.5444570  52.9261112  20.3660178  29.7157264  51.9674921
  98.0922255  56.7783785  60.3014612  98.6732504  56.8527651  61.0585022
  97.4349269  57.4610806  60.4360199  34.2149353  57.3804617  53.4678841
  33.7984276  57.8388977  52.7380943  34.4979835  56.5451956  53.0957985
   3.4994316  38.8863564  72.9405451   4.2406619  38.5387588  72.4445772
   2.7276468  38.5499191  72.4851418   1.1903065  46.3720322  13.3442438
   1.8582880  45.7850790  12.9899561   1.5474063  46.6624308  14.1835165
  21.8138409  95.1507092  27.5076175  22.6824617  95.5468369  27.4382639
  21.9858479  94.2242146  27.6757216  45.2198935  35.9567261  62.9568863
  44.7974539  36.6859365  63.4107924  46.1359501  36.2226486  62.8771448
  17.8351200  62.5122213  27.0421720  17.3042822  61.9950581  26.4363837
  18.3846605  63.0543852  26.4762259  46.1342812  33.5607409  60.8052731
  45.2075815  33.4645224  60.5857325  46.2281227  34.4813704  61.0499430
  25.7649183  46.2473774  26.1114597  25.8193564  47.1207428  26.4994073
  26.5896940  45.8260584  26.3532615  94.9986287 104.8868152  76.3158941
  94.7590729 104.8675586  75.3893566  94.2541751 105.3064481  76.7470884
  15.0059080  51.1628819  68.4893084  15.3237557  50.3831148  68.9444685
  14.1140735  50.9384060  68.2238388  26.5660739  47.5911379  81.4779472
  27.0213795  48.1261253  80.8277893  27.1511054  46.8488312  81.6294575
  60.3999662  23.2724214  52.9574203  60.4513121  22.3435092  53.1826258
  59.7822666  23.3080173  52.2270727  34.8507953  56.4536381  61.2648058
  35.4407811  55.7157040  61.4184189  35.3270793  57.2143650  61.5974951
  32.9108429  28.7395549  74.1798687  33.3194375  29.2565393  74.8741388
  32.8973198  27.8460550  74.5229483  50.1066828  23.5198474  65.2086830
  49.4300222  23.4477234  64.5355129  50.8917093  23.7884521  64.7313786
  21.9163275  33.8774109  70.6967592  21.0013962  34.0094018  70.4483366
  22.3638177  34.6662617  70.3906584  15.9456575  45.6591415  35.4688263
  15.8564866  46.3303757  34.7922707  16.5559590  46.0369539  36.1020923
  36.0027027  58.5094547  62.5515175  35.6184077  59.3387222  62.8358841
  36.9173527  58.5617542  62.8288555  17.8738809  55.4497623  43.1103897
  18.8020074  55.6816673  43.0782604  17.8106952  54.8126316  43.8219404
  21.3716578  40.7411146  54.1593218  21.5718102  39.8120141  54.2730808
  21.8907166  41.1820412  54.8319244 106.7125836  52.3945618  76.8618298
 106.5854606  51.6954041  77.5031137 107.2377339  53.0492020  77.3221540
 109.9152179  40.8347559  82.3772621 110.2171448  39.9404335  82.5361824
 109.3167780  40.7570410  81.6342545  33.1292844  92.8358078  56.8854094
  32.2047615  93.0807877  56.9237757  33.4223437  92.8632927  57.7962255
  38.7274289  54.2393398  62.1758890  39.0300870  55.0993824  62.4673510
  39.5295286  53.7636471  61.9600487  84.8399206 102.1377524  76.0350609
  85.7838162 102.2840881  75.9727716  84.5565232 102.7044490  76.7525387
  96.3303496  -0.0787504   8.8617039  95.6272723   0.4796355   8.5298729
  97.1340968   0.3381865   8.5512447  34.8120666  18.7648177  30.6233406
  34.1984367  18.7484121  31.3577938  34.3187976  19.1663837  29.9080348
   4.2921269  29.4955945  53.6233473   3.4284300  29.7564077  53.3036041
   4.2589742  28.5393357  53.6498928  16.0771072  39.2206264  81.6010284
  15.4026866  38.7315178  82.0723629  16.7259169  38.5602617  81.3577175
  11.0665464  12.8302133  82.3680115  11.9772816  13.0612051  82.5508785
  10.7091093  12.5739527  83.2181931  17.4038053  30.9148574  53.6616945
  18.0445755  30.6794977  52.9906893  17.8490090  31.5704632  54.1985464
  64.3889999  18.7382746  68.5960484  64.0468645  19.5205832  69.0286827
  63.8192654  18.6160207  67.8366470  60.8339691   9.7480214  86.9334412
  60.4164362   9.9443465  87.7721024  61.3619709  10.5230153  86.7415237
  96.0752305  18.2229674  35.7032084  96.2728307  18.0533087  34.7821212
  96.4738783  17.4901795  36.1726069  29.2645144  50.0069904  30.3182626
  28.5693550  50.6213617  30.0826025  29.5115638  50.2550840  31.2091327
  39.4025946  45.5009937  26.1642075  38.6716032  44.9121952  25.9765816
  40.1389027  44.9176550  26.3480449  49.9704218  29.5899200  56.8968487
  50.0661516  28.6685729  57.1380615  50.7476330  29.7821617  56.3722372
  21.7522621  12.1201873  33.3987522  20.8311367  12.3570979  33.5066128
  22.2313666  12.9245257  33.5980773  21.4308524  38.4517574  56.1960459
  21.8388700  37.5967050  56.0595179  21.7645812  38.7436819  57.0443583
  34.7755671  25.8922768  79.1652393  35.1057172  25.4919124  78.3609152
  34.8391438  26.8342447  79.0074968  20.3087354  48.9968204  27.0795584
  19.5070183  48.4994030  27.2409701  20.1192045  49.5078659  26.2927008
  27.6099205  47.6982021  51.7865181  28.0838323  47.6747084  50.9552002
  27.2657752  46.8111610  51.8911791  13.3050442  40.0294876  83.8139915
  13.5563099  40.7141018  83.1939888  13.6565566  39.2233539  83.4360695
  14.8055124  31.5926933  56.9466496  15.7589388  31.5131187  56.9762564
  14.5295393  31.5067244  57.8591633  34.9910593  52.9625463  63.9577913
  35.5718017  53.1810188  64.6866560  35.1326680  53.6626339  63.3205700
  22.9828215  65.0994921  48.4405184  22.2427702  64.4930220  48.4679127
  22.6545548  65.8968544  48.8560772   6.6448361  33.0455828  33.6451864
   7.1246797  32.2829938  33.9683604   7.0930052  33.2843614  32.8337932
  80.2352000  99.4907259   3.1335354  80.5208970 100.3974746   3.0221272
  79.5822240  99.3591665   2.4461079  52.8853989  44.0429115  34.3660951
  53.6604595  43.6549664  34.7723055  53.0086184  44.9866676  34.4679141
  32.6523566  55.5767393  65.6473875  32.5224471  55.8638144  64.7435379
  32.9043460  54.6563435  65.5724859   7.4754834  44.6762800  67.1738958
   6.5823889  44.5699883  67.5014877   7.3660618  45.0201416  66.2873220
 106.6499826  30.0016546  61.6866684 105.7090881  29.8326445  61.7355013
 106.9103122  29.6615386  60.8306408  47.9735422  39.8383713  55.0431824
  48.7124014  40.4259443  54.8848248  47.6958561  39.5619988  54.1698360
   0.2525782 101.5951016  67.2599506   0.5164026 102.1409142  68.0007029
  -0.5582190 101.1758417  67.5481510 106.7114922 104.0974350  69.3793678
 106.6774269 105.0096051  69.0912437 107.6428624 103.8769220  69.3668270
   8.4391296  35.2138305  54.1887331   9.0701103  34.9782324  54.8688698
   8.6761582  34.6645713  53.4414911  28.3061695  23.6610293  41.4351845
  28.8086748  24.0480757  40.7183075  27.6945949  23.0641150  41.0040236
  35.6147742  41.7135906  31.2259865  36.0565591  42.2005606  30.5303454
  34.7742248  42.1587610  31.3333750  11.5360503   5.6594985   9.0859985
  10.6049304   5.6837504   9.3065739  11.9702963   5.4233592   9.9057007
  21.0645008  40.0238848  43.9040947  20.7130194  40.0721121  44.7931194
  20.3301334  39.7166491  43.3725452  33.1216431  22.8608441  48.0612612
  33.9163017  22.4955177  48.4502172  32.4118209  22.3315692  48.4249210
  26.7926073  32.1031070  46.9834375  26.0179496  32.3080707  47.5070095
  26.9519138  32.8957200  46.4709759  23.7901902  63.3984470  63.5081244
  24.1170478  62.5353909  63.7621498  24.0664291  63.5006332  62.5973654
  23.3584356  39.8372483  47.4377728  22.5991940  40.2525520  47.8467989
  22.9840541  39.2077041  46.8215370  24.7475171   3.1151125  45.8775902
  24.1276145   2.3917362  45.7844257  25.0935912   3.2491103  44.9952602
  24.8309374  43.1913567  33.5081291  23.9811921  42.8693867  33.8089633
  25.0521922  42.6271820  32.7671957  26.2609529  34.5850611  64.3413591
  26.8565321  35.0011373  63.7181425  26.8241119  34.3136644  65.0662231
  22.7266622  48.3262539  74.9227667  23.3171678  47.5756121  74.9865246
  22.0304561  48.1374359  75.5519533  47.1591568  27.0373416  32.8916430
  46.2804699  27.0381236  32.5119853  47.1445704  27.7497888  33.5307360
  36.5982938  51.1723232  56.6701460  37.2695589  51.0152721  57.3341990
  36.8502116  50.6103897  55.9373426  26.3903737  60.7024908  44.0783739
  25.7349014  60.6107759  43.3868694  26.4507651  61.6460705  44.2275190
  38.6298060  41.3528442  42.6256895  37.7820015  41.3720465  43.0696392
  38.6180353  40.5389690  42.1220016   9.3820947  10.6004274  73.7606478
   8.9430910  10.0537133  74.4122696   9.0622741  10.2740848  72.9195499
  48.8126135  51.7683458  28.5895920  47.9886770  51.5762424  28.1418610
  49.3428278  52.2192192  27.9324675  20.8299398  50.5653572  61.2924147
  20.7178760  50.9722948  60.4333019  19.9811375  50.6738186  61.7213678
  32.4935961  39.1101718  63.5704279  33.2838202  39.5568800  63.8741207
  31.7856598  39.7301197  63.7457085  31.0580707  54.4547081  56.2062025
  30.6666446  53.8485098  55.5772829  30.3231859  54.9814463  56.5204048
 111.0635258  28.9626305   4.7625256 111.7352034  28.4934800   4.2675686
 111.4958431  29.7667115   5.0502491  32.5092244  31.6162419  62.2528172
  32.8263974  31.5625715  61.3512897  31.6066504  31.9243526  62.1712351
  15.7265449  34.3868899  52.8327131  15.5168760  35.1719117  53.3386946
  15.0888002  33.7358594  53.1254101   3.8224315  99.1826290  69.2845726
   3.5088777  99.6979725  70.0277662   4.7426366  99.4297445  69.1929722
  42.3641682  38.2316160  58.1372070  43.1065178  38.5760403  58.6337090
  42.1431732  38.9301968  57.5212717  25.0789952  17.0201504  67.3843145
  25.9489131  17.4109447  67.4665022  25.0765514  16.6220140  66.5138483
  91.3332463  87.6788066   3.6322403  90.6805802  88.1835102   3.1469154
  91.3721228  88.1003569   4.4907379  32.9408407  17.8977907  54.1327286
  32.0920610  17.5899792  54.4506264  33.0778646  18.7307703  54.5839500
  23.5952330  46.4074516  60.6159973  22.7201390  46.5262079  60.9852362
  23.8011885  47.2504520  60.2120686 106.7095718  51.5364218  48.6132050
 106.4156470  51.8485451  47.7573919 106.5579227  52.2752190  49.2026234
  15.1238906  62.2279072  62.6185703  14.4856513  61.9068480  61.9815397
  14.9797118  61.6874266  63.3953094  11.4630795  53.5318804  14.1924524
  10.9303987  53.3321667  13.4226489  10.8373570  53.8604641  14.8380017
  27.4366736  38.6115146  87.0227718  27.2049475  39.3101025  86.4107990
  28.3528829  38.7799883  87.2427845  51.0904312  20.0053978  27.9825711
  51.6532755  20.3848958  27.3077250  51.5479708  20.1837587  28.8042021
  52.0087410  96.3957094   0.0498009  52.8578413  96.0087799   0.2632236
  51.4897192  96.2889408   0.8469486  55.3048086  23.0514240  78.6290932
  55.2228451  23.6695385  77.9028320  55.3809023  23.6043215  79.4067478
  24.7721577  24.7457814  43.0606318  24.4705296  25.3805494  43.7104940
  25.7014322  24.6258330  43.2563257  37.5100446  47.3849916  60.5932856
  37.5324559  47.4466705  61.5482330  38.3084631  46.9088125  60.3652287
  15.2603030   3.0799490  30.7758474  14.4364452   2.6138309  30.6336355
  15.9256196   2.3918968  30.7888365  52.9882002  33.0934072  36.3831544
  53.2061529  32.2752070  35.9367466  53.7946272  33.6078405  36.3475585
   2.3691124  27.9802561  75.2450991   2.5244614  28.6364031  75.9244919
   1.6195481  27.4777818  75.5643272  21.4226079  46.1140728  37.9269743
  21.5061188  46.8973684  37.3831868  20.7722926  46.3499975  38.5885358
  58.1385899  36.4737320  37.5710917  58.6252689  37.2572756  37.8268814
  58.6673594  35.7459402  37.8981304  52.2682905  72.4895716  62.1476698
  52.6700306  73.0941772  61.5237427  52.6902723  72.6917219  62.9827166
   6.8410331  49.3226719  41.4240932   6.3565189  48.5358667  41.1742640
   6.3848877  49.6485949  42.1999407  69.7647090  76.9814117  88.9454584
  70.3609414  77.4692638  89.5135565  70.0557180  77.1896417  88.0576605
  27.3883057  34.7707152  49.9747229  28.2958508  34.6995282  49.6788692
  27.0990181  33.8644075  50.0802994  16.9257224  80.8358669  35.5690265
  16.5025568  81.2770748  34.8324823  17.6686561  80.3760719  35.1780319
  14.8222494  55.9358644  51.0547733  15.1412141  55.7234240  51.9319057
  15.5817235  56.3094330  50.6077003  37.9420018  24.4463301  39.5784807
  38.7092948  24.7215414  40.0802279  38.1790996  24.6148443  38.6665487
  19.7776508  52.0180941  59.3220186  19.2522883  52.6248550  59.8436213
  19.1353655  51.5108776  58.8255978  45.2982903  52.6442623  22.5861216
  45.1333618  51.8528986  23.0987358  44.6712780  52.5971508  21.8644118
  18.9273309 100.2160156  65.7670546  19.6925878 100.4900816  66.2725258
  18.2067203 100.7363167  66.1223555 103.1396744  43.5398674  52.1356964
 103.7538239  44.0704966  51.6282654 103.2296595  42.6580858  51.7743206
  47.1981859   9.7756553  82.1405888  46.4575911  10.3437495  82.3527718
  46.7995262   8.9990395  81.7479420   3.0296320  17.1958005  76.2741661
   3.2132843  16.2731862  76.0972881   3.6350834  17.4299455  76.9776154
  42.9254532  29.1197944  32.4774289  42.9829788  29.9507260  32.0057559
  43.7541866  28.6794806  32.2888756  18.3635986  32.6329851  39.1612220
  17.4211204  32.7559876  39.0479255  18.7613308  33.2674384  38.5649753
 107.7243045  57.3232555  25.0157261 108.3701706  56.8869066  25.5713224
 106.9225919  57.3278522  25.5386686  32.7485514  21.6769195  80.0329876
  32.4386716  22.3794651  79.4614649  32.5644493  20.8734894  79.5463228
  61.6096164 104.6241449   2.8185272  61.1633969 103.8512634   2.4724483
  60.9531832 105.0544380   3.3664131 110.7268351  59.6306372  77.0387030
 110.6153126  59.4313622  76.1091423 110.8098003  58.7746096  77.4588966
  24.7791672  17.3023462  50.5767155  24.8315167  16.4033055  50.2523470
  23.9239526  17.6142955  50.2808666  36.7190742  63.4897566  74.7353411
  37.6100564  63.7756443  74.9369621  36.6388917  62.6367331  75.1621437
  16.3314700  35.5288529  64.4285917  17.0209312  35.3496075  63.7892580
  15.7991314  36.2123108  64.0214872  26.5081716  71.9070673  54.1576147
  26.3915658  72.8081131  53.8563538  27.3655367  71.6501331  53.8182926
  32.5414419  39.1199565  73.8303185  32.6605511  38.4807587  74.5327902
  32.2021556  38.6083102  73.0959225  43.9968300  29.2235470  64.9616385
  44.4450521  29.4349742  65.7805586  43.0874920  29.0711260  65.2187538
  32.5461578  61.5922785  42.1487617  32.5411797  60.6389523  42.0628786
  31.7381668  61.8755388  41.7208052   3.8844544  42.9515696  17.9822123
   3.5411036  42.0646381  18.0903327   4.5053935  43.0575371  18.7029326
  17.5715268  54.4481802  71.9395351  17.9115939  55.0569057  71.2837601
  16.6910064  54.7705936  72.1318007  39.4340944   1.6096225  54.1932535
  38.6377764   1.4855984  54.7097063  39.6080256   2.5495592  54.2432451
  10.1735628  36.1309814  72.2332048  10.4749358  36.5426779  73.0430889
   9.6278304  36.7967916  71.8147469  13.5697281  18.1064487  38.2863045
  14.3541110  17.9408848  37.7632689  13.7924230  17.7855456  39.1601801
  18.9506805  24.4753075  47.4498796  18.8122499  25.2484131  47.9970312
  18.0746329  24.1104579  47.3247480  98.4383151  51.5044403  61.6525984
  98.2447729  50.8273458  61.0042810  97.6616690  52.0639515  61.6537285
  18.7770379  72.2253275  61.7678881  19.1373610  71.3437939  61.6714811
  18.4438527  72.4443769  60.8976936  22.6078081  73.5853338  48.3749914
  23.3952975  74.1141891  48.2469416  22.8214550  72.7387285  47.9827499
  10.3184187  56.7128181  38.1227970   9.9821883  57.5176382  37.7285337
  10.1819372  56.0427999  37.4529600  24.2041898  61.6262770  51.7734432
  23.4591937  61.0262156  51.8071985  24.4731569  61.6227293  50.8548164
  15.9836221  27.3490381  28.5957623  15.4384327  28.1357551  28.5868955
  16.4649403  27.3818541  27.7690291  58.5504747  88.0788134   1.4946651
  58.0630971  88.6500119   0.9010029  59.3171836  87.8072070   0.9900665
  44.7464561  54.7106171  78.7432957  45.2364922  54.3646622  77.9973650
  45.4162359  54.9149513  79.3958855  82.9852391  96.3826440   6.4067650
  82.1379233  96.2146257   5.9943867  82.7868844  96.9824051   7.1259117
 100.3986260  22.8786635  58.1895351 100.9347352  23.5934591  57.8461933
 100.3194401  22.2660804  57.4583006   1.9625244  53.4520817  76.6555834
   1.0353331  53.2491016  76.7794657   2.0667437  53.5265541  75.7069969
  14.3401897  40.7808542  56.6145468  14.8887563  40.0069380  56.4866447
  13.4835100  40.4297066  56.8575001  30.1569748  38.7011647  84.4197178
  29.4382882  39.0001678  83.8626575  29.8424101  38.8420320  85.3127098
  35.4126573  70.1926613  47.3535633  35.5410409  70.9413671  46.7711592
  34.4731927  70.0143051  47.3108339  45.4269457  51.9959402  79.6735573
  44.7589588  51.6250849  80.2501869  45.3170347  52.9430676  79.7577906
  21.4913607  43.9160728  17.5221896  21.6869402  43.4474421  16.7107916
  22.3077679  43.8827181  18.0207884  15.3532112  11.7387366  84.0333652
  15.3270173  10.8166516  83.7778187  14.8179305  11.7829919  84.8256779
  29.2908788  41.9045496  67.1287966  29.0579462  42.2261810  67.9997349
  28.6193871  42.2682190  66.5516710   9.3968815  49.1581917  61.8255138
   9.7037220  48.5262966  62.4757338  10.0872076  49.8203611  61.7906666
  23.0625892  12.0801079  51.6790962  23.0373669  11.9016492  52.6191759
  22.5644398  11.3635731  51.2858343  15.7565272  27.1883678  49.8653507
  15.9384596  26.2499785  49.8147726  14.8818398  27.2423482  50.2503681
  40.6385612  24.1590452  82.3993587  39.9393415  24.8110676  82.3525524
  40.8999872  24.0224147  81.4887428   4.7289336  58.9698505  52.5696135
   3.8090461  59.0243340  52.8285933   4.7085807  58.9671993  51.6126347
  52.5795603  36.3448024  35.3528357  52.1206474  35.6617975  35.8418536
  53.0086470  36.8737173  36.0254145  16.7714596  20.4678011  38.0177522
  17.1840298  19.6068394  37.9487324  17.3282015  20.9519935  38.6275291
 111.4712068 102.8999403  78.1524801 110.8292075 102.3345995  78.5819626
 111.6555735 103.5846014  78.7954998  40.9310150  10.7074237  60.7043409
  41.4383650   9.8963457  60.6729889  40.9614706  10.9736121  61.6232824
  24.6583915  50.0269079  41.6895437  24.6726799  49.6239805  42.5576878
  23.7872243  49.8269796  41.3470078  42.3766804  55.9180212  74.6638870
  42.8526926  55.1742172  74.2945719  42.8794909  56.1622143  75.4409218
  47.1714830  25.9484911  23.8194561  47.1798754  26.3891649  24.6691418
  48.0956221  25.8080649  23.6133432  23.5611200  12.5920630  68.2533598
  23.2871413  12.5175834  69.1674852  22.7753139  12.8831625  67.7907610
  65.5596876  20.9293389  49.0898561  65.1910830  20.7339931  48.2283449
  65.0372887  20.4064393  49.6980524  19.6549356  26.1650348  72.6301479
  20.3818750  26.7691588  72.7812386  18.8704813  26.7040277  72.7318811
  27.7014375  53.8166046  61.1354017  27.9770279  53.6217594  62.0311213
  26.8566275  54.2555046  61.2348461  40.9533358  47.6252699  33.8033485
  40.9147120  46.6883612  33.6111450  41.8856239  47.8073311  33.9213300
  19.9504769  33.5643411  81.7206287  19.3024206  34.0581059  81.2181854
  19.6151984  32.6678133  81.7283249  25.5305815  46.5345955  48.2702494
  25.5985832  47.2707844  47.6622725  24.6092391  46.2777090  48.2332325
  27.9547811  70.8443022  61.4196920  27.5787258  70.2966499  60.7305670
  27.2370601  71.4178991  61.6881943  42.5029087  31.2469983  49.2726278
  43.2014418  30.7566190  48.8392591  42.0474100  31.6953659  48.5600853
   0.4221939 100.6707522  64.3477392  -0.1903439 101.3350445  64.0319157
   0.2343392 100.5972779  65.2834463  51.0884285  30.4651403  52.6307344
  50.1727438  30.5871367  52.3799801  51.1034155  30.6345296  53.5727072
  23.8959193  71.2580729  34.6579218  24.1078949  70.3553772  34.4203544
  24.7465301  71.6857004  34.7570682  23.4713483  84.5925522  65.9698915
  23.8475966  84.6199608  65.0901651  23.3034825  85.5095005  66.1872768
  31.3008690  54.3776369  41.4845419  31.8931079  53.6328411  41.5882921
  30.8086157  54.4083071  42.3048973  32.3573160  29.5672202  85.8594322
  33.0066681  28.8704181  85.7643414  32.7599216  30.1886511  86.4660263
 108.1672132  45.1404572  44.3065882 107.7256837  44.2979145  44.1998053
 107.5079969  45.7892513  44.0601492  29.0919042  54.6392536  51.9673729
  29.0096855  54.6059132  51.0142946  28.1969523  54.5302105  52.2889376
  41.9119883  55.1915073  62.5214481  42.3435307  55.8564138  63.0580139
  42.4442291  54.4049311  62.6408291  23.5467029  51.3902092  55.6964922
  23.1605172  52.2371340  55.9196663  22.8740835  50.7509279  55.9313011
  73.3977127  21.6800165  60.5096912  72.5255966  22.0426607  60.3543377
  73.7248373  22.1603489  61.2702847  25.8836961  21.8776560  37.4068308
  25.7205701  21.1455607  38.0015230  26.1089659  22.6083589  37.9826427
  58.9193058  33.0907726  31.1289859  59.5480871  33.8054633  31.2294197
  58.8925695  32.9259634  30.1864600  17.1200800  46.1741495  42.3997927
  16.8800402  46.5332699  41.5456009  16.9831288  45.2310467  42.3101759
   4.0136600  66.4079380  62.2564030   4.5815766  65.8848381  62.8221464
   4.3521494  66.2588692  61.3735437 109.5021513  52.8164625  66.1099958
 109.6174371  53.5393286  65.4932261 110.3441533  52.3612213  66.1055422
  14.2694712  34.6622920  29.7467470  13.4200799  34.8967624  29.3728614
  14.9062884  35.1303887  29.2067623  20.7311201  25.7956195  45.2394962
  20.6484461  26.7452717  45.1525402  19.8695910  25.5067539  45.5404186
  22.8746653  46.0479259  58.1283760  23.2799649  45.9945250  58.9938927
  22.5250816  46.9377995  58.0820990  36.5701985  20.3126383  64.5345688
  37.3970079  20.1557994  64.0784740  36.3182139  21.1990261  64.2756271
  12.2424066  62.8426361  59.4563246  11.5656614  63.2566643  59.9918890
  12.6003504  62.1521711  60.0143290  31.2760568  42.8478241  48.3994579
  31.6163111  43.0320978  47.5239563  31.9243288  43.2268286  48.9930344
  18.2417357  61.2947130  46.9094133  17.7422321  60.7545710  46.2970591
  18.9357305  61.6821051  46.3759947  32.6590657  29.8441887  70.7024145
  32.7387047  30.3527904  71.5093946  31.8638396  30.1774621  70.2867508
  41.3683271  28.8561463  46.1699963  42.3045206  28.8147688  45.9748888
  41.1322594  29.7712803  46.0182238  45.0610733  57.9796696  61.0004902
  45.9801865  58.2451963  61.0315084  44.6189165  58.6993694  60.5501986
  46.1499691  87.7690983  63.1374598  45.3721476  87.3610306  63.5178661
  45.8628416  88.0767441  62.2777271  18.3309031  61.0413361  59.6917152
  18.4312439  60.9516668  58.7440205  18.1583405  60.1515627  59.9995422
  27.6962519  75.5022287  50.1369762  27.5098348  76.4318657  50.2683544
  27.5711274  75.1084995  51.0004282  40.8254671  71.4854860  60.1861429
  41.3581610  72.1857405  59.8091555  40.9158182  70.7580042  59.5706463
  28.1891918  66.4798164  57.0769548  27.5392318  66.0986280  57.6672792
  28.3722472  65.7867527  56.4426136  27.1349835  91.3008785  29.7788763
  27.3278356  92.1831322  30.0961685  26.3053441  91.0717392  30.1977134
  39.8922563  46.2261677  60.4709053  40.7201242  46.2660837  60.9497261
  39.5864272  45.3277731  60.5957747  22.2076082  48.2439232  52.6655626
  22.5428438  47.3924065  52.3849058  21.2557149  48.1458139  52.6430941
  34.2390513  74.4770908  64.3384981  33.3404803  74.5502281  64.6601391
  34.1557646  74.5101929  63.3855009   6.4878941  51.5640974  59.4743872
   5.5464500  51.4278460  59.5809221   6.5613246  52.1507215  58.7215853
  21.4631605  85.1017952  76.7928600  22.3437953  85.2598858  76.4526939
  21.4889836  84.2007732  77.1149158   5.8249259  53.7198734  80.2184582
   6.2073588  52.8496361  80.1059532   5.0417155  53.7102652  79.6682549
  35.9356356  79.8352242  53.8130093  36.0114074  78.9086008  53.5852718
  35.4224849  80.2158546  53.1002474  35.9615850  57.0070219  42.4725389
  35.0247550  57.1315622  42.6244211  36.3597083  57.1063042  43.3373356
 110.6751642  44.2923498  73.6200380 111.5412242  43.9241028  73.7948656
 110.3825590  44.6288633  74.4670200  35.6661105  34.6469092  10.9073031
  36.4038944  34.5671821  10.3026962  34.9192119  34.2975998  10.4211390
  12.5678301  73.8842010  73.3997440  12.3122811  73.2435179  74.0634060
  13.0502939  73.3749771  72.7484751   4.7720230  64.9349403  69.7268867
   5.6510538  65.2681017  69.5465040   4.8043326  64.6572161  70.6423426
  36.5430093  49.4381142  69.0284061  35.9680676  48.7167025  68.7729931
  35.9462810  50.1526642  69.2510319  32.8198266  73.0321836  57.3952532
  33.5327363  72.4428940  57.1488094  32.0787334  72.4518967  57.5692606
  28.3532071  72.7829933  47.6715755  28.4905744  72.3491049  48.5136557
  28.2977533  73.7137651  47.8879547  27.1291804  69.1471958  44.6036005
  26.7716694  70.0024033  44.3647718  26.5323091  68.5169411  44.2001772
  34.1256452  49.2222357  77.5244188  34.6610332  49.9655771  77.2468567
  33.7169337  49.5126534  78.3398008  20.8868122  61.3227177  60.1321745
  19.9377918  61.3232279  60.0072956  21.2256598  61.8306446  59.3949986
  50.6916809  84.0745163  41.9324255  50.1401377  83.4371376  42.3860645
  50.1540279  84.8649597  41.8839502  33.5433216  75.4744457   4.1949272
  33.0453775  75.7068537   3.4111786  34.4588465  75.5864357   3.9389896
  21.9094491  55.5189848  54.0020418  22.8613400  55.5793524  54.0825987
  21.7485356  54.6137142  53.7359095  35.9757090  55.7559443  58.1841087
  36.6218781  55.7323217  58.8898993  35.2182198  55.2892590  58.5371637
  30.9394884  82.5107861  65.6203842  30.0721192  82.1976089  65.8769417
  30.9978461  83.3891582  65.9962797   1.1838789  68.4258795  73.0398464
   1.1005773  69.1093588  73.7047863   1.3041945  68.9035702  72.2191334
  43.8098860  39.1484475  34.1901612  43.8072634  38.3299351  34.6864080
  43.0064774  39.1162419  33.6708069  18.9300644  52.0544863  54.2392921
  18.4486794  52.4942589  54.9400759  19.0580416  52.7317238  53.5750580
  32.2405338  73.4138536  68.1960344  32.2585320  72.4646091  68.0742311
  32.4230289  73.7703848  67.3266554  28.4068441  91.6732311  43.9764404
  28.5326362  90.9782410  43.3303833  28.5769463  91.2511063  44.8185253
  15.3598964  83.3425808  59.4464445  14.8338461  83.1114197  60.2119970
  15.9765959  82.6167011  59.3515539  51.0070753  72.0499277  54.4923019
  51.1834097  72.3272276  53.5932779  50.1078081  71.7227459  54.4700146
  33.5671282  43.9122725  44.0318680  33.3432508  44.5909309  43.3950520
  34.3041825  43.4467077  43.6366081  43.7946987  87.9574776  55.5135775
  43.0465078  87.5379467  55.9383583  44.3178654  88.3031940  56.2367773
  44.0483522  68.1461763  68.3022738  43.9680767  67.1925116  68.3199310
  43.1992531  68.4521484  67.9834509   9.6430320  97.9298306  58.6680746
   9.0107936  97.4223328  59.1769457  10.0993145  97.2787094  58.1350803
  16.9156802  45.5590010  48.9737177  17.6357448  46.0722589  48.6072445
  16.7715037  44.8595285  48.3363914  55.6950521  73.8201809  67.0425415
  56.5405226  73.3729887  67.0803547  55.5081797  73.9004517  66.1071968
  29.7718072  87.5574398  43.5969162  28.9316154  87.6838207  44.0377617
  30.2554870  86.9619942  44.1693974  31.9771767  92.3450947  53.2702684
  32.6945853  91.8938923  52.8253269  31.4021850  91.6417027  53.5717106
   0.0163588  53.8915539  35.2692652   0.8854021  54.2727613  35.3944659
  -0.0727642  53.2591534  35.9822607  42.7576542  59.5004463  68.1620264
  42.1246099  60.1697397  68.4219027  42.3218632  59.0186787  67.4590206
  49.3753099  62.2084761  68.1828451  48.9872074  62.1163082  69.0529680
  50.3101444  62.0552492  68.3200979  97.8066549  42.1328497  74.1731071
  98.6187968  42.5818157  74.4078112  97.4284098  42.6702499  73.4771442
  43.6455154  57.0054197  63.4401321  44.2685270  57.1305370  64.1559792
  44.1233397  57.2771883  62.6565123  18.2067382  27.9261661  55.5478621
  17.3853421  28.2604718  55.9081078  18.7668157  27.7925229  56.3125086
  44.7929764  65.8578444  71.3344479  44.7145605  65.1502419  70.6946182
  44.7500896  65.4185772  72.1838236  86.0211195  33.8052933  13.1109524
  85.1536860  34.2099564  13.1169128  85.9063388  32.9856198  13.5917759
  37.8729892  91.5003395  48.5400724  38.7484598  91.1146832  48.5075951
  37.8184962  91.8979168  49.4090939  60.2947521  82.7659225  58.5548830
  60.4398298  83.4141064  59.2441177  60.7379198  83.1286049  57.7878809
  47.7222633  61.8552256  58.8841057  47.2444391  61.7083216  59.7003984
  48.5836887  61.4671612  59.0376520  26.1104298  50.0190926  31.1963224
  25.4556918  50.0837183  30.5010724  25.9291935  50.7664824  31.7662263
  32.8573751  52.2379065  66.2478113  33.1500077  51.4316654  66.6727495
  32.5397420  51.9550228  65.3903055  45.5716419  35.0599837  71.3121176
  46.4663029  34.9950027  70.9780693  45.3402758  35.9819412  71.1994362
  31.7024779  44.1610432  52.5351286  30.7573628  44.2718983  52.4316740
  31.8464279  43.2207489  52.4285316  13.1542873  22.9183483  35.1928735
  12.5660419  23.4963179  35.6788254  13.4488118  23.4457469  34.4503546
  53.3352613  83.6314964  54.6769094  53.3124685  82.9422569  54.0130901
  54.0352345  84.2177486  54.3895340  30.7437420   7.1911705  68.6004686
  30.4313374   7.3730189  67.7141476  30.1594353   6.5057099  68.9244461
  25.4733109  36.8622446  86.3105106  25.6269884  36.7591476  85.3713703
  26.2302661  37.3570871  86.6241741  25.8165240 101.3881874  53.2263088
  25.0565958 101.5844250  52.6783752  25.6812716 100.4835129  53.5082912
  50.5422497  16.9893491  31.0574174  50.0047970  16.5363872  31.7071915
  49.9150324  17.4864674  30.5323410  47.6447678  64.4228506  57.1562481
  47.8038931  64.0241575  56.3007069  47.5199080  63.6801910  57.7470922
  46.4494562  61.1222601  61.8157673  46.6139269  61.8949842  62.3562098
  47.1909904  60.5435991  61.9932652  72.0968843  21.3614959  75.4039049
  72.6441503  20.5940455  75.5704832  71.1998606  21.0308284  75.4512024
  18.6366451  68.4252787  49.9632978  18.1209373  67.7526808  49.5184565
  18.8148212  69.0775919  49.2858219   7.6051861  36.8202686  79.2339611
   7.6262093  37.6418591  79.7246504   7.2473353  36.1818957  79.8509312
  32.2193694  45.4077482  54.9861050  32.7692318  44.7694302  55.4404593
  31.9630837  44.9688005  54.1750097  57.4285078  71.1423826  62.9594994
  56.8163347  70.8643723  63.6408091  57.3364973  70.4833651  62.2714138
  47.0646906  27.7604938  84.9614906  47.7296019  27.1360683  84.6712875
  46.3342381  27.2146010  85.2524853  10.1066732  75.8577204  21.7841220
   9.5379859  75.5700111  21.0699415   9.6389854  76.5921974  22.1816635
  46.3387346  56.9279575  68.1780672  46.1202240  57.0788479  69.0976954
  46.2751579  55.9790802  68.0693531  38.6475372  76.1649179  55.5360365
  39.3893552  76.7268276  55.7600689  37.9119802  76.5326786  56.0258722
  40.5286598  61.5225458  53.7571430  40.0662041  60.7273912  53.4923792
  41.3998461  61.2191582  54.0125322  42.2290087  50.1929188  62.9642820
  42.0156574  50.0121450  63.8797235  43.0930758  50.6035185  62.9963064
  72.9779577  72.4536419  74.3506622  73.4130096  73.0782938  73.7703419
  72.9385567  72.8999186  75.1965475  25.2781105  50.5042648  78.5170746
  24.8400354  50.8172464  77.7256393  25.7384181  49.7124720  78.2388353
  70.2628279  72.2008753  78.7088919  70.2050257  71.2600136  78.8752365
  69.5087385  72.5718832  79.1670799  28.2284808  63.2164764  67.0863247
  27.5780654  63.0805111  66.3973379  28.6524320  62.3642111  67.1870422
  23.4710479  54.0090322  71.9769859  23.5941815  54.7303963  71.3599730
  22.8982615  53.3954620  71.5169048  68.0547857  82.7414227  59.7284508
  68.0069017  82.1995926  60.5160809  68.5443544  83.5174847  60.0010061
  30.3136587  40.1848412  21.2016511  29.4084024  40.1405144  21.5095091
  30.2736831  40.7336521  20.4184270  29.5708179  56.6138172  70.7784271
  30.1670289  57.2885227  70.4535627  30.0067639  56.2626410  71.5548658
  42.8698730  47.4063730  88.4136105  43.3439016  47.9198599  89.0677166
  42.0869637  47.9235888  88.2244682   8.7107658  55.8342075  47.6543236
   8.7259239  55.6906796  48.6005831   8.1735951  56.6181135  47.5395489
  31.8125248  68.8877201  72.5743818  31.1728501  69.4882965  72.1918201
  32.0677018  68.3163691  71.8500376  43.0741549  62.0286655  55.8570147
  42.7696657  61.2756824  55.3505182  43.9955378  61.8404770  56.0355186
  50.4579878  62.4559355  57.7977610  50.2785254  63.3453035  58.1027985
  49.8075771  62.3019171  57.1125746  46.0281038  68.7968683  61.5272665
  46.3496113  69.6520329  61.8128443  46.1741686  68.7897587  60.5813026
  22.5242257  83.0051613  27.7481484  22.2589064  82.8119946  28.6473274
  21.7197442  83.2951736  27.3181057   7.0754248  68.6334181  34.0359187
   7.9580462  68.9110327  33.7906814   6.5361714  69.4149113  33.9146304
  45.0941515  88.9883900  57.7283716  45.9645271  89.2670441  57.4437094
  44.8857021  89.5664597  58.4622717  53.0456114  96.3424683  50.7180977
  52.1151972  96.5520382  50.6365824  53.2257366  96.4128494  51.6555595
  16.1260736  50.6246281  78.8567352  16.9317698  50.3147125  78.4431648
  16.3575697  50.7356739  79.7788572  91.1750603  94.4963932  70.3857088
  91.6885948  94.0263367  71.0426474  90.2864552  94.5102310  70.7412577
  39.1636896  67.2634125  68.9259338  40.0000954  67.7171612  68.8221502
  38.6234760  67.5892925  68.2060719  30.2903366  66.0538816  58.6713362
  29.4593096  66.2112665  58.2231665  30.7999468  65.5293798  58.0537415
  54.6807194  90.2977943  74.6266127  54.3018198  89.6466064  74.0361643
  55.6174994  90.1011753  74.6305847  72.6762486 100.3822327  61.3389349
  72.0495367 101.0892200  61.4926815  72.3444510  99.6506405  61.8594265
  62.3744488 103.3850956  63.4861326  63.1221151 103.3687019  62.8886747
  61.9114971 104.1940880  63.2683134  78.1226015  80.9670353  65.3106594
  78.2249975  80.1929760  65.8643579  78.4367180  80.6892586  64.4501972
  78.6308575  70.8393145  78.4770584  79.2996740  71.3557529  78.0273819
  79.0908575  70.4448414  79.2180157  32.8282094  84.9892998  51.9276714
  32.9857135  84.3279552  51.2538433  32.5608301  84.4876289  52.6977825
  60.1870441  84.5849419  40.0658941  59.4654179  85.1794243  39.8607683
  60.6094599  84.4211102  39.2227149 103.5869695  33.5445206   4.3216515
 103.7113620  32.8755086   3.6484623 102.8238250  34.0416329   4.0271568
  49.6589708  71.1817169  58.3440542  49.7932959  71.0037661  59.2749262
  49.8229694  72.1204090  58.2535458  72.8704405 101.9002056  88.9816189
  72.1967936 101.6111755  89.5971680  72.5702810 101.5807629  88.1306839
   9.4088197  92.5353336  27.9098415   9.7036397  92.2921181  28.7874293
  10.1665044  92.3709106  27.3484945  66.7905903  72.8716660  46.6895008
  65.8447552  72.7251148  46.6773033  66.9103956  73.6134768  47.2824574
  20.4504065  22.0309441   2.8314400  21.1917405  22.5821965   3.0819988
  20.3096871  22.2254508   1.9048405  82.5474644  91.6155720  65.9923840
  82.0218945  90.8173275  65.9392500  82.8018475  91.7955399  65.0873280
  57.8939390  69.3647051  67.9375505  58.3588266  69.4007158  67.1016026
  58.4500885  69.8558998  68.5422468  92.1777725  77.8286028  88.4169483
  91.8884373  77.0176077  88.8350487  92.5826931  77.5443792  87.5975132
  42.4850035  97.5809956  49.3611765  42.1173668  97.3363018  50.2104092
  42.2671509  98.5079956  49.2640066  61.5929890  93.4369659  34.5228267
  61.5988159  93.8988209  33.6844468  60.6654263  93.3539581  34.7441077
  67.3541641  95.3895569  77.9275179  66.7096853  96.0814190  77.7785015
  68.1625557  95.7283783  77.5429010  66.9781351  67.6393652  71.5921879
  66.4674187  67.8640652  70.8144283  67.8613901  67.9527140  71.3975000
  55.8722591  78.1652498  57.3521996  55.1075935  78.5947323  56.9687128
  56.3215828  77.7661800  56.6071606  42.9719877  73.3315086  30.5097914
  43.1171179  74.2510843  30.7323718  42.5741243  73.3556318  29.6395302
  36.8854642  61.2644482  54.3743515  36.0700345  60.7776690  54.4941521
  36.8223763  61.9930840  54.9918795  68.9577389  78.4820223  24.7929907
  69.5128107  79.1816807  25.1373816  68.0727100  78.8460350  24.8142171
  50.1569796  95.3136063  66.4300346  50.7815695  95.2741241  65.7057667
  49.3096590  95.4559517  66.0081100  96.0501194  80.4773140  64.3262243
  96.8997478  80.8582687  64.1043472  95.6768227  81.0817146  64.9677753
  58.3636904  83.5285282  55.5243111  59.1554451  84.0326023  55.7121086
  58.6595726  82.6185703  55.4985285  42.5241947  72.0912218  56.7511034
  42.1694326  71.2122679  56.8845892  41.7669201  72.6705456  56.8356848
  59.0855360  79.2261362  50.8571911  58.2655144  79.0664911  50.3899527
  58.8666773  79.0888596  51.7788696  60.7897949  62.4243546  51.1374617
  61.3954544  62.4912405  51.8756580  59.9858999  62.8403807  51.4487600
  34.1903186  71.5306187  63.0648232  33.8636494  72.2888851  62.5805187
  34.6191573  70.9895563  62.4018145  21.6503620  79.2113018  89.6008396
  22.5751328  79.3785667  89.7826385  21.6445518  78.3710575  89.1423798
  60.0258064  58.9944220  82.9700756  60.8566666  59.4044685  82.7297306
  59.9748611  59.0956354  83.9205456   5.1700214   0.6577987  60.5928564
   6.0200886   0.6006259  60.1565647   4.5667747   0.2069015  60.0020742
  30.3201604 103.0358696  67.1471643  29.8530054 103.6117744  67.7524137
  29.6298003 102.6232624  66.6281319  28.8298965  52.5993109  76.6310072
  29.3091536  53.1824160  76.0423374  27.9927683  53.0403233  76.7757702
  33.9424682  87.4450207  51.4759398  33.3252645  88.1416512  51.6995335
  33.4684157  86.6352367  51.6650200   9.7222400  97.6045895  44.0826511
   9.0931404  97.1605396  43.5140705   9.2352831  98.3434391  44.4476271
  48.9279890  70.1520061  65.1182604  49.7376633  70.5928469  65.3757811
  48.2813787  70.4442835  65.7606792 104.2870331  46.8365097  57.7190638
 103.4750748  46.3388729  57.8155518 104.9637985  46.2625551  58.0779314
  18.7814748  94.9083710  58.8473225  18.3224308  95.6521893  59.2375135
  18.4459412  94.8627281  57.9520226  17.0383501  93.3345318  52.7543879
  17.8733516  92.8839779  52.8809023  16.6380525  93.3456421  53.6237955
  46.7845106  89.1488361  28.1216788  46.0929298  89.7167778  27.7819729
  47.3049498  88.9185524  27.3520422  69.2414474  66.2161684  33.8849425
  68.2924080  66.3320398  33.9311075  69.5890188  67.1063280  33.8297820
   6.6835216   8.1389064  49.4497442   5.8705715   7.7121467  49.1791725
   7.3747066   7.5444812  49.1579056  81.9431877  55.3577423  89.3995953
  82.1220970  54.4634628  89.6902752  82.8006363  55.7063723  89.1557217
  33.4691906  86.9309711  56.5765572  32.8798151  86.1952877  56.4103222
  33.1880999  87.6070881  55.9600496  59.9976635 105.2736282  51.9705057
  59.1204643 105.0410843  51.6660690  59.8800087 105.4934502  52.8946638
  64.8051167  65.0583029  48.7116003  65.5735922  65.5245686  49.0406609
  64.0927887  65.3332424  49.2888594  39.1455245  77.6000929  34.2646337
  39.6764135  77.3004341  35.0025964  39.4413519  78.4963417  34.1050839
  50.5069637  75.4441261  69.3851280  51.3668156  75.8635569  69.3540478
  49.9794292  75.9321356  68.7528419  46.0591221  65.8939743  61.5187073
  45.1850843  65.5853367  61.7575312  46.0279417  66.8392277  61.6662169
  24.8258495  76.4585781  57.2495651  24.1944861  77.1738577  57.3269320
  24.4273400  75.8540201  56.6235209 111.0639096  16.3180083  50.5702829
 111.8128968  16.0403270  51.0976791 110.3049899  15.9393615  51.0140181
  41.0535097  67.1997738  49.2822695  40.9833622  66.3010597  49.6041679
  40.1866531  67.3950624  48.9263821  99.3769074   0.2938575  50.6042814
  98.6670876  -0.1272946  51.0890627  98.9366294   0.7693500  49.8997974
  50.4406881  67.1429110  65.9080076  49.5825386  67.0694780  65.4903698
  50.9786367  66.4852142  65.4672337  -0.0430532  38.6509984  16.8533421
   0.8840875  38.4162228  16.8143463  -0.0625129  39.5851796  16.6455746
  71.2656879  67.8116512  67.6392698  71.2415552  67.1334314  68.3142996
  70.7321358  67.4595690  66.9268179  38.0143952  58.4531879  67.2992277
  38.9615321  58.4957552  67.1674919  37.8626513  57.5826979  67.6672697
  88.7907505  51.4712000  47.6694870  89.6820641  51.4016438  47.3274946
  88.8569736  52.1052599  48.3834982  66.8581152 104.9857712  57.0541334
  67.5244904 105.5787659  57.4013090  66.8603611 105.1488400  56.1109304
  53.0064058  73.3039379  72.1438789  53.4717703  72.8215361  72.8272200
  52.4635601  73.9314985  72.6210833  18.6613321  64.3708134  50.2232027
  17.9422390  64.3645525  50.8549452  19.0543926  63.5013437  50.2990866
  39.5792031  75.8798313  69.3226910  38.9475298  75.7583761  70.0315428
  39.1813970  75.4425526  68.5698462  53.3781815  93.3191490  71.7095613
  53.7957096  93.8607597  72.3793030  52.4720383  93.2294655  72.0046759
  33.7345672  68.8468409  51.9046926  34.3084431  69.6121597  51.9392252
  33.5918522  68.6964560  50.9702158  18.4025291   4.4081706  23.3972692
  17.7311424   3.7318725  23.3073616  17.9301170   5.1721877  23.7279344
  35.2665997  64.5752096  46.9442606  35.5480337  64.6909523  46.0367203
  35.6466389  65.3202677  47.4097538  36.2536407  67.0569086  77.8703213
  35.5723906  66.7873907  77.2542953  36.6874886  66.2409306  78.1196976
  69.7366095  84.8760891  71.4942789  70.1461411  85.3754711  70.7877874
  70.4343939  84.3089199  71.8223667  81.1658382  72.5919342  73.4223318
  81.6306686  72.7389908  72.5985956  81.3879108  73.3510303  73.9614820
  32.2194672  84.7125244  84.1994858  32.7361703  84.0038586  83.8160419
  31.3139272  84.4959736  83.9773750  71.1741161  56.3839436  41.9134474
  71.2138176  57.2590113  42.2993422  72.0748425  56.1980724  41.6481733
  41.6963243  84.8627567  56.3941431  41.2310696  85.6588173  56.1371040
  41.0345936  84.3306923  56.8360090  55.3493547  77.9772711  29.0330172
  55.1468658  77.9380465  28.0983043  54.5131350  78.1832409  29.4508004
  71.6580153  66.7792082  53.7616539  71.6507101  66.9728804  52.8242826
  70.7743788  66.9971752  54.0581512  33.3948088  87.5239944  45.2661133
  33.1942749  86.9911766  46.0356045  33.3570004  88.4263706  45.5831623
  70.2678753  13.5787791  68.5365248  70.8606554  13.2100028  69.1913891
  69.4877363  13.8271064  69.0324545  39.7357512  76.7596149  73.5284233
  39.7608089  77.2318888  74.3606281  39.7804761  75.8360004  73.7757397
  58.6931801  74.5343971  53.1227016  58.8294220  75.4794788  53.1897068
  59.1657448  74.1706038  53.8714123  96.3487339  96.1225033  31.8630743
  96.4841938  96.1957264  30.9183407  96.8205070  96.8695450  32.2312951
  81.0269260  77.7415895  78.4070110  80.9429264  78.6736965  78.6078978
  81.9051075  77.6546764  78.0362368  61.5161896  65.4794121  60.4089117
  62.1787500  66.1545801  60.5551720  61.5595818  65.3007603  59.4695330
  67.6303149   0.2499217  46.8323612  67.7110506   0.1199073  45.8874750
  66.7732502   0.6609458  46.9452047  14.0786195  69.9187899  56.3915062
  14.3712103  69.9036169  55.4802465  13.9055419  69.0013885  56.6027975
  60.0081921  71.2157059  69.5647526  59.7721863  72.1408510  69.4966507
  60.9650326  71.2139130  69.5909119  65.1210403  71.9762611  73.7116861
  65.2872133  71.2408209  73.1219864  65.4875898  72.7349615  73.2575369
  22.5452518  67.2580338  35.9965611  23.2392907  66.9162798  36.5602493
  23.0090308  67.7307987  35.3054500  61.4014530  77.1489191  58.8853455
  60.4505014  77.2006273  58.9815426  61.7307663  77.1017694  59.7828770
  67.9925394  86.1440945  47.5031853  67.2955179  86.6179562  47.0494795
  67.7273560  86.1508083  48.4228945  29.5839477  69.3666077  70.6504345
  28.9675808  68.7386322  71.0272217  29.1352725  69.7079182  69.8768520
  66.6186571  78.5341549  71.9787025  66.9096947  79.2778397  72.5063944
  65.6912661  78.7052107  71.8146467  59.9112511  89.2074013  62.2155714
  59.6832323  88.4377384  62.7369690  59.2487049  89.8583317  62.4469948
  69.1247606  98.7292576  61.1258173  68.4907246  98.2346821  60.6065607
  69.8640203  98.8669109  60.5335522 102.6464701  11.6227359  85.3008080
 102.6241446  11.4392585  86.2399960 101.7263366  11.7101020  85.0518990
  43.8035822  81.2088013  46.1126804  43.1382656  80.8931065  46.7241764
  44.6155071  80.7971954  46.4086580  48.9891815  56.5530586  61.9466591
  48.6409569  57.2036886  61.3370275  48.6055660  55.7249451  61.6580439
  27.1719527  51.0708046  60.5688906  27.3015237  52.0136356  60.4663610
  26.7320538  50.9800100  61.4141560  51.9496202  75.5172634  65.3939915
  51.0933065  75.9365511  65.4786015  51.8767023  74.7166967  65.9136105
  48.3016920  83.9450836  38.7209344  47.6440001  83.5347271  39.2824388
  49.0972996  83.4346199  38.8714862  16.8835914  71.6175985  43.7177944
  16.0806358  71.6211462  43.1967545  17.5412464  72.0150137  43.1470156
  12.3809516  79.2483568  44.9050951  12.1846712  80.1215744  45.2444983
  13.0432820  78.9022160  45.5032063  59.2253065  62.4312973  44.0880680
  60.1406527  62.4286032  43.8081169  58.7324953  62.2103071  43.2977962
  70.4638910  85.4739571  53.6508560  71.0727310  86.0400581  53.1764364
  70.9909105  85.0889492  54.3510342  30.5389786  91.1452675  62.1514511
  29.9282479  90.6007957  62.6482201  29.9897528  91.5992928  61.5123510
  59.7397518  70.2820301  40.0753403  60.6894922  70.3441763  39.9735332
  59.5632315  69.3417692  40.1065636  25.5483437  86.7150688  40.8183384
  26.1477280  86.2799931  40.2119732  24.7237968  86.7779446  40.3362608
  35.1643658  94.4859791  47.8811932  35.6117320  95.0506973  48.5114288
  34.3026137  94.8873901  47.7694511  57.2122335  66.7644310  69.0927219
  57.3029327  67.7172613  69.0819693  57.3900127  66.4967251  68.1910801
  35.5719614  77.0392799  73.7296963  35.7666922  77.3308039  74.6203852
  35.2639031  76.1390591  73.8342905  18.0629253  87.3262596  75.9992027
  18.8852334  87.6284504  76.3848448  17.8523946  86.5261555  76.4805937
  76.4827013  78.8734674  89.4892311  76.7025709  79.7643805  89.2168999
  77.2929573  78.3787584  89.3668461  58.5521221  79.0252113  39.4140124
  58.1638670  79.7279739  38.8928437  59.4635105  79.2918491  39.5344949
  64.6627617  89.8423195  70.3230953  65.1963758  90.5802155  70.0281239
  63.9824915  90.2406216  70.8660650  39.1657829  62.5867558  77.0897150
  39.9598479  62.4756575  76.5668869  39.2867136  62.0003128  77.8364992
  63.7734652  72.4346447  46.7083073  63.6673117  73.3856249  46.7326498
  63.1729984  72.1441031  46.0218287  80.7907104  65.8046246  66.5229177
  80.1378536  65.1872635  66.8528843  81.0142231  66.3447428  67.2809029
  51.3441038  81.2751961  72.9159212  50.9974766  81.9498730  72.3320532
  52.1509886  80.9829998  72.4919128  48.2199049  89.6076870  81.1071873
  48.8971090  89.2211246  80.5520344  47.7381849  88.8572502  81.4550781
  49.9747467  89.9385452  38.4886813  49.7671366  90.8304596  38.2100868
  50.4938364  90.0510693  39.2849970  12.1082878  80.3319836  72.3967218
  12.7443779  79.6276426  72.2721338  12.6015007  81.0253525  72.8351498
  54.6541834  91.4799500  36.4506960  55.5052090  91.6040707  36.8709087
  54.2527342  90.7563782  36.9318604  65.8483601  65.2055979  70.8896112
  66.3780546  65.9346390  71.2123489  66.2768745  64.9399853  70.0759411
  69.8721313  94.7332573  81.6212463  70.1514101  94.9674129  80.7361412
  69.5726395  93.8272285  81.5460682  78.7097025  67.4076128  45.2875423
  79.0473652  68.0746174  44.6897793  78.5519886  67.8775740  46.1063814
  57.8860950  88.7912273  64.0061331  57.1013260  89.3350410  63.9380026
  57.5590897  87.8925705  63.9647484  59.9590921  91.6994381  69.3490219
  59.7798538  92.5839138  69.6680975  59.8779583  91.7669964  68.3976650
  62.4502516  66.2630463  66.4038086  61.9125032  65.7757092  65.7796574
  63.0761814  65.6189156  66.7347813  21.1786222  76.2535477  58.8848066
  22.0550561  76.5528727  59.1266727  20.5987954  76.9643116  59.1583872
  47.8893852  89.1528606  59.7643232  47.0059681  88.8707256  60.0014019
  48.3056402  88.3661461  59.4121313  33.3292675  74.1259289  46.7772007
  33.5307622  73.5650444  46.0281706  32.4150729  74.3785715  46.6481733
  34.6688437  67.3904276  54.2670059  34.0161109  66.7906094  53.9059067
  35.3157210  67.4892521  53.5684252  61.5927315  70.4885578  62.4498940
  61.2383413  71.2707329  62.8727865  61.8522549  69.9207401  63.1754732
   9.0812592  35.0897210  13.4322929   8.3273940  34.8903554  12.8771591
   8.8599257  35.9239094  13.8462639  48.9829587   4.4410540  69.0617347
  49.7620439   3.8871743  69.0120983  48.4861039   4.2268635  68.2721162
  51.5294218  79.4686937  65.2145100  51.5862274  80.4169369  65.0968456
  50.7292509  79.2175913  64.7530937  27.0653272  83.5123825  85.2107048
  26.3324857  83.8015747  85.7543373  26.6539407  83.0510712  84.4798279
  66.2112141  71.7912960  30.6852317  65.7746983  72.6093483  30.4475832
  65.6064129  71.1058426  30.4013181  42.7508259  65.3473043  58.7113285
  41.7992735  65.3875446  58.8070393  43.0124140  66.2513351  58.5366106
 100.3106880  67.2658634  77.4721527 100.6501007  68.1457949  77.3085737
  99.4354057  67.4098063  77.8318596  43.9776850  84.7044468  67.6810741
  44.3619347  85.5811310  67.6812029  44.0380621  84.4166088  66.7701721
  75.9139825   7.6249713  55.7798433  75.7452489   7.2867602  56.6592646
  75.4063965   8.4351748  55.7333469  87.1616555   3.5675162  50.2266502
  86.7666722   3.8905257  49.4167900  87.1092892   4.3081969  50.8307028
  58.4975195  95.0110340  17.0559394  57.7642679  95.0347710  16.4411163
  58.6377048  95.9267139  17.2969997  84.6848679  74.0358639  60.6713295
  83.7490082  73.8562346  60.5811214  85.1092720  73.2015896  60.4710770
  79.4176197  79.2590618  56.1962748  78.6913109  79.8824739  56.2041092
  80.1801872  79.7828293  55.9505081  66.3485337  13.6862487  36.0812879
  66.1531568  13.7555236  35.1468039  67.2530509  13.9893836  36.1599827
  58.9367056  77.6662445  56.5126038  59.3588972  78.4995079  56.3036633
  58.9085913  77.6452112  57.4691582  63.0853701  64.6223402  58.1091642
  63.0364752  63.8958406  57.4878407  63.8453007  64.4200468  58.6548853
  50.5062008  73.8835478  58.5792208  51.0809851  73.7171888  57.8321075
  49.8498631  74.4949007  58.2450056   7.2995285  13.3769816  49.2316723
   8.2196621  13.1738585  49.3999338   7.2528938  13.5101527  48.2849264
  65.1184654  77.7764320  43.0343390  65.0050688  77.0679665  42.4007320
  66.0259247  78.0581808  42.9187298  32.1206975  98.6442852  24.3607163
  32.9462218  98.2276535  24.1134167  31.9874167  99.3231392  23.6991811
  97.8061199  80.9035873  73.0745268  97.2366714  80.2333069  73.4522676
  97.8210545  80.7052708  72.1382189  82.3826027  64.0744543  62.2060490
  81.4685535  64.2826605  62.3994303  82.3417091  63.2613134  61.7026949
  58.7281370  92.7980232  34.6275043  57.9407787  92.3077202  34.3910670
  58.9739990  92.4562550  35.4871416  55.4952240  80.3233719  60.9721565
  55.5233240  79.5022202  61.4632320  54.5660686  80.5509853  60.9390688
  62.2707224 100.9902573  84.2140675  61.4683628 101.2939167  84.6386051
  62.3590040 100.0788116  84.4928265  66.5837383  70.9286451  53.7882614
  66.4700890  71.6869116  54.3612814  65.9461117  70.2898502  54.1070175
  66.1081409  92.2064304  55.8594942  65.2438116  92.2659016  56.2664795
  65.9333849  92.2462463  54.9192238  49.6457719  14.8910118  86.1938429
  48.7247800  14.9379946  85.9373260  49.9547052  14.0627648  85.8266985
 107.0051051  17.7233333  30.7378912 106.4217902  18.3801192  30.3576207
 106.8470383  16.9340247  30.2199793  89.4921398  56.0911369  63.6134911
  89.8716164  56.2624693  64.4753933  89.9893761  56.6510630  63.0172729
 102.2349120   9.6342105  40.1266766 101.8074132  10.2875632  39.5729518
 101.5677357   9.3906135  40.7683754  62.5418139  62.7931356  49.2145729
  62.8461647  63.6301804  49.5652294  61.9082403  62.4793100  49.8598051
  89.1594315  77.0086193  71.7104816  89.0087509  77.8960228  71.3848352
  89.5087528  77.1333933  72.5928831  61.7804098  90.9758377  63.5442638
  61.5151834  91.8790627  63.7176800  61.0496092  90.6019402  63.0519581
  69.6187067  83.5428143  63.1050158  69.9256849  82.6855659  63.4001827
  68.6655426  83.4594440  63.0774736  81.2586403 102.5434208  33.1900144
  80.5538177 102.6444244  33.8297462  80.9625816 101.8360329  32.6171470
  43.1645350  58.4142106   7.2729492  42.5608687  58.3804505   8.0150223
  42.6768212  58.0208008   6.5493488  78.6739969  68.8886690  68.3436966
  78.2574606  68.9515543  67.4841738  78.4325409  68.0195093  68.6638451
 108.2519245  65.3468847  58.5346842 108.3552456  65.8585167  57.7323198
 108.1710720  64.4420576  58.2330418  75.2819633 105.4970837  81.5662098
  74.5430565 104.9065018  81.4197254  75.9987879 104.9220181  81.8339634
  51.7627335  69.8316669  56.0312319  50.8936119  69.6243858  56.3745928
  51.6137695  70.5564833  55.4240370  57.0693779  68.3347797  76.7944384
  56.6484737  69.1371441  76.4857674  56.4027643  67.6568222  76.6838741
  70.0210571 100.9355450  55.5865669  70.4560852 100.5342770  56.3388777
  69.3616438 100.2944660  55.3212023  66.0070753  88.5363483  36.0223126
  65.5114937  88.2202911  35.2668381  65.6206083  89.3888378  36.2226534
  59.3838167  89.4335079  45.9587908  60.1875639  88.9649010  46.1838007
  59.4358826  90.2503490  46.4550781  99.8321439  14.4776839  58.3015728
  99.4708873  14.6449107  59.1720676  99.2739869  14.9820251  57.7096844
  99.9294282   7.2498244  50.4506159  99.2084981   6.6542739  50.2461433
 100.0580312   7.1550673  51.3943911  46.2981181  52.4959557   1.9557667
  47.0757537  52.4970238   1.3976383  46.1385016  53.4203999   2.1459103
  61.3477708   6.1223716  75.0700331  60.4365779   6.2014026  75.3523731
  61.3221575   5.4892558  74.3525887  98.7407399  27.3587817  41.7840290
  97.9171181  27.8057498  41.5888309  98.4771539  26.5585155  42.2382545
  68.5627985  99.1743755  74.6779871  68.7177753  98.2308769  74.7229576
  68.4509706  99.4424725  75.5900431  53.1615114  79.1523314  56.5682030
  52.6880217  78.4183407  56.9597292  53.0164528  79.8805046  57.1723223
   7.7718834  30.8254165  89.1328239   6.8236641  30.7521838  89.2411900
   8.0582050  31.3525409  89.8787403  38.2499385  84.9818420  39.9980187
  38.5574675  84.2070866  40.4685688  39.0072203  85.5669975  39.9793196
  92.2914124  81.6032982  50.9727716  91.8212795  80.8667469  51.3635397
  93.1707859  81.5519810  51.3473272  89.8937798  72.2212219  58.2625771
  90.8057404  71.9792938  58.4239244  89.8547268  73.1561327  58.4642029
  73.9376402 103.2996845  42.6298904  74.4466543 103.4576321  41.8347883
  73.0782509 103.0218792  42.3128700  70.6763124  94.8508739  60.2700615
  71.5440464  95.0191593  60.6374121  70.4897022  93.9414883  60.5033684
  54.1121864  99.0369225  65.0850010  54.0101576  99.3618011  64.1904211
  53.3120775  98.5386086  65.2515650  24.2766094  89.1905022  47.9555845
  23.5559678  89.8201656  47.9761791  23.8721871  88.3558083  48.1921530
  57.8946877  65.4380226  82.8418922  57.4251699  66.1108160  82.3488045
  57.2045898  64.8987770  83.2281685  36.3483357  54.3034744  66.4683771
  36.8015361  54.9353743  67.0265388  35.5016327  54.1712523  66.8948030
 100.5636883  62.5900078  38.2459521 100.7096958  62.3026037  37.3446679
  99.6487331  62.3707485  38.4220243  73.6399746  76.1502504  37.8125811
  73.5352755  77.0927525  37.9428267  74.2789984  76.0759354  37.1038103
  58.8068104  73.7333488  67.3942375  58.3768511  72.9771471  66.9948292
  59.3909025  74.0646982  66.7121267  76.6574812  95.2282429  73.2883310
  77.3187113  94.5497704  73.1516171  77.0953512  96.0427094  73.0410576
  70.5178500   4.8304957  30.8650112  70.0002909   5.1702708  31.5950203
  71.3123036   4.4872397  31.2739730  61.7001009  90.9030533  26.7747355
  61.7645788  91.7036247  27.2954535  60.9127283  90.4676342  27.1013784
  80.1279640  75.4221058   1.2189712  80.8798599  75.3239393   1.8031295
  80.5010605  75.3767347   0.3386474  53.2410336  82.9727364  75.7620907
  53.9165497  82.8357601  75.0978994  53.5917282  82.5569057  76.5496969
  53.0255365  83.3781242  45.9077597  52.1810436  83.2497311  46.3397026
  52.8264236  83.9307117  45.1519585  67.1125650 103.5594082  32.3484063
  66.5788460 103.7274456  33.1250262  66.7608070 104.1512489  31.6834068
  37.8974009  95.6846523  39.2985320  37.4839091  96.4535141  39.6911097
  38.3223176  95.2403736  40.0322151  87.1009445  76.2457514  41.7322826
  86.7559814  76.9197369  41.1466360  87.9450893  76.0056353  41.3501835
  76.2530756  63.8856649  26.8004656  75.4393244  63.7949371  27.2962594
  75.9930038  64.3272161  25.9919953  75.4813290 102.9856682  67.0209599
  74.7526932 102.3894978  66.8480301  76.2042236 102.6382542  66.4985085
  80.5271053  68.1746054  65.1467514  81.0042477  68.2655334  64.3219471
  80.9264755  67.4157715  65.5720854  70.3922415  72.2280264  52.9854345
  71.0467529  72.9161453  53.1051445  70.2753544  71.8541002  53.8587904
  84.9818230  97.8167057  29.0307021  84.6936989  98.6522770  29.3981791
  85.5489826  97.4416161  29.7043991  89.2112685   3.8350123  37.9183912
  89.2660189   4.5845527  38.5112047  90.0029708   3.3283156  38.0991983
  87.8135348  16.3933772  73.7180996  87.4741412  16.9068927  72.9850578
  88.7649871  16.4497775  73.6298466  96.0776902  14.1228122  42.2188520
  96.4550544  13.5774154  41.5286636  96.1104060  15.0120849  41.8661928
   0.5336288  31.4604587   8.9894313   1.4622740  31.4322967   8.7590945
   0.5128101  31.8800372   9.8495209   8.4955029  44.0814679   9.2933941
   9.3908314  44.4081299   9.2044735   8.5838370  43.2763856   9.8035431
  64.8045492 101.2435722  45.3252220  64.0186071 101.7624092  45.4965067
  64.4897938 100.4894447  44.8267794  71.5521288  99.6935940  11.4040482
  70.7399130  99.3479633  11.7742848  71.6142750  99.2856789  10.5403495
 102.0645047   7.0533866  33.1922030 101.6086007   7.8696174  32.9869127
 101.7805577   6.8373031  34.0804100  70.5546713  58.7504005  76.1982059
  70.7045889  57.8181267  76.3551188  71.3413382  59.0456486  75.7397079
  13.2868771  48.4014504   5.8338261  13.7824731  48.1944077   5.0415134
  13.6273961  47.7977078   6.4939499  67.9688978  88.9730167  30.1897740
  68.7758780  89.1993904  29.7274208  67.7044582  88.1336975  29.8131418
  48.6439800  78.3367443  51.5309000  48.0380678  77.6243782  51.7349529
  49.5117760  77.9671192  51.6938066  48.2661676  75.0666285  75.2895784
  47.7889204  75.4503679  74.5539045  48.3207750  74.1343641  75.0794983
  68.3564091  95.3121471  20.9784770  67.8592300  94.8091030  21.6234541
  67.8496265  95.2326202  20.1703429  79.6650839  85.1455975  43.1194544
  79.3871212  84.2461872  43.2927179  80.6188679  85.0937843  43.0574036
  79.4587803 100.7783699  67.9557133  78.7105465 100.3366852  67.5541067
  80.1077747 100.8356380  67.2544575  26.8145323  68.5935068  67.3717785
  26.3645315  68.0486250  68.0174065  27.7253437  68.3009720  67.4046278
  34.4806600  85.4563141  62.0532131  34.2282820  86.0567284  62.7546692
  35.2291465  85.8799553  61.6330576  32.2895244  13.3007831  45.6157541
  32.8259186  12.9669398  44.8966837  32.9155258  13.4849280  46.3160658
  15.0690845   8.0401343  31.7962170  15.9274391   8.3346004  31.4916682
  15.1541809   7.0895690  31.8697524 110.6733538  53.4289639  15.9296513
 110.6612207  54.2552750  16.4126492 111.2852885  53.5814088  15.2095604
  61.4376736  67.8903198  69.1574717  62.3039913  67.8486776  69.5624256
  61.6104412  67.8451633  68.2170773  53.4982347  81.5365314  71.0508299
  53.6711311  81.1022949  70.2155066  53.1582594  82.3975563  70.8073187
  64.2310190 100.2405739  29.0418553  64.9963665 100.3030491  28.4703898
  63.7674427 101.0680008  28.9126348  16.7187218   5.5614394  37.8337026
  16.4607052   6.2342662  37.2036576  17.1724895   4.9025649  37.3081374
 102.5959969  14.9033374  65.9391356 102.5214101  14.0234584  66.3085556
 102.9503775  14.7650737  65.0607681  54.2747736  91.2814522  62.0192623
  53.9923859  90.4789162  61.5806055  53.6198235  91.9336224  61.7703676
  57.4702597  94.4089794  45.9287596  57.1510029  95.2254391  45.5444384
  56.8973112  94.2580223  46.6805410 101.4804649  97.0318222  37.1219850
 101.8813324  96.4080811  37.7273798 101.0576344  97.6773262  37.6883364
  93.5195827  95.3484726  87.3920918  93.5581303  94.3972683  87.2922993
  92.8363037  95.4931355  88.0466461  37.3989157  68.9356225   5.5333805
  37.5095992  69.0136426   4.5858002  36.4819054  69.1630738   5.6869411
  62.0054817  72.1983767  35.6783080  61.1448193  72.0950508  35.2723360
  62.1195745  71.4058685  36.2028527  59.6306705  87.5326920  32.9652286
  59.4020128  87.5751209  32.0367122  60.0520229  86.6795540  33.0693889
  66.0510064   3.1716270  56.2549925  66.2740303   2.3167533  56.6233397
  65.1565123   3.3352393  56.5539026  56.3968658  72.0048237  56.3315964
  55.8036900  72.0330095  55.5808783  55.8229780  72.0851707  57.0934582
  50.4418898  97.2406673  50.3270483  50.5091190  97.4040318  49.3862915
  49.8627710  97.9313374  50.6492949  66.5050602  94.3977737  45.9320164
  65.8265066  94.4610596  46.6041756  67.3137903  94.6367645  46.3848591
  89.5845509  58.9249325  21.1410189  90.3652191  58.5833168  20.7050419
  89.5767975  59.8568821  20.9227443  76.7398310  93.9265347  59.6060562
  76.8426323  92.9933548  59.7927094  76.2513113  94.2681885  60.3549528
  17.9222488 104.2594337  46.5965557  16.9723952 104.3277740  46.6932058
  18.2356215 104.0249062  47.4700689  42.2544909 103.8772011  59.2543936
  41.8461227 103.0115414  59.2638826  41.8469810 104.3261623  58.5137177
  66.8601894  65.3954697  35.7588792  67.2341824  66.0942316  36.2956238
  66.2878370  65.8490419  35.1400733  68.0206680  88.3364964  66.5868044
  68.2196903  89.1876698  66.9768333  67.0815516  88.3701801  66.4046955
 111.1050416   0.4037780  69.4644642 110.2735043   0.0289554  69.1741323
 110.9228326   1.3374633  69.5705700  99.0462780  79.9299812  33.6009312
  99.1941166  80.7980537  33.2256627  99.3588734  80.0024986  34.5027399
  64.6955395  69.4269991  56.5213346  64.9159718  68.9384270  55.7282782
  63.9958811  68.9173365  56.9299316  63.9010096  81.0236073  52.1105623
  63.9390182  80.8103371  53.0429268  64.1835880  80.2222633  51.6698456
  43.0118036  88.3024979  69.4677114  42.5985909  89.0391445  69.0173244
  43.7933826  88.1124401  68.9488220  87.1073151  82.6065636  30.6521392
  86.3962173  82.7817154  30.0357866  86.9127369  83.1625843  31.4066029
  74.2222118  99.0164948  53.8099289  75.0073624  99.4154835  54.1848707
  74.1695452  99.3772411  52.9248762  27.9268365  53.5136502  13.7874413
  28.6206536  54.0051262  14.2270851  27.1560626  54.0775483  13.8519669
  31.8293118 101.1546040  72.4772596  32.0562410 100.3334141  72.9135942
  30.9926271 101.4092731  72.8662777  21.6237359   5.1751225   3.3903694
  22.5286059   5.0441210   3.6737061  21.1433320   4.4430058   3.7769604
  43.1886148  76.6598368  70.3504848  43.5207701  77.5573397  70.3705025
  42.5966883  76.6067219  71.1008406  55.6613255  87.1510887  35.8342052
  56.2486315  86.8089104  35.1602507  54.9793482  86.4847183  35.9184098
  36.4747243  50.0343697   1.4903831  36.9452719  49.3821614   0.9713078
  35.9600835  50.5247586   0.8493710  80.5069160  72.6529503  41.5522337
  81.0367584  71.9787598  41.9776392  80.8273315  73.4766769  41.9197083
  22.7205324  92.4108505  65.3165197  23.4022093  92.1073818  65.9160662
  23.0938649  93.1896877  64.9038792  89.7000408 103.0771160  46.5088749
  89.3554020 103.9011097  46.1646605  89.0840340 102.4124718  46.2006330
   5.9929471  43.5498135   8.1659317   5.5795483  43.7198155   9.0123558
   6.8798976  43.8976567   8.2584000 110.7604075  22.7468127  64.4483280
 110.5022145  22.5547809  63.5468340 110.9294606  21.8885821  64.8370409
  69.7741652  79.4403696  84.2522907  69.2002201  78.8973808  84.7926426
  70.4608774  79.7330046  84.8514748  61.0602903  76.5152693  67.4445915
  60.1375008  76.6887522  67.6306009  61.5367317  77.0276260  68.0978298
  40.4384375  75.5861044  77.4654198  41.0863829  75.6808138  78.1635761
  40.0456953  74.7266436  77.6181316  42.3337698  95.5615234  47.4153996
  42.9689217  96.0096741  46.8568468  42.4054813  96.0030556  48.2616520
  40.3258753  79.0137100  45.5929089  39.9096704  79.8699188  45.6925106
  40.7697821  78.8646221  46.4277458  59.6806765 100.3234386  56.1600542
  59.9624968  99.7045231  56.8336630  58.7322903 100.3857136  56.2737131
  19.8027854  33.0209153   4.2133999  20.3923993  32.3265927   4.5075226
  20.2785067  33.4551518   3.5053349  58.9968443  54.3744135   7.1699107
  58.9338875  55.1816845   6.6594374  59.8656416  54.4111681   7.5700051
  70.4770994 104.8228931  20.8689237  70.2046442 104.7320652  21.7820239
  71.2770319 104.3011665  20.8046317  91.3204670  79.0852404   9.9077314
  91.2951660  78.5412598   9.1205382  90.6584740  79.7593927   9.7543848
  68.8130617  81.3547230  51.5650845  69.3143129  82.1623039  51.4519405
  68.4199047  81.4365959  52.4339628 111.0149479  83.3385277  50.7609844
 110.2581310  83.1273460  51.3076639 111.6936588  82.7260399  51.0446119
  81.3155556   6.3897437  70.7938242  80.9816981   6.3432139  71.6897058
  80.5607558   6.1755675  70.2455139  76.1441183  73.9351940  80.7237434
  76.1049414  73.0294800  80.4165268  77.0164299  74.0200520  81.1085796
  64.7418070  76.7484760  69.5771694  65.0247478  76.1730528  68.8664961
  65.3871775  77.4553585  69.5843554  51.9153452  80.3386879  46.9448328
  51.2205076  80.9924030  46.8668079  52.4973249  80.6871796  47.6201725
  86.1068439 105.0226021  32.7700782  85.4513073 104.7218704  33.3994079
  85.6428623 105.6597328  32.2269273  70.3242874  99.4285583  63.5179567
  70.3038502  98.5034466  63.7628746  69.9020004  99.4584274  62.6594639
  25.0279355  98.0450821  72.8835201  24.4208908  97.9103184  73.6112356
  25.8679080  97.7217388  73.2092857  70.2452898  80.4666138  75.3853083
  69.6126318  80.5525208  74.6721506  71.0951138  80.6158066  74.9708557
  76.8039274  92.6519966  40.1158190  76.3404512  92.8902054  40.9187412
  77.6856232  92.4205971  40.4078817  61.9227652  56.2585251  11.3898277
  61.2626986  56.6027444  11.9915295  61.8209700  56.7842000  10.5963993
  52.0522118  89.9772167  43.6025953  51.5197802  89.1823387  43.5723639
  52.7524567  89.7730255  44.2224312  79.6860838  69.1672230  25.0797582
  80.0657368  68.7352276  25.8449221  78.7909412  68.8312006  25.0345707
  53.0673265  64.0841913  56.5894270  52.4399376  63.5046768  57.0216084
  53.3743620  63.5836554  55.8334970  47.6165628  93.5702038  87.5684357
  48.5075426  93.8284397  87.8044415  47.1039772  94.3742180  87.6523876
  88.1731606  94.2246342  71.3109398  87.3049355  94.0150261  71.6551495
  88.3637238  93.5172939  70.6948328  45.5397467  31.6339486   4.1310692
  45.6302409  31.5515607   5.0804138  46.4396910  31.6651814   3.8065052
   3.0749134  10.1662082  21.8985724   2.1898607  10.5188674  21.9909930
   3.0018667   9.2568511  22.1883488  79.6632719  84.5673561  68.0182123
  78.7944794  84.3943977  68.3808565  79.6652746  84.1145802  67.1748734
  54.6039963  92.7934933  66.2685823  55.3871298  92.9911232  66.7822695
  54.0736961  93.5883808  66.3249207  52.9231882  94.8781586  76.7637539
  53.5364819  95.6126785  76.7397404  53.4612274  94.1104698  76.5703392
  85.7515621 102.7976322  89.5897007  85.9731293 102.5600624  90.4900932
  85.8411026 103.7503052  89.5644188  84.7275925  86.0178280  56.6459703
  85.1211357  85.1612091  56.4799738  84.0085316  86.0770130  56.0169411
  83.9907932  76.4599752  43.6777925  84.3657780  75.7157946  44.1487598
  83.2428074  76.7287207  44.2112064  62.1553278  89.7189522  84.7114277
  61.9351578  90.5018902  84.2066860  61.6423416  89.8002052  85.5154610
  92.7899314  18.7627238  48.1583738  92.2092772  19.5236033  48.1704807
  92.4590398  18.1977958  48.8566542  64.4743967  69.7408533  77.4611759
  64.6848965  70.4841518  78.0263567  64.3313217  69.0129662  78.0661106
  93.8940192   8.5526961  60.3287172  94.0846062   7.9049796  61.0072231
  94.1092015   9.3933028  60.7328415  91.8066597  76.6732073  52.8339672
  91.6617298  77.2634411  53.5734606  92.1686077  75.8796406  53.2282686
  54.2355108  72.2011566  58.0131102  54.0731049  72.5524998  58.8885593
  53.4491491  72.4251938  57.5154400   2.8042559   2.6911468  33.9643073
   2.2398905   3.4063453  34.2579460   2.3934416   1.9016952  34.3167734
  60.4794264  79.8010588  56.1381054  61.2873983  80.0846386  56.5658855
  59.8154211  80.4168892  56.4480877  91.4398003  10.7296580  63.5871983
  90.8571387  11.4190597  63.2686663  91.0666323   9.9203414  63.2379389
  95.8229256  91.6620636  24.8304915  96.2443447  91.5378952  25.6809187
  95.8076954  90.7879066  24.4408202  44.1465950  64.5139694  63.4356260
  44.3978214  63.8307142  62.8141069  43.4118176  64.1382313  63.9205503
  97.2270107  67.7472973  52.8771877  97.5847816  67.9841566  53.7328339
  97.3387909  66.7980623  52.8252792  86.2146187  88.2275391  46.1738586
  86.7536640  88.3221149  46.9591665  86.5748882  87.4616146  45.7268715
  73.6852551  74.0045166  50.3029871  73.4546375  73.2361412  49.7808313
  74.6421909  74.0237045  50.2911711  55.9354223   1.0867518  68.9910936
  55.9097756   1.9293422  68.5376358  55.1147521   0.6585521  68.7474298
  68.4967709  75.1026630  33.9742470  68.5883236  76.0550976  33.9473677
  67.5952768  74.9567032  34.2610192 105.3668547  24.5276183  68.0474901
 105.7702876  24.3575210  67.1962881 104.6990538  25.1894874  67.8680611
  64.0810943  20.6669158  56.0584021  64.7982026  20.1337642  56.4015341
  64.1323305  21.4845103  56.5535212 101.6135406  59.8618221  40.9428310
 100.7216644  59.5261240  40.8528900 102.0113754  59.7178602  40.0842094
  55.1961613  84.0109444  69.4562244  55.8031273  84.5341873  69.9797106
  54.3285704  84.3276310  69.7076654  63.9082098  78.6289072  72.2074461
  62.9998112  78.3494329  72.3211861  63.8442802  79.5383883  71.9159126
  47.1150494  82.6757050  83.1086445  47.5897884  83.1965542  83.7563896
  46.2058640  82.6925373  83.4075260  57.4708414  93.2361794  49.8326874
  57.1678543  93.3867550  48.9372778  56.9532537  93.8399506  50.3654051
  56.4375687  83.3404827  36.2267804  56.0733509  83.5932350  37.0751262
  57.0048571  82.5946999  36.4222836  44.5730209  63.3075953  70.4902649
  45.0946856  62.8287125  69.8462391  44.1234159  62.6255751  70.9891987
  36.9863895   6.2088317  53.8119268  36.9513039   5.4927749  53.1776905
  36.2308220   6.0620326  54.3809509  66.6779470  77.0835114  46.8066502
  66.7069244  76.2967300  47.3510408  66.5832901  77.8031683  47.4306393
  16.0745529   3.8981265  52.6451635  16.6525272   3.2241649  53.0028677
  16.4637188   4.7242755  52.9319859  41.8522644  65.1741171  61.7267275
  42.1167994  64.9051952  60.8469963  42.5945807  64.9376106  62.2828436
  55.4078007 104.2920971  57.6996469  55.8873034 103.6562252  58.2306671
  56.0747385 104.9157810  57.4125147  73.6069155  89.7075939  43.8182211
  74.5546150  89.6432686  43.9363766  73.4999895  90.1411438  42.9715586
  13.9561180  13.4194869  35.9043431  13.1346325  13.7902087  35.5819249
  13.9466576  12.5129622  35.5971742  65.6014633  91.6640568  31.8951344
  65.4864359  91.1129475  31.1210036  64.7248363  91.7314434  32.2735691
  55.7064009  96.0278225  13.0868089  54.9416399  96.5816307  12.9297376
  55.3769827  95.1335621  12.9972816  21.0933784  14.8055381  41.4825916
  21.1855892  13.9709395  41.0230494  21.4222435  14.6310252  42.3644209
  61.4383841 103.9730167  43.1407976  61.4242363 103.0315399  43.3129930
  62.3194695 104.1422749  42.8072119  54.7388077  79.9149084  18.1874144
  53.8408470  79.7208595  17.9186404  55.2229977  79.9941683  17.3655200
 105.3919507  10.6397838  54.3670559 104.4419385  10.5340690  54.3167639
 105.5940724  10.5491084  55.2982664 103.6309052  81.8407440  81.9819736
 104.4380188  82.3526192  81.9291496 103.0119228  82.3112392  81.4236355
  41.9628525  84.3880844  52.0243835  42.4778032  83.8758373  52.6478100
  42.5403690  84.4966125  51.2687874  74.6530628  74.7224855  73.0472660
  74.2617941  75.5653334  73.2769442  75.5872965  74.9093342  72.9549217
  99.5863581   0.6777019  62.8489208  98.8803530   1.1248607  63.3156538
  99.6602727   1.1482924  62.0186710  79.3312693  62.2605848  28.4366751
  78.6154222  61.6535854  28.2486510  80.0989342  61.6992617  28.5454535
  53.4236293  59.9609082  17.9890442  52.7694468  60.4086774  17.4525833
  54.2424922  60.4192917  17.8004456  79.2255307   6.7704124  51.2014103
  80.0216485   6.3473624  51.5230608  79.3223811   6.7705649  50.2491236
  18.4529114  74.8148584  88.4389496  17.7174747  74.7763157  89.0504074
  19.1830373  74.4221640  88.9174271  47.6612473  78.9407015  71.4941549
  47.7795553  79.1853905  72.4119568  48.5347509  79.0195370  71.1107445
   3.3379558  23.6952895  52.9036188   2.5134567  24.1335887  53.1141376
   3.0940870  22.7801341  52.7648497  65.6606150  94.3588352  34.4484973
  66.5019417  94.5111084  34.8788691  65.8813334  94.2472458  33.5238004
  97.8488398   1.7544574  48.7292337  98.0429221   2.6239699  48.3792210
  97.0155526   1.8614406  49.1879463 106.4616442   6.5993995  53.0644226
 106.3172198   5.7533854  53.4882498 105.5927706   6.9991035  53.0252600
  52.8321600 104.3238735  32.8793216  53.2309055 103.7258339  32.2471881
  53.3217812 105.1401711  32.7785826 108.6490107  18.3071345  37.6883316
 107.7477360  18.2935161  37.3662281 109.1506530  18.7096805  36.9794297
  25.4499344  19.8686713  76.1899328  24.5760731  19.8101634  76.5761662
  25.3802208  19.3870467  75.3656673   3.4781603  49.4208615  25.0447750
   3.7817387  49.7580330  25.8876228   3.8710026  48.5504334  24.9794769
  99.4695235  12.2203464  62.9171896  99.4508982  12.2152537  63.8741922
  98.5916091  12.5038928  62.6620483  99.2670727  12.4585933  43.1097746
  99.0836097  11.5488166  43.3440351  99.9975682  12.4046153  42.4935818
   0.3342632   1.4119739  46.8905497  -0.0794359   2.2557563  47.0725536
   1.2618832   1.6194076  46.7777538  63.2853746 101.4029026  69.7599125
  62.3667908 101.5759659  69.5537996  63.5379696 102.1165466  70.3456879
  91.7923450  63.3914328  61.5173340  92.3547745  64.0546799  61.9173527
  91.3131618  63.8630342  60.8360052  66.1004591  95.1195717  40.9784746
  65.8318377  95.2348709  40.0670004  66.6059399  95.9068871  41.1806154
  91.0125447   7.8874225  82.7088642  91.6625071   7.6568431  82.0450783
  90.1811219   7.9027862  82.2348118  55.7624578  80.7365322  52.7105188
  56.4963102  81.0434437  52.1780777  55.9883785  80.9979630  53.6031818
  43.2955503 104.5802212  55.4584742  42.6725864 105.1086235  55.9574127
  44.1469097 104.7849751  55.8451176  22.8246169  50.8489888   1.5721703
  21.9551091  50.5982392   1.2602234  22.9105096  51.7702954   1.3271046
  95.5909491  21.9169253  68.7816811  95.9955455  21.2156314  68.2710695
  95.2340270  21.4763946  69.5528936  86.4236736  70.7803106  45.2704668
  85.6344891  70.4736567  45.7169867  86.9037914  71.2674189  45.9401274
  12.7264503   3.9305324  62.5659275  12.9284481   4.7861499  62.1873236
  13.1455234   3.9443988  63.4264040  51.4342260  99.3839073  68.2616234
  50.5823278  99.8114395  68.1737423  51.3978100  98.9503574  69.1142321
  89.6725608   0.6713122  72.7640200  89.8985339   0.9855765  71.8885756
  88.7386084   0.4681987  72.7119112  30.2599673  49.0878289  14.6901321
  30.7449107  48.3126633  14.9732971  30.4678874  49.1737931  13.7597466
   2.6981882  30.2796287  58.3035135   1.9757036  30.7926291  57.9414749
   2.3385147  29.3985099  58.4059858  65.6444359 103.0225277  40.2594995
  66.2409878 102.2767830  40.1945496  65.7788467 103.5083389  39.4457698
  37.5123553  74.3909638   0.6274128  38.0119137  73.5913174   0.4623699
  37.5200753  74.8552506  -0.2096081  86.2300067  43.4662430   0.9792614
  87.1608500  43.6711686   1.0673809  86.1667208  42.5380890   1.2045765
  79.9714565  73.7555265  90.2271748  80.2747631  73.7483025  91.1350250
  79.3393040  73.0383062  90.1801300  78.5717916 102.2719002  86.9723415
  79.4362926 101.9603729  87.2403526  78.5572052 103.1925011  87.2340775
  84.9806404 101.8611908  22.8074741  85.0419521 100.9747028  22.4516535
  84.6337986 101.7409897  23.6914921  61.2380648  95.1296616  57.2648907
  61.4717960  94.3810272  57.8136635  61.5103149  94.8747063  56.3833523
  69.6790410  13.6773795  23.8256526  70.5078245  13.6800879  24.3045497
  69.4124509  14.5964259  23.8030863  75.8071947  55.1577568  75.2361202
  75.1505995  55.8442020  75.3540373  75.7874489  54.6640587  76.0559416
 103.4004498  87.1168900  36.5830588 103.9124203  86.5023327  36.0572863
 103.8884735  87.1952057  37.4027729  14.0492062   1.5790671  85.8320332
  13.5800651   2.3274440  85.4631615  13.4457306   0.8433360  85.7284164
  12.0786671  16.7581100  36.3639259  12.6565937  17.1268004  37.0319796
  12.3254684  17.2107619  35.5574322  86.6031075  13.6092204  60.6133413
  87.4500752  14.0526027  60.5655384  86.6192914  13.1518764  61.4540625
  49.2277288  89.1363335  66.3837147  50.0195932  89.5317936  66.7481279
  48.6738014  88.9641380  67.1451235  81.4493084  87.0722294  61.7050743
  81.6876984  86.2692451  62.1683359  82.1783733  87.6698685  61.8709326
  71.2042618  88.9120483  37.5425482  71.4066458  89.7973824  37.8449535
  70.6841183  89.0428066  36.7497134 105.3932763   1.6522140  61.3693905
 104.4804049   1.5937728  61.0874653 105.3997470   1.2606448  62.2428131
  82.7789784  18.2268352  66.0621643  83.7276078  18.1025237  66.0918856
  82.4190617  17.3433703  66.1408043  18.0856995   0.7796210  76.8755913
  17.6066498   1.2350291  76.1832428  17.5837520  -0.0211698  77.0272827
  85.2445412  93.7362099  76.8014526  85.4550457  94.5853996  76.4131403
  85.2624226  93.8934708  77.7454758  52.3418474 102.1920013  44.2367411
  53.0636406 101.9319344  44.8091125  51.6700172 101.5255260  44.3805790
   0.5680279   8.7354583  41.6793728   0.4251484   9.6819324  41.6796780
  -0.1589724   8.3836574  41.1656284  17.5216488   7.7027053  13.1815159
  16.8393997   7.0618361  13.3816648  18.0558208   7.2814769  12.5081277
  71.2941551  86.2556648  77.3021173  71.5535593  85.8715439  78.1396103
  70.5790997  86.8522644  77.5234795  68.3159876 100.8665657  37.6049352
  68.9988518 100.3824902  37.1406102  68.7253428 101.7021465  37.8295898
  18.0758385  28.9110679  65.8057213  18.9198307  28.4595126  65.8039284
  17.7537540  28.8203544  64.9089146  10.1399139  15.2121753  27.2627330
  10.9501842  15.2770823  26.7572761  10.0698570  14.2837256  27.4847841
   7.7255253  20.1428527  75.5706072   8.0515961  19.4282073  76.1175823
   7.5074486  20.8387202  76.1906433  62.2781277  81.6462898  72.8878212
  62.8935289  81.4186096  72.1909142  62.7757120  82.2226238  73.4678936
  80.8668137  51.7660666  57.6124763  81.3769150  51.9657087  58.3974409
  80.6452465  52.6223803  57.2465992  38.0755234  73.8343287  54.1017485
  37.6982903  73.6567211  54.9633646  38.7261629  74.5179892  54.2614555
 103.2696677  35.5552024  13.4408236 103.0108357  35.0131339  12.6955771
 102.9576779  36.4324492  13.2187212 104.6881867  32.4814338  64.7207689
 105.0722790  33.3510322  64.6089363 105.3823043  31.8773192  64.4572020
  80.4988433   0.9706897  76.9744492  80.3571940   0.0366324  76.8204880
  80.4636527   1.0645598  77.9263830  51.6392374  71.8884563  20.0076556
  51.3267136  71.4293337  19.2280638  51.1014652  72.6790810  20.0516963
  97.3967553   4.9282760  27.9708385  97.2941066   5.8060950  28.3384347
  98.0071688   5.0434512  27.2425795 101.9902993  24.5288581  87.5508213
 102.2690631  23.7179774  87.1253967 102.8056718  24.9457568  87.8293705
  62.9256392  97.3084164  62.1831703  62.3385620  97.5426674  62.9019833
  62.3932362  96.7581558  61.6087151  72.9027367  77.2029877  83.3457088
  73.1090164  76.6936541  82.5619602  72.7012253  78.0787468  83.0160618
  15.0393204   7.1354503  63.7462950  14.3321136   7.4753589  64.2945290
  14.6043209   6.8541736  62.9413748 107.1865607  20.1044864  45.7558584
 106.7884684  19.5899600  45.0537062 107.2728873  20.9842605  45.3887415
  74.1192293  98.2830429  21.3278627  74.8096609  97.9031754  20.7845068
  74.0257168  97.6716518  22.0584035 105.4635096   8.3522147  44.0676498
 104.7968198   8.9288825  43.6945438 105.5851794   7.6688594  43.4085131
  74.0445995  72.5655365  56.1710024  74.9014473  72.7650356  55.7938576
  73.4424496  73.1622314  55.7264805 102.2353173   8.4068412  22.9665565
 101.3463927   8.7245006  22.8080225 102.1140671   7.5500506  23.3757687
  44.1593794  77.4840157   0.6384087  44.2999034  78.3981602   0.3917789
  44.0008788  77.0337479  -0.1912689  86.7528152  96.3675213  47.5562525
  87.4730301  95.9856606  48.0579615  86.9602871  96.1616325  46.6447687
 110.8972884   1.6614074  22.8977084 109.9844361   1.7552489  22.6254559
 111.3938475   2.1549911  22.2449946   8.1503395   8.4710425  60.6636715
   8.3861450   7.5641173  60.8588839   8.7410644   8.7247867  59.9545288
   4.3289856  29.7737998  67.5193930   4.5404867  30.6848353  67.7231693
   3.7086109  29.8287601  66.7925167 110.6469155  37.0897883  31.8776989
 111.4884902  36.9456405  31.4450216 110.6604815  36.4990634  32.6307535
  75.7325554  86.4468479  86.1544609  76.5407991  86.9308281  85.9849358
  75.5490685  86.6039944  87.0806694  33.7661910  88.4764290  84.7121143
  32.9380107  88.7561989  85.1020908  33.5092521  87.9748631  83.9383888
  58.7911320  87.8201389  68.2228947  59.1136885  87.5242519  69.0741491
  58.2198095  87.1126366  67.9241323 109.3379641  17.5778979  45.5475044
 110.2036906  17.4608153  45.1562881 108.9594031  18.3187121  45.0741005
  62.0659971 101.2375546  31.5474629  62.5779295 101.8844986  31.0620642
  62.5353336 101.1327553  32.3750949 103.1613875   1.4276809  75.8938122
 102.8651953   1.3771266  74.9849939 102.5336743   2.0126361  76.3181162
   0.3811029  13.1932467  89.3783665   1.1821226  13.4776134  89.8185062
  -0.2775761  13.1681365  90.0724411  98.6116648  42.9869384  79.0446568
  98.4536124  43.8141173  79.4996643  99.0514518  43.2402438  78.2330799
  79.8207378  77.7911520  75.5751419  80.6212139  77.4732447  75.9927559
  79.3911695  78.3169842  76.2498331  95.6373406  19.4717902  75.0682878
  95.2940083  20.2648562  74.6567011  96.0006667  18.9636153  74.3430424
  92.9652787  10.8841247  57.9457808  93.0592061  11.4496345  57.1792269
  92.3685504  10.1919478  57.6611090  81.3212109 104.9694633  70.7005739
  81.4833641 104.0263367  70.7216787  81.6768742 105.2922249  71.5285587
  80.0453949  99.7951984  39.5440078  79.1819191 100.1166630  39.8034286
  80.0765228  99.9299622  38.5968542  54.6081877  83.2664299  42.3037100
  54.8234940  82.3765087  42.5828600  54.2147350  83.1572914  41.4379597
  68.2296515 101.2229824  89.4698906  68.3799648 100.2784252  89.5079613
  68.2853270 101.5112782  90.3809452  68.7218571  91.5147495  53.6525106
  69.5343208  91.4322948  53.1531763  68.1607533  90.8170986  53.3138752
  52.0879936  90.0920200  51.0046434  51.4652443  90.1812840  51.7260647
  51.8033838  89.3059731  50.5384302  97.8376771   0.3448600  72.3359871
  97.9922391  -0.5611497  72.0686197  98.3492566   0.8674354  71.7183876
  76.6969728  94.3150425  45.9769297  76.0796356  95.0312042  46.1260700
  76.3709641  93.6000633  46.5235186  36.1541942  12.7228087  19.6398675
  35.6059650  12.8629798  18.8678432  35.6396965  13.0750197  20.3661370
   7.4418548  17.5996608  47.8972149   7.9016880  18.4382171  47.9374981
   7.8921608  17.0485801  48.5373449  81.3062382  87.6856232  48.0073500
  81.9015408  87.7867889  47.2646475  81.2067890  88.5711384  48.3569384
  39.1424708  59.6394150  15.0764370  39.8233609  59.0223115  14.8084736
  38.8050990  59.2820065  15.8978271  15.4578308  15.9892577  61.0881805
  14.8544887  16.6890162  61.3382673  15.2572731  15.2732772  61.6910028
   4.2142395   8.9090365  44.5298576   3.3367351   9.2811317  44.6179485
   4.6758703   9.1949386  45.3181410  73.4221745  84.7331429  67.1472692
  73.7549877  85.4436684  66.5989828  72.8310633  85.1638508  67.7647686
  49.6296072 101.5039825  85.3690529  49.6127224 102.0582485  84.5888329
  50.5409575 101.2204647  85.4417515  75.0376225 101.3705349  61.5401983
  74.1498852 101.0193634  61.4706469  75.4765511 100.7905579  62.1624517
  91.3727665  67.2790384  28.5249829  90.6374168  67.5019646  27.9541922
  91.6028786  68.1040287  28.9523864  98.4761763  14.5516795  82.2264957
  98.3123875  15.2940101  81.6448212  98.1215955  14.8270339  83.0718803
 102.9949904   3.1296653  42.8033447 102.7021504   4.0100593  43.0386496
 103.0812360   2.6741237  43.6407709  69.6807098  99.9194145  68.3968639
  68.9041948  99.9787331  68.9534092  69.9997282 100.8197021  68.3340883
  15.7596687   2.2917956  69.1414881  15.2512936   1.5387267  68.8403511
  16.6715721   2.0363540  69.0021372  39.4554329  70.0660563  73.2108307
  39.7958446  70.4022503  74.0398836  38.6756778  69.5681429  73.4563780
  71.8239641  63.3551168  58.1897020  71.5134048  62.4661493  58.0178738
  71.0651684  63.9118576  58.0150366  92.1739769  94.0503693  47.9358816
  92.7592468  93.3426476  48.2057381  91.4210510  93.6039543  47.5485277
  59.3930960  91.5475655  47.9962158  59.9897766  90.9901810  48.4957504
  58.5447645  91.4350796  48.4250641   1.8419412 103.7577057  64.7263861
   2.2737172 103.2918167  65.4424524   0.9084180 103.5981369  64.8653078
  71.9948578  93.6769772  56.1211634  72.7397251  93.8791656  56.6873121
  71.5262794  94.5073128  56.0361814  13.8879875  15.0861377  71.5616035
  14.6160702  15.6684131  71.3446426  14.2018799  14.5788116  72.3101425
  38.2302427 100.1119328  73.6590147  38.4637761  99.2199802  73.9161301
  38.9023399 100.6612396  74.0624809  36.6069893  16.0547275  59.5872068
  36.3490299  15.3723926  60.2069712  36.8507770  16.7987365  60.1378870
  91.0076427  81.0463142  14.4633377  90.6380177  81.8255997  14.8784614
  91.3116360  80.5072975  15.1935995  15.7739262  22.8089923  65.1816320
  15.7491402  22.3946494  64.3191195  14.8621467  22.8103084  65.4730082
  73.1065369 101.3513660  71.0296202  72.7934027 101.8990898  71.7494678
  72.3733234 101.3213634  70.4150200 107.0850372  94.3850040  58.0527782
 107.4992466  94.0058327  58.8279486 107.7968025  94.4704437  57.4184847
  71.7340899  78.9934015  71.5168333  71.9643068  78.4698105  70.7493162
  70.7835245  78.9072561  71.5891886  42.1261787  77.0822525  76.0434771
  41.7974615  77.9657841  75.8775139  41.3640738  76.5992594  76.3630724
  61.7298603  81.0329723  40.3796625  62.6498699  81.1197472  40.1300955
  61.7527962  80.5954933  41.2307310  13.2262329   5.8907622  53.8613605
  12.8462509   5.0128383  53.8943958  12.5445751   6.4319438  53.4629822
  26.2913470  26.3782780   1.2499809  26.3648228  25.4845278   1.5847111
  25.9833674  26.8897002   1.9982052  59.4968081  77.2979832  37.0335054
  59.4175673  78.1870651  37.3791742  60.0016642  77.3988533  36.2265515
   6.1464313   3.0364913  77.5855398   6.7571739   3.5863418  78.0763531
   6.7059521   2.4952334  77.0285749 109.4160080  95.0037289  29.7431350
 108.9477253  94.4515419  30.3692627 110.3392601  94.8939419  29.9706650
  57.0954037  84.6713352  45.6958389  56.4118004  84.2746735  45.1558542
  56.8169737  85.5806160  45.8049536   9.2039780   5.4848880  57.2946167
   9.0061954   6.4185828  57.2216797   9.5774082   5.2520484  56.4445734
  79.9355174  10.2348250  50.5055761  80.2701665  10.4329795  49.6309471
  80.3135396   9.3817443  50.7190657  12.2136120  23.2145709  53.9912367
  11.9379429  24.1014117  54.2231035  12.7089123  22.9111022  54.7520304
  39.8675065  25.6160729  12.2517395  40.8052306  25.4615300  12.3658657
  39.7257380  25.5424159  11.3079739  80.2335548 103.6049271  27.9023957
  80.0941753 102.6751995  28.0824256  79.4014549 104.0201664  28.1291556
  76.0126066 103.2681084  71.4728737  76.1609745 103.2101727  70.5290174
  76.2569046 104.1655350  71.6990900  98.4190178  52.6879787  72.3539925
  98.8980865  52.3513031  71.5967798  98.7227631  52.1525669  73.0870008
  36.2575488  74.9892800   6.6467190  36.3526110  74.7842972   5.7165718
  36.4444642  74.1640084   7.0941734  11.0852055  36.7963402   3.2715511
  11.7149977  36.1923592   3.6649990  10.5005889  37.0349496   3.9909458
   7.4916748   7.4891490  69.4047785   6.6880230   7.3050612  68.9184904
   8.1665615   7.5689429  68.7306833  69.3795490  96.5118694  83.8026810
  69.8162031  95.7870388  83.3552647  68.8614321  96.9376469  83.1196690
   6.3422016   2.0547122  40.2418184   5.6304363   2.5321502  40.6680584
   6.6734318   2.6603431  39.5786953  10.3239540  14.1486854  63.2175159
   9.9381927  14.5395011  64.0015316  10.1233677  13.2156676  63.2914972
 108.4569026   2.4776477  58.1141996 109.1434098   1.9091815  58.4631824
 108.7579919   3.3648700  58.3101892  18.9250282   3.0737323  78.6927080
  18.4321312   2.2789306  78.4887743  18.3317093   3.7889880  78.4633207
  94.6512509  24.4349212  62.0616865  95.6023074  24.5395679  62.0895004
  94.3105365  25.3282184  62.1081972  79.7272825 105.3551674  63.5888958
  79.5608664 104.4402027  63.8155270  79.1053295 105.8508015  64.1215801
  97.9994583  77.1990538  41.8696213  97.2852516  76.8758678  42.4188852
  97.9652309  76.6512728  41.0854053   5.3309205  58.5401869  49.2780638
   5.0993493  57.6269436  49.4471550   6.0548928  58.4920549  48.6537361
   6.4028600 102.4269867  48.3677006   6.5156701 101.7675781  47.6831007
   6.4980176 103.2635975  47.9124403  82.8363895  95.5305195  21.3111615
  83.0976200  96.0515499  22.0704484  83.5979080  94.9816608  21.1238575
  93.4786034  76.8004560  66.4440680  94.2855835  76.3771915  66.7370749
  93.0012512  76.1117411  65.9814262  24.4752412  76.8635647   6.6401482
  24.7268586  76.4235680   7.4521446  24.2541222  76.1511605   6.0402966
  23.6444736  91.1009312  54.2230606  23.6478877  92.0476913  54.0820837
  23.1534457  90.7499218  53.4801531  99.3895150  15.5425471  61.0045433
 100.0067044  15.8130092  61.6843605  98.8495589  14.8726863  61.4240265
  40.2917528  70.3490829  55.7813025  39.8459482  69.7158766  55.2186775
  40.5093718  71.0761833  55.1980352   4.5028404   6.0354060  79.2696953
   4.4322828   5.1069469  79.4915485   5.3795341   6.1265201  78.8964176
  65.5747652  99.4690228  37.6555014  65.3455257  98.5404968  37.6165462
  65.8700418  99.6801949  36.7698097 102.7931596  27.8610820  72.7103662
 103.1982136  28.7143630  72.5552511 103.2609273  27.5079268  73.4671402
 111.3692237   0.3010863  62.8419113 111.0284472   1.1420650  62.5371885
 110.6211663  -0.1218968  63.2634830  91.4878750  95.5580902  40.9447289
  91.2836552  95.6978703  40.0200748  92.4368095  95.6707382  41.0001135
  69.9598932 102.2865677  29.5163393  70.5938101 101.8015480  30.0446796
  69.1684055 101.7486954  29.5383024  64.5821857  69.6232557  85.5509281
  64.1620159  70.4805994  85.6191444  65.5184507  69.8089886  85.6226730
  93.1086684   6.7426890  50.4600716  92.6485825   6.3889998  51.2212896
  92.6845742   6.3269252  49.7093916  89.6096135  25.3292197  74.4584036
  89.5618916  24.8088950  73.6563969  89.4177199  24.7065848  75.1596355
   3.6018995  23.0785388  47.3484898   4.1204170  23.8383597  47.6131248
   2.9647497  22.9659289  48.0538893  97.2879077   8.4428710  64.7862482
  97.3815108   8.0636138  65.6601095  97.8271056   7.8861445  64.2245150
  85.5281544  92.9949856  59.4396496  84.6349430  93.2964611  59.6055174
  85.4777336  92.5508118  58.5932446 108.3064080  13.5899276  69.6943426
 107.8310204  12.8479785  70.0681782 109.0019608  13.7716884  70.3263235
  96.2569619  28.0455035  36.6785693  96.1832619  28.7924308  37.2726321
  97.0797015  27.6232547  36.9256234  25.6407499  58.0923414  56.6745234
  26.4676070  58.5740900  56.6958237  25.6405783  57.5809669  57.4836779
  81.1188030  81.2726021  56.4710379  80.7821083  82.1483612  56.6605330
  81.3165855  81.2894630  55.5346441  78.5803795  60.6787443  67.6584768
  78.3561420  61.0180807  66.7919874  77.7357292  60.5329514  68.0845499
  78.6593390  97.5551701  88.3469963  78.8850737  98.4575272  88.5728836
  79.4588661  97.0579243  88.5194397  36.0282520  11.0367412  65.8546066
  36.1272243  11.9588965  66.0913706  35.3690437  10.7026881  66.4629555
 100.2903271  97.6744938  56.6607904 100.9654713  97.2600460  57.1980524
 100.1519299  97.0637608  55.9368563  67.1399975  60.8997011  72.5580645
  67.7183628  61.6093397  72.2785282  66.4709091  61.3312483  73.0893993
  85.0207043  92.7727604  29.0197325  85.0480843  92.6516628  28.0706167
  84.8180962  91.9038105  29.3663049 103.8272190  93.0211544  39.0113878
 104.3705368  92.2494698  38.8515639 103.1488323  92.7158642  39.6137381
  87.9078102  61.8285847  43.9321041  87.3646641  61.8436193  43.1440735
  87.8464031  60.9271574  44.2481613  93.0502319  89.6630573  61.8003178
  92.8536987  90.5967617  61.7241430  93.9903736  89.6016121  61.6312504
  85.7808590  76.4771509  61.3259029  85.3602982  75.6685591  61.0334253
  85.7988167  76.4061308  62.2802925  66.1741734  85.6764507  74.9331236
  65.9797430  85.9376526  75.8332396  66.5241241  84.7889709  75.0115490
  60.7014561  99.2847538  74.4283152  61.2322950  99.9892998  74.0567732
  60.7861042  99.3949986  75.3753710 100.6555080  79.1433477  61.0553837
 100.9012413  78.5218191  60.3701448 101.1221981  79.9475145  60.8279133
  54.3500376 100.5453491  77.1875477  53.6858416 100.6262589  76.5030575
  54.4521046  99.6017647  77.3119068  68.0267715 101.8068123  81.6560555
  67.9989004 102.7548599  81.7851639  68.3168554 101.6968346  80.7505226
 101.7831279   2.8081912  52.7845144 102.6581193   3.0362815  52.4705076
 101.6327191   3.3975524  53.5236120  59.2736959  88.0167770  49.8987675
  59.3825436  87.0938396  49.6694994  58.4277630  88.0545521  50.3450918
  11.8421605  91.0033798  31.5971494  11.2310269  90.4229259  32.0508313
  12.1229127  91.6265297  32.2672892  95.9214687  74.0269375  29.7661805
  95.1475811  74.5597553  29.9490666  96.5206146  74.2193079  30.4874611
  11.7405323   5.2440661  38.6524653  12.0185379   5.6077498  39.4931030
  10.7985214   5.1057834  38.7511063  42.0240215  36.6630382  60.7523155
  42.3935036  37.1075648  61.5152788  42.1566395  37.2768992  60.0299501
  51.6004896  98.0451107  65.7909727  51.5947342  98.3913326  66.6833448
  50.7719660  98.3410645  65.4138947   3.9270691   4.4631213  27.3078966
   4.2266659   4.3626040  26.4043641   2.9759506   4.5443839  27.2372198
  74.1640139 103.6744976  47.2025585  73.3692312 104.0183830  46.7947626
  74.8417187 104.3138409  46.9830656   5.1831058  11.3402099  69.9850559
   4.6519522  11.9262046  69.4458675   4.5773128  10.6513328  70.2583408
  84.4440604  10.0289649  32.3465395  84.1310931  10.0715083  33.2501292
  84.2560626  10.8958835  31.9868875  15.1276784  44.7857278  19.7061062
  16.0421281  45.0547593  19.6187496  14.6673827  45.2772038  19.0258026
 109.3516541  14.5640582  36.5177250 109.0557147  14.9080676  37.3605204
 110.2958155  14.7214526  36.5129924  67.8204561  27.2852916  78.9525938
  68.0102802  26.6921538  78.2256937  67.1284939  27.8572864  78.6205578
  91.4762020  83.6793709  19.4654465  91.9836426  84.1964436  18.8398492
  90.7773590  84.2676926  19.7513223  75.9483028   6.7154140  58.6349869
  75.0991393   6.9767684  58.9911413  76.4480663   6.4232081  59.3972778
  25.1913551   4.9249381  82.4333382  24.9028877   5.8190269  82.2499466
  24.3864063   4.4070453  82.4247360  15.9630779  10.3877944  53.5156155
  15.8113293   9.4662398  53.7252426  15.2953438  10.5980319  52.8628063
  88.0585194  30.3320521  66.5401173  88.1949616  31.1712951  66.9797659
  88.8976384  29.8790187  66.6230345  91.0528088  86.0928154  54.5690489
  91.3258743  85.8322430  53.6894083  91.3401508  85.3738499  55.1318598
  91.2731838  95.6552696  64.9226189  90.5050564  96.2163830  65.0291872
  92.0093918  96.2026024  65.1958561 111.2395763  93.7503242  60.6768322
 110.9158707  93.2140636  59.9530458 111.7535305  93.1454945  61.2118626
  71.6482019  99.7662258  90.6048870  71.2154770  99.1353321  90.0296021
  72.1771288  99.2290020  91.1946869   5.9675316  19.2074508  68.2184887
   6.3842968  19.3635577  69.0659332   5.6940655  18.2907409  68.2513094
  96.3400794  27.3347587  40.1854658  95.4723740  27.4303836  40.5781221
  96.5676595  28.2162589  39.8898292   0.2566532  58.0315513  60.7597780
   1.0261253  58.4962005  61.0887671   0.3994087  57.9704970  59.8152542
  99.7313881  75.0480509  52.8980350  99.3472672  74.8511791  53.7523890
  99.0644073  75.5679321  52.4496078  80.2242947  87.3885345  68.5903645
  80.1869392  86.4395332  68.7096786  79.8463106  87.5359917  67.7234030
  15.7451824  28.2450599  56.9213629  14.8032478  28.1269855  56.7986727
  15.9278683  27.8456325  57.7718449 106.0206891  32.4066848  52.4987268
 105.7718611  32.3060435  51.5799284 106.9185973  32.7369803  52.4689054
 106.5899944  90.7192898  54.5900583 106.8863678  91.2879944  55.3006744
 105.6685352  90.9481716  54.4685698  79.8930741  11.1609382  19.9287999
  79.4962264  11.9077796  19.4805014  79.1659547  10.5561561  20.0763249
  91.6801262  91.3464069  65.5755091  91.3475895  91.7120647  64.7557878
  90.9586620  91.4531231  66.1954641 102.6151276  83.6167049  49.9147415
 102.3075962  83.0328083  50.6080818 102.7226830  84.4645500  50.3457975
  97.8826333  63.0526847  70.1535320  96.9759990  63.3546371  70.2090025
  97.8186417  62.1668929  69.7964525  38.2699398  14.9403209  51.9107866
  38.2734398  14.4853133  51.0686493  37.5750831  14.5125979  52.4112368
  67.5578356  98.4370422  50.8228922  66.7248535  97.9891300  50.9703779
  67.4094200  99.3286324  51.1379576  83.6568356  66.2174463  37.2940111
  84.4690514  66.6243410  37.5956202  83.3841705  66.7513800  36.5478206
  94.9870587  25.6729335  43.5294580  94.8752690  24.9815959  42.8769350
  94.2498828  25.5577964  44.1290808  84.5128632 100.5095577  27.4278426
  85.2569103 100.8375835  26.9228411  84.8935032  99.8639679  28.0232859
  19.0003590   9.1470641  32.9824424  19.8488907   9.3415088  32.5844240
  19.2054943   8.5564727  33.7072539 110.8462096  27.7244681  34.9224448
 110.0370742  28.0432338  35.3223538 110.9709502  28.2837791  34.1557360
 109.2882300   5.5476493  86.6914940 109.7485448   5.6714648  85.8614159
 108.4951878   5.0660914  86.4560795  37.1207527   1.8700618  63.6657524
  37.2685532   2.4995822  62.9600000  37.5735859   1.0772628  63.3782721
 107.2246742  92.7412891  73.3752441 106.7316151  93.5245800  73.6193466
 106.6712475  92.0126343  73.6563301  28.1199936  22.0865840  63.1035423
  27.5299362  21.5763682  62.5487995  28.7311844  22.4953956  62.4907255
  68.3201122  66.2999010  80.9942436  67.5019741  66.7905569  80.9158707
  68.9900446  66.9707680  81.1260223   1.4341930  18.0561561  40.4815292
   2.3671059  17.9194850  40.6465530   1.2443975  17.5137538  39.7160172
   0.5825379  90.5481052  37.0741534   0.2573350  89.6784019  37.3067427
   1.4187005  90.3825855  36.6386533 103.9358350  74.2017008  88.9003292
 104.8836800  74.1478754  89.0224972 103.7339588  73.5003401  88.2809955
   4.1075663  46.6782493  34.3505907   4.2685799  45.7364100  34.2936397
   3.9007763  46.9405574  33.4535599  22.2732738  29.8398894  35.1826477
  21.9020370  29.0062350  35.4715133  21.5209106  30.4283732  35.1204395
   7.7806667  38.9345378  66.5452242   7.6069740  39.8083133  66.1951113
   6.9182781  38.5986060  66.7894983 106.7034293  49.9989242  72.9437733
 107.4221278  49.5964545  73.4313440 106.7833377  49.6404094  72.0598507
  31.0231880   2.5319118  74.6634102  31.7180256   2.0828647  75.1448536
  31.4840797   3.0393142  73.9953089  21.5507130  19.2737121  15.4364836
  20.8738903  18.8317222  14.9238575  22.2885326  18.6639136  15.4353368
  73.9820934  14.5662040  69.1520405  73.7150241  14.3405837  70.0431061
  73.6582804  15.4577369  69.0234375  94.4128036  86.8569565  76.1132622
  93.9845276  86.1470604  75.6348801  93.6977196  87.4408150  76.3662672
  86.6008282  84.5424271  90.3296280  87.5241566  84.6540451  90.1033020
  86.3937473  83.6485577  90.0569725  34.6046452  61.7769806  -0.0824261
  34.3892913  62.6833050  -0.3025055  35.2417807  61.8480103   0.6283760
  79.4947053  27.4255198  39.2047524  80.3202391  27.1995563  39.6333122
  79.5780707  28.3569163  39.0003085   2.2237065  80.2618122  57.5376654
   3.0430749  79.8745489  57.2296333   2.4576142  80.6963348  58.3578539
  12.4633458 102.3914623  81.9723320  12.0203832 103.1654835  81.6246223
  13.3758119 102.4963856  81.7028332  98.9174271 103.6633492  66.2500763
  98.3702278 103.0058956  65.8204651  99.5347881 103.1547070  66.7757893
  63.0818796  94.7070312  65.2495718  62.6349115  94.5903015  66.0879183
  62.5028563  94.2928410  64.6097231  57.1457577  90.5788517  49.1584635
  56.3306570  90.1879215  49.4731379  57.2631598  91.3579941  49.7019482
  74.5935392  87.8879833  52.0670462  75.4054594  87.4737835  51.7747068
  74.6261883  87.8314781  53.0220175  36.7597011  43.7253112  65.6939745
  35.8097748  43.8338775  65.6482363  37.0881752  44.1549701  64.9042082
  79.3707132  87.4389839  65.9646463  78.6062288  87.0278454  65.5612087
  79.2290163  88.3779812  65.8445120   1.2392572  45.0754404  61.6123247
   1.0661080  44.1633606  61.3791656   2.1491483  45.2203894  61.3528538
  19.5840839  13.4534282  75.2114058  20.4384140  13.8245410  75.4319143
  19.2016987  14.0806026  74.5976686  82.1587849  68.8184786  45.5654573
  81.7620373  67.9615355  45.7219219  81.4253330  69.4323874  45.6027222
  29.1236352  62.6307322  76.4849627  30.0494956  62.8674723  76.5394068
  28.8140058  63.0570246  75.6858110  87.3485566  10.1589889  49.5336771
  86.5667678   9.7443503  49.1688299  87.9484750  10.2337760  48.7915611
  16.6093735  35.7081908  85.6797028  17.4400810  36.1047477  85.9422016
  15.9906010  36.4382762  85.6615448  53.6144352  97.6880169  12.9979920
  52.8054142  97.2827053  12.6858461  53.5875082  98.5779953  12.6466274
   9.4019894  56.2462539  41.0328627   9.6054176  56.5600890  40.1517534
   9.8271278  56.8756408  41.6154003  36.8647102  19.1257018  17.7698970
  37.2851757  19.6132583  18.4782290  37.5920299  18.7671298  17.2613025
 102.1396781  11.5301341  30.5715942 103.0840064  11.6613311  30.6567717
 102.0267916  11.1649627  29.6940184  92.9032851   2.7846354  69.9845314
  92.2852708   2.8093165  70.7150602  93.2072020   1.8773383  69.9584627
  51.8240695  57.3804848   5.1431751  52.7055125  57.2889512   4.7813416
  51.8614535  56.9235222   5.9834290 108.4229089  38.1379909  67.7863312
 108.9669753  37.9295081  67.0268869 108.6279870  39.0517730  67.9842806
  21.8423752  31.1249274  38.3559537  21.0999874  30.5243320  38.4220934
  22.5716881  30.6488818  38.7530851  89.1786861 100.3690720   7.1833909
  89.8132992  99.8822117   7.7091879  89.4132805 100.1674652   6.2775469
   2.9079107  38.5356730  32.7528095   3.3958677  39.2387408  33.1815553
   3.0252842  37.7783698  33.3263469  56.9605089  10.4372233  51.8558741
  56.7141867  10.2439803  50.9513235  57.0957042  11.3847178  51.8700933
  19.3262581  31.7012805  71.0870123  19.6793178  32.5605697  70.8563375
  18.3963398  31.7575473  70.8671951  40.5792718  57.7325909   0.2127743
  41.4442782  57.9803174  -0.1137638  40.0410227  58.5130971   0.0811577
   7.2712807  12.9104060  64.6158314   6.5246681  13.2900256  64.1524792
   7.0430664  12.9883021  65.5421591   4.5604233  17.9234046  28.4651518
   4.1112903  17.6563567  27.6631594   5.4737572  18.0363769  28.2019138
  78.7425376   0.1896495  57.1564293  78.5438348   1.1151809  57.0144892
  77.8917170  -0.2146607  57.3263645   2.0201496  26.2003154  33.3189178
   2.1936516  26.8799418  33.9702487   1.2928060  25.6974334  33.6854053
  72.5010872 104.3096638  26.7091870  73.2861423 104.6609592  26.2890482
  72.7542400 103.4314537  26.9935846   5.8482555   8.5205287  74.8469067
   5.0310091   8.6054725  75.3379536   5.8686260   9.2918986  74.2805099
  12.5899986  24.4797343  63.7347412  12.1133522  25.2227992  64.1047239
  12.8808216  23.9784450  64.4965506  99.7061063   9.2438239  40.9836769
  99.0557481   9.3487948  41.6781187  99.2091275   9.3483371  40.1723099
  99.3384552  97.8389168  50.6114054  99.4681740  96.9846344  51.0232353
  98.4093571  97.8554821  50.3817511 103.7205887 100.0259399  79.6233177
 104.3457222 100.6301785  80.0237465 103.5071373 100.4259968  78.7803316
  36.2174133  49.3321914  86.7258358  35.5727867  48.9797896  87.3394203
  35.6986812  49.6316070  85.9791756 107.7663326  82.0827579  67.2591591
 107.5809669  81.2221527  67.6349640 108.6096573  81.9754219  66.8192625
  94.2292690  97.4527264  50.9995651  93.9404392  96.5455627  51.0988331
  93.6190605  97.8304195  50.3661489   2.2572855   6.4635295  56.8187284
   2.2252659   7.2982615  57.2860861   2.6330141   5.8498591  57.4499798
  43.5680103  78.1855059  48.9770317  43.4753656  77.4823284  49.6198320
  44.0962219  78.8484430  49.4217014  31.0327629   5.5840034  79.1093111
  31.3437275   4.8845977  78.5345364  31.0562424   5.2014274  79.9864149
  19.5132545  36.4287013  55.2177525  19.6050743  37.3287505  55.5303383
  19.7331909  36.4746875  54.2872953  43.0711651  95.9535885  33.3854008
  43.5857105  96.7227077  33.1406116  43.4295893  95.6849575  34.2313361
 104.5783330  29.4740027  56.3559341 103.9926577  28.9840526  55.7787323
 104.9963332  30.1170081  55.7831717  11.6200832  13.1415671  88.1103897
  10.9796337  12.4787063  88.3685875  11.0974697  13.8365001  87.7101707
  12.4879936   7.1499938  82.1290398  13.1924633   6.5304011  82.3189354
  12.8380779   7.7042884  81.4315891  70.7607555  90.4547691  59.6012974
  70.8942461  90.7281971  58.6937475  69.9516153  90.8919621  59.8666143
  12.4253754  12.1854323  50.6069183  12.7143101  12.6916236  51.3662052
  11.4704517  12.1790999  50.6725836 105.7383776  34.8986835  29.9724197
 105.3711510  34.7045630  30.8347988 105.2115727  34.3789977  29.3652678
  53.0420351  88.7375736  61.7354679  53.5824394  88.3401108  62.4182749
  52.3049164  89.1241837  62.2081423  59.5512295 104.8478889  41.3046885
  60.0877380 104.7638416  42.0929337  58.9572096 104.0980530  41.3382053
 105.4339123  24.8759479  51.3267660 105.0990535  25.3159255  50.5454111
 105.4317475  25.5536574  52.0027304   6.5985683  24.6682090  61.8752289
   5.7290844  24.7687453  62.2626829   7.1214107  25.3622264  62.2767353
  24.6502117  20.0067252  48.8932228  24.2687706  19.3014735  49.4160509
  24.1456703  20.7835502  49.1345024 108.9093781  98.8428116  70.5201054
 108.9736843  98.2556725  69.7668695 109.7008705  98.6671829  71.0289478
 103.0614520  17.6358718  59.8776293 103.7810755  17.0160026  59.9965143
 102.5103093  17.5141639  60.6507158 101.2410832  48.7299079  65.2248240
 100.7561064  49.2663592  64.5977306 102.1569539  48.9736098  65.0905848
  47.5471405  10.7350272  14.4895482  48.3301071  10.5016440  13.9908266
  47.4609856  10.0381774  15.1400900  28.0859093  14.0976542  89.3681145
  27.6553825  14.9019069  89.6580219  27.4245457  13.6482162  88.8419724
 107.6617194  22.9289550  51.9605112 107.7381802  22.5159759  51.1003780
 107.1246529  23.7061137  51.8061686  98.5573054  27.8146667  88.0863285
  98.2155038  28.3550090  87.3739815  99.3108130  28.3034247  88.4173584
  33.0064968   6.1208838  47.3560953  33.4810356   5.6782264  48.0597258
  33.6486343   6.2071914  46.6515064  70.4222918  39.8575515  74.5048380
  70.8953286  39.9618548  73.6792517  69.6857310  40.4651279  74.4372606
 110.4662228   3.0405540  69.5526934 111.2495089   3.5350150  69.7939301
 110.2021790   3.4069175  68.7087250 101.5445472  15.9106654  29.9924517
 101.2390233  15.1292533  30.4531884 102.4369050  16.0436839  30.3121996
   6.3967518  12.2056216  83.0118275   5.5072884  12.3872394  83.3153152
   6.3342193  12.2324771  82.0570564   2.8162006  21.5119952  71.0553932
   3.4375433  21.5048617  71.7834806   1.9735960  21.7151374  71.4615726
  34.2122654  44.0439624  69.3777657  33.6672882  44.8307437  69.3922806
  35.0172905  44.3018931  69.8268032  78.1957865  36.0868472  71.9060087
  78.9133883  36.7188663  71.8633223  78.1334210  35.7349414  71.0180283
  92.7917576 101.2824631  48.4779787  92.6700401 100.3911495  48.8050413
  93.4608650 101.6582394  49.0500975  61.8023491  90.8520222  66.4070272
  61.2479925  90.1558018  66.7594481  61.7741156  90.7238388  65.4588652
  98.8521385 102.9342365  39.7673893  98.7406921 103.0312920  40.7131100
  98.9407158 103.8305759  39.4434166 100.3908253 102.5099850  49.9219704
 100.5845547 102.2652912  49.0170813 100.3958321 101.6810322  50.4005527
  25.0642685   3.1731624  74.3325186  24.7632698   4.0789241  74.2602348
  24.3088344   2.6964492  74.6764612   3.8639554  48.8734531  39.3657780
   4.4414085  48.2424259  39.7954130   2.9850191  48.5135937  39.4849539
  53.3264065   7.2467506  59.6538067  52.9620743   6.3655841  59.5699215
  52.7710772   7.7897984  59.0944004  12.0339108   3.2194668  54.2783594
  11.2699759   3.6293292  54.6841288  11.6755390   2.4838670  53.7816763
  15.6540811  44.4039869  67.0429564  15.6513488  44.1148043  67.9554272
  14.7616208  44.2413807  66.7374992  20.2034616  28.4058690  45.6104136
  20.5353212  28.9342499  46.3362980  19.3263829  28.7512875  45.4441214
  11.6714381  85.3976375  89.3777180  12.2681617  84.9788481  89.9980068
  11.1304616  85.9739142  89.9176025  29.5527792   7.0673007  44.3158102
  28.8316464   6.9722152  44.9380302  30.1950407   7.6089203  44.7744799
  30.0988044  64.7621376  90.3452019  30.3039892  64.8053510  91.2791524
  30.9296145  64.5347662  89.9277227   3.0249223  29.3650985  13.2403326
   2.2365652  29.8869467  13.0906677   2.6966006  28.5036039  13.4977472
 108.7133928  92.9811424  79.2742395 108.2029625  93.4312242  79.9473810
 109.0258356  92.1845299  79.7032118  43.9213514   2.7603006  16.0777724
  43.5618496   2.9124165  16.9517589  44.7296047   3.2727394  16.0587287
  36.9680882  23.9903855  45.3560686  36.6499424  24.0007067  44.4533443
  36.3699341  23.3999085  45.8140850  24.3359173  62.9022537   0.6631660
  24.7183753  62.9615103   1.5386391  24.0606929  63.7964653   0.4610062
   2.2103213   8.4723091  59.1548109   2.9372856   7.9486364  59.4917393
   1.8805853   8.9443374  59.9194670  61.0663982  74.9909526  65.4283905
  60.9153947  75.5655938  64.6779156  61.1271509  75.5849796  66.1765051
  97.2021803   7.8252190  22.0720148  96.7932090   8.1650603  21.2760997
  97.1590015   8.5525388  22.6927996  79.6860459  94.9203318  35.1379538
  79.0936305  95.6701261  35.1934814  80.5401363  95.2706462  35.3910184
  91.5291675  90.9298712  51.9067335  92.0016571  91.4498287  52.5568295
  90.6365439  91.2749058  51.9268656 104.5172140  35.2667546  54.0015745
 105.4164276  35.2340460  53.6751127 104.4284347  36.1452007  54.3712854
  26.9744396   6.8374026  45.4505682  27.0727181   7.7584690  45.6918383
  26.4678931   6.4548713  46.1670256  85.0851735  94.9240690  44.2571402
  86.0083731  94.8416263  44.4961786  85.0663050  95.6345266  43.6159468
  84.1199573 101.3102355  45.8827066  83.5348698 101.3448286  46.6394806
  84.5483752 102.1661401  45.8718634  72.4567890   6.5303582  13.9153695
  72.5353336   5.8573979  13.2392132  71.5369844   6.7936140  13.8855743
  58.9462360  92.3882872  59.4178677  58.0146488  92.1841913  59.4998550
  59.3837961  91.5391999  59.4797087  41.9790077  25.7092071  18.0152893
  41.6891146  26.5771794  17.7345467  41.2297678  25.1390314  17.8427517
  71.9016402  84.3662292  11.8483412  72.2361163  84.6677118  11.0036719
  71.6037031  83.4718138  11.6825449  30.0164270  10.1905358  38.9213181
  29.5215797  11.0068130  38.9923668  30.7553887  10.4071403  38.3527684
   9.2894512   9.8206019  31.3715243   8.6619240   9.4796306  32.0088458
   9.7249794  10.5415082  31.8263221  58.7968405 103.0042520  23.2707381
  59.0186378 102.1427974  23.6241984  58.0262216 103.2764275  23.7690353
  84.0344998  45.9787846  27.4435329  84.4854257  46.8228245  27.4656916
  84.1031763  45.6943989  26.5321374  27.8334069  40.4513073   7.3654139
  27.2051334  41.1638927   7.2482759  28.0048800  40.1349545   6.4784241
   8.0423671  17.2679365  62.0402431   8.8698649  16.8567908  62.2901154
   8.0890709  18.1474137  62.4151659  82.0130559  77.6036745  26.4261842
  81.3544091  77.0391565  26.0215402  82.4692532  77.0337492  27.0452976
  34.0597820  25.5894279  10.2585697  33.1724739  25.4427457  10.5862927
  34.5185852  26.0064077  10.9878552  80.0180908  86.6076463   0.2488353
  79.3151965  86.4346784   0.8751366  80.3566661  85.7411557   0.0234603
  82.9472806  93.3748215  33.3180261  82.2384246  93.5889119  33.9245915
  82.9870977  94.1231280  32.7224731  13.9967584  85.0731426  41.8078613
  14.1007327  85.9668392  42.1345568  14.2975282  85.1134759  40.9000397
  12.3627472   8.3629519  86.1158657  12.2603810   7.9930747  85.2389717
  13.3007252   8.5368866  86.1944485  80.0626161  90.1385373  21.8633533
  80.0435837  89.7088808  22.7184939  80.4135498  89.4748205  21.2695885
  29.8073816   9.6225929  65.8066177  29.8114276  10.1944661  65.0390387
  29.9737811  10.2100158  66.5438223   8.9458364   6.6710556  34.0322208
   9.0684557   6.3748562  33.1303000   9.2846251   5.9538496  34.5680094
  28.7882972   8.5431963  47.7737951  28.6111760   8.5092807  48.7138510
  27.9252505   8.6375427  47.3707056   8.9652908   4.1491508  64.5285130
   8.8864547   4.5734769  63.6741352   9.0670455   3.2192504  64.3256283
  37.9759550  19.0127802   5.6196851  37.6076937  19.4317353   4.8418081
  38.9142561  19.1949415   5.5683118  32.6418807  85.8322556  88.1304112
  32.3373489  86.1349041  87.2749022  32.4289940  84.8991282  88.1440660
  22.0329094  23.1244731  30.4603529  22.5232458  23.0409956  29.6425295
  21.1143517  23.1080222  30.1916313  35.2393413  -0.0225645  57.3005962
  34.9929643   0.6141525  57.9715061  36.1632180  -0.2053800  57.4716520
  33.6229825  24.6618080   7.2793251  33.3945847  23.7540770   7.4795574
  33.7346458  25.0751233   8.1354403  12.2734046  36.3290668  42.5957489
  12.2831953  35.4986835  42.1197271  12.1468520  36.0789943  43.5109997
  22.5452042  25.3493547  68.1873655  23.2494092  25.7984829  67.7198076
  22.4914837  24.4893050  67.7706385  77.4468663  89.4495576  33.0021501
  77.6640850  89.6273166  32.0870280  77.1160480  88.5513454  32.9996753
   2.4343490  90.5693298  75.9333706   2.0259237  91.4339620  75.9761810
   3.1492566  90.6729692  75.3053570   3.7429810  33.3747125  34.0196204
   4.6912768  33.2768941  33.9336061   3.5149586  34.0601420  33.3915901
  16.5849245  51.8546391  27.2521973  15.6323421  51.7714834  27.2958231
  16.7632651  52.7379799  27.5748920 105.8017817  28.9021587  20.6673956
 105.2681455  28.2540131  20.2076411 105.4424486  29.7460127  20.3934979
 100.4014024   9.6858317  66.6821718 101.1337087  10.2306557  66.9704914
 100.7593891   8.7985271  66.6544533   8.4690106  13.2584023  54.6054840
   9.0723646  12.7598953  54.0544081   8.8468426  14.1371894  54.6402264
  85.1667985  85.1934367  64.0941811  85.7728668  85.8236688  64.4836950
  85.0277134  84.5398432  64.7795296  15.4845475  91.5862030  63.7088585
  16.3852405  91.8186801  63.4831667  14.9455594  92.1383446  63.1424093
   6.0808074  69.2715263  44.1673708   5.7654250  70.1392126  43.9146185
   6.7203152  69.0432310  43.4927273   0.6969683  17.4377930  11.5571797
   1.6527569  17.3970723  11.5894544   0.5073528  18.2620955  11.1090696
   1.1936218   3.9991361   4.0887758   0.8829302   3.0994406   4.1900191
   0.5628538   4.4048485   3.4939978  88.2921752  95.9383183  24.5632410
  88.6300655  96.6730737  24.0511894  89.0284988  95.6710630  25.1133633
  60.0365877   3.0382505  78.1252337  59.4386673   2.3232822  78.3432674
  60.4916096   2.7383959  77.3382950  18.5808814  13.0088091  69.5883560
  18.0677652  13.5026073  70.2279711  19.2242754  12.5328827  70.1134920
  30.8225560  35.3845167  22.3600245  30.5889654  35.1918936  23.2680798
  30.9050679  34.5252085  21.9464898   0.9998360  31.0055900  72.5137568
   1.2980352  30.6651258  71.6703129   0.9021644  30.2288699  73.0645704
  21.8388367  10.3683484  16.7735302  22.1635199   9.7844052  17.4589670
  21.9153643   9.8575491  15.9676409   9.8023230  62.2809315  65.2732086
   9.4715315  63.0759382  64.8551416  10.6218755  62.0930099  64.8157692
  65.5587244   9.2642468  33.5936284  65.1853132   8.5762614  33.0427432
  64.9919796   9.2877072  34.3646550 107.8631228  24.8730969  35.1049972
 107.6637065  25.7526588  34.7843170 107.5740582  24.8795891  36.0174823
  23.3271551  20.8011699  54.0112877  22.5609517  21.3724089  53.9579105
  23.9194298  21.1311102  53.3355808  27.5520110   8.1569725  42.1585035
  26.8532205   7.8168011  42.7172565  28.3588195   7.8385848  42.5633717
  75.5870919 102.3437583  29.9606633  74.7888174 101.9600260  30.3236222
  75.2990653 103.1666457  29.5655298  88.6289284  24.6081829  34.9051070
  89.0478775  24.8525262  34.0798759  89.2493793  24.0093088  35.3205872
  92.9295465   7.5091422  38.1846094  92.8625891   7.5513959  39.1385293
  93.8387188   7.2596276  38.0191422  26.8841218  99.7844231  58.5055542
  26.3617849 100.3590518  59.0651989  27.7355050 100.2177608  58.4455872
  54.5578241   9.4442624  47.3454857  54.2927361   8.7710905  46.7187452
  54.5758581   8.9923233  48.1890821   8.1495988   8.7648994  54.8153496
   8.0370075   7.9072362  54.4055080   8.2845670   9.3649691  54.0819120
   0.6909584  94.5485908  40.4492044   0.2675437  93.9779609  39.8078537
   1.6279911  94.4102555  40.3111267  29.2175102  13.7217283  35.0058270
  29.6264577  14.4957864  35.3929043  29.9530864  13.1718659  34.7359920
  15.7185447  23.4487772  31.9088078  16.6699409  23.4731174  31.8064165
  15.3910148  23.1982470  31.0449839 107.7397400  27.9345822  50.3488541
 106.8762651  28.2429910  50.0740337 108.2379684  27.8608131  49.5348787
  74.4752450  79.9864991  77.2721279  73.8234349  79.4759233  77.7524269
  75.0826116  80.2933938  77.9452944 108.5801121  94.4308656  50.3928137
 109.1856166  93.6895364  50.3980398 109.1155549  95.1793188  50.6561613
  44.9851847  38.0772114  27.7496910  45.7811546  37.5458241  27.7666330
  45.3007030  38.9807868  27.7344847 102.2939274  40.8113432  37.3191142
 102.6148149  40.8590937  36.4185667 101.3427159  40.7500839  37.2315049
  11.0642623  74.4139653  41.8825817  10.6046437  75.1936847  42.1940565
  11.6805171  74.7443324  41.2288857 101.6369411  98.6547947  12.9923892
 101.1433598  97.8639871  12.7750552 102.1916529  98.3962148  13.7283659
  19.5384443  31.7214298  45.9592390  18.7010932  31.3025618  45.7601881
  19.9074948  31.9379115  45.1029873 101.2807914 100.0242477  10.7566714
 101.1843439  99.6962803  11.6507459 102.1838637  99.8127717  10.5200922
  26.9602013  28.5965633  19.3164885  26.9233036  28.4558964  20.2625775
  26.5786743  29.4650483  19.1884112  13.8910865  88.4491199  24.5899844
  13.8150977  87.5088519  24.7523212  14.2245912  88.5114616  23.6949301
 110.7309409  99.1771388  20.3450036 110.2718540  98.3400744  20.2757645
 111.0799714  99.1858786  21.2362576  42.1413517  40.5017090  70.9301281
  42.6716089  40.9746599  70.2887392  42.5952578  40.6362581  71.7620516
  16.5180779  14.4613183  19.2988217  17.0968568  14.9943566  19.8439074
  16.7403781  14.7079086  18.4010434  11.4614522   1.3843910  57.4099493
  11.7495322   0.5087150  57.6676989  11.4333224   1.8781671  58.2294798
  14.6453618  92.3938733  42.4659538  13.7996101  92.8182190  42.6104021
  15.1207017  92.9959041  41.8933773  10.7152450  26.1632514  51.8052959
  10.8406949  27.0790148  52.0540380  10.3730249  25.7451630  52.5954342
  88.5373256  29.8996043  70.7841873  88.3081481  29.0872574  70.3327417
  88.1982657  29.7841763  71.6718531   8.6023861  33.9240360  31.7386866
   8.7097013  34.3312693  32.5982666   9.4963473  33.7895799  31.4240670
  47.4974585   9.9155420  24.8521018  47.0141792   9.1195828  24.6304703
  48.4047461   9.6259731  24.9480772  10.2205813  18.5968709  56.8187380
  10.4770935  18.9067626  55.9501743   9.2669713  18.6788797  56.8303251
   3.6790732  40.1681232  54.9872780   4.1017860  41.0198307  55.0974512
   4.1764981  39.7423935  54.2890263  18.0170918  36.3133979  48.3091545
  17.9192173  35.6329751  47.6430655  18.5604322  35.9096694  48.9859247
  39.0042543   3.2869467  48.6876822  38.3576298   2.8227311  48.1560659
  39.8292089   2.8351519  48.5100222  50.7431746  34.5443535  35.8577538
  51.3937712  33.8646698  36.0337853  50.0691938  34.1027093  35.3410983
  39.7994709  28.5107708  52.0162678  40.5734587  29.0409613  52.2062063
  39.6854186  28.5843039  51.0687351  48.7993956  16.6541576  55.9213591
  48.0571365  16.1320496  56.2258101  49.0181971  17.2157967  56.6649437
  16.2509561  23.5002971  47.1988964  15.6483126  23.8569784  47.8514528
  15.8565176  23.7302566  46.3576078  38.6653137  16.6651666  28.2679224
  38.6590743  16.0082078  28.9640522  37.7432704  16.7783809  28.0371642
  16.8776655   9.8818594  40.1796150  16.9757187   8.9389080  40.3117514
  17.6390982  10.2651739  40.6149530  21.7301393  52.8779697  47.9417944
  21.0416889  52.7249527  47.2946072  21.9348001  52.0077944  48.2840633
  37.6135159  14.0941763  34.5208573  36.8622732  14.3094146  35.0736117
  38.0916405  13.4283769  35.0151658  38.6883140  43.8523149  22.7784705
  38.0385828  43.2378483  22.4371338  38.4309316  43.9912796  23.6898851
  42.4641418   9.4291019  57.1028614  42.2131729   8.5104758  57.1996737
  41.6726160   9.9185246  57.3268795  22.2362328  54.6824789  35.5038977
  22.7367735  55.1619816  36.1640215  22.1966314  55.2770090  34.7547674
   4.9109887 103.4393808  76.5239525   5.0105619 104.3642738  76.7495394
   3.9904212 103.2471029  76.7023373  20.6728244  44.3766403  35.2348208
  21.3466573  44.0127039  34.6605968  21.0792732  45.1536751  35.6185532
  30.9203959   1.0595646  37.3863316  31.6603804   0.7368900  36.8720007
  30.3162622   0.3182663  37.4279571 107.5240298 103.6042058  15.6192338
 106.5718838 103.6987188  15.5925250 107.7913495 104.0917238  16.3983989
  98.9423761   0.7266445  74.7502708  98.6323974   0.7973339  73.8474178
  98.1434783   0.7115960  75.2773094  26.2019873  14.6421051  52.2983837
  27.0398879  15.0611520  52.1020365  26.4365864  13.7578499  52.5799656
  48.3469200  19.2550588  66.0485363  48.2679319  18.4269679  66.5220976
  49.2005491  19.2045259  65.6184292   1.5191864  74.7219044  26.1591315
   0.7479190  75.2271443  25.9020185   1.9688820  75.2782613  26.7951131
   3.5131449  14.6266735  41.8736124   3.7137103  15.5206418  42.1507835
   3.8770607  14.0741098  42.5653267   1.9150658  26.9571972  50.1219749
   1.9515546  27.6619029  49.4752216   1.0984284  27.1103406  50.5972481
  18.5217702  45.0296593   8.3010167  19.2565763  44.5457602   8.6780196
  18.3986712  44.6415806   7.4347174  20.5695963  28.4273481  26.6955161
  20.7897139  29.2672634  27.0984077  20.3551817  28.6456394  25.7885408
  13.1610154  99.2257887  59.4717216  12.9728603 100.0936788  59.8289251
  13.6107635  99.3994772  58.6448050  46.0485983  50.1170874  36.9375277
  45.9775925  49.2550945  36.5274620  46.9890070  50.2476978  37.0592165
  40.4838657   2.3629339  66.9658613  40.7020998   1.7335999  66.2784433
  40.3355265   3.1854415  66.4992714  15.3350985  41.4486933  29.4320631
  15.6132162  41.6755247  30.3194356  14.6522617  42.0866203  29.2246532
  34.5114613  12.7975774  23.8083076  34.7291827  13.3852339  23.0847836
  34.8134804  13.2588911  24.5907450   7.1690845   2.9244062  44.0214825
   7.1084511   2.1037462  43.5325336   7.6756179   3.5048309  43.4533596
  29.6943545  40.7502222  32.7774978  30.2527761  39.9987721  32.9767942
  30.2861023  41.5021229  32.8041315   1.9403552 102.3446077  45.2556229
   1.0799002 102.0531541  45.5571270   2.5560855 101.7364061  45.6645203
  10.7276630  94.9003798  64.4260311  10.5331945  94.1398352  64.9737453
  10.3428172  95.6394559  64.8970842  31.9238757 105.0872029  27.7508473
  31.6145324 104.6914138  28.5656404  31.1292314 105.2277277  27.2360420
  31.8947005  44.1916656  29.6322560  31.0793138  44.2585945  30.1291418
  32.5111198  43.7799549  30.2378583  29.3360186  18.9040756  37.9174781
  30.1863909  18.5129964  37.7170849  28.7192726  18.1736004  37.8699183
  17.0192397  10.8431566  33.3200693  16.1534345  10.6155288  33.6588907
  17.5143635  10.0248802  33.3589029  24.6484971   7.8563029  88.3836555
  25.2922249   7.3473507  87.8908920  23.8114476   7.4332160  88.1924057
  24.1202593  70.0788164   8.4886467  24.6775627  70.8477974   8.6082894
  23.4948659  70.3391409   7.8123730  40.2950668   6.8988574   2.0760886
  40.3348970   7.8546786   2.1085235  39.8985338   6.7043418   1.2268783
  72.8515822 103.4311348  49.6294785  71.9299769 103.5303615  49.3906689
  73.3324838 103.7269172  48.8565111  39.5055914  43.6870670  34.5579195
  39.8402047  42.9866791  35.1180267  38.6831594  43.3428812  34.2095399
  23.4196663  31.0252357  62.4038029  24.0235710  31.2520194  61.6966248
  23.7079692  31.5578938  63.1450081  54.4786215   8.9717644  33.1183839
  54.4704008   9.5522738  32.3573494  55.3156137   9.1505766  33.5469866
  34.6737099  24.8076534  34.2314744  34.7834277  24.4969225  33.3327866
  34.0829778  24.1713619  34.6344638  12.7484047   6.0755599  15.6166637
  12.5878584   5.2136350  15.2325523  11.9926298   6.6001201  15.3523290
   0.9413851  28.2751894  11.2665761   0.3241558  28.0523610  10.5697203
   1.4127335  27.4600649  11.4387250 108.7963933   8.6546910  54.1476583
 109.3624374   7.9906607  54.5412159 108.0778700   8.1565356  53.7580490
 104.7036120  97.3623132  44.2643833 104.5214006  97.6697981  45.1523495
 104.0838500  96.6458738  44.1271114  95.2593728  98.3504027  60.9738827
  94.9691435  97.5379836  61.3885832  95.2000900  99.0076834  61.6672087
  41.9966412  26.1637497  37.9514122  42.2763491  26.2962222  37.0456266
  41.2160015  26.7099953  38.0433464  39.0290928  41.1283445  50.2392483
  39.4172931  40.3114843  50.5527353  39.7750878  41.6498327  49.9429846
  24.8970938   6.7449206  21.8410683  24.3615222   7.4745059  21.5294552
  25.5395031   7.1508539  22.4230981  35.6855941  22.5145650  30.1780534
  36.5361309  22.1048546  30.3360319  35.8929253  23.3254766  29.7136545
  16.9532871  20.9081435  44.9456596  16.7290640  20.8550000  45.8747101
  17.1941078  20.0133157  44.7058296  24.7753191  33.0669522  48.9693832
  24.2861915  32.3882532  49.4345236  24.7413707  33.8271594  49.5500422
  98.3153245   5.1086271  50.6245947  99.0952501   4.5664993  50.7431078
  97.8183278   4.9935755  51.4345264  71.3882094  90.8916849  72.2530937
  71.8097585  90.4164856  72.9691315  70.7340866  90.2812546  71.9128990
  44.0333128   9.9739766  71.5642834  43.2224417  10.0032806  72.0720816
  44.6567345   9.5237911  72.1342897  36.3189220  15.6893170  63.8703585
  35.6814790  16.3223183  64.2008209  36.8706322  16.1944914  63.2731581
  68.9152718  28.9405727  34.6382952  69.6715021  28.8284683  35.2142978
  69.0121460  28.2531357  33.9792967  87.4750682  76.2503248  59.1438627
  86.9418784  76.6649443  59.8221159  87.3599216  75.3112823  59.2893648
  44.7867680  15.0074136  59.6584463  43.8387537  14.8783743  59.6876574
  45.0455904  14.6870053  58.7943983  31.5219498  39.9211264  67.2287416
  30.9468794  40.5107450  66.7410183  32.1420550  40.5018616  67.6697016
  42.9399395   4.0752426  72.4113083  42.2173023   3.6028749  72.8246975
  42.5540638   4.9048781  72.1301699  29.4016123  18.6213863  76.7435884
  29.5874882  18.1129014  77.5329733  30.1842070  19.1570854  76.6139555
  48.4051085  46.3954687   9.4978505  47.8514385  45.8604574   8.9291286
  48.7497282  47.0786572   8.9227706 111.0238472   8.7532914  19.8519051
 111.1584958   8.6909777  20.7975364 110.6231040   9.6129805  19.7231746
  11.6248035  74.5283967  14.6747100  12.3229121  74.2464477  14.0836251
  11.2185525  73.7139874  14.9712396  51.3748312  45.0526428  10.4513502
  51.5552473  44.2632771  10.9618258  50.5848980  44.8408842   9.9539655
  47.1604490  22.1830225  26.3592434  46.9498968  21.7705679  25.5215192
  47.7960300  22.8637099  26.1380291   1.1728143  84.8051125  25.4522943
   2.0126366  85.2578407  25.5295444   1.4004492  83.8753921  25.4584932
  92.5728079  99.7220534  43.4131098  92.1181091  98.8934791  43.5645866
  92.9044338  99.6530884  42.5178432  15.2397370   3.7896255  39.7791171
  15.6233692   3.7736824  40.6559324  15.7787192   4.4137985  39.2931771
  94.1707297 104.7765486  28.3045197  93.5840925 104.1056877  28.6538529
  93.6770018 105.5925191  28.3861136  34.2476845  50.9426355  10.9262335
  34.4040608  50.6013298  10.0457287  33.3460951  50.6895924  11.1245728
  11.5504563  66.1999464  31.2121367  11.5409994  66.9859982  30.6659985
  10.7709944  65.7130241  30.9445953 104.8098299  31.9340515  67.5510168
 104.6420661  31.0260987  67.2986078 105.1898339  32.3338199  66.7687035
  10.8264291  34.2846513  55.6840277  11.5914130  34.6632290  55.2507734
  11.0488534  33.3607268  55.7985926  83.0542334  92.8553837  47.5500154
  83.1474181  93.6194235  46.9809914  83.2404836  92.1086865  46.9808149
  83.3870008  85.4777544  20.0700402  83.1762203  85.5379766  19.1382802
  83.9587059  86.2274879  20.2352214  18.8042676  41.1998034  29.9466467
  18.3152020  41.0629511  30.7580161  18.6726546  42.1253061  29.7408581
  47.6546907   9.4195795  36.2495756  47.4376345  10.3390169  36.4036989
  46.8513727   9.0403455  35.8930683  64.4249487  63.2134151  27.5667405
  64.2583561  63.3848619  28.4936070  65.3759241  63.1221294  27.5072050
  26.6092253  20.4163742   2.4894024  26.3369703  20.5255389   1.5782535
  26.9570303  21.2723184   2.7396461  34.5082903  32.1948814  17.6667857
  33.9692020  32.9653001  17.4877036  34.2515373  31.5617990  16.9963264
  39.4359183  37.4350166  26.2698460  38.9206743  36.8990541  26.8727541
  40.0592852  36.8231368  25.8783770  46.0106039  29.9005103  29.8879981
  45.7240534  30.7596469  30.1978445  46.9563770  29.9910784  29.7716236
 105.3234336  35.0658393  18.1128418 105.8689436  35.7297206  17.6910460
 105.6502965  34.2340779  17.7699673  21.5342999  30.0265646  57.8137398
  21.8455744  29.3995214  58.4665442  21.2966347  29.4882393  57.0587873
  67.3125930  63.3280630  79.7156358  66.8420978  62.8780086  80.4172897
  66.8142886  64.1323669  79.5706511  15.5132759  19.2858553  50.9539747
  15.8795667  19.7803462  51.6871500  16.1103463  18.5461426  50.8418894
  35.6025409  89.6972733  78.2421875  35.8279132  90.6019693  78.4589005
  34.6555709  89.6484464  78.3729362  45.1180124  46.5303183  22.0063090
  46.0500288  46.3136435  21.9811487  44.6759939  45.7143593  21.7716670
  16.4906228  43.4572124  38.2880855  16.0816109  44.3226242  38.2905602
  17.4304020  43.6365414  38.2582808  12.3986936  18.9921343  76.0563374
  12.2296572  19.0433609  76.9970989  11.9315803  19.7419846  75.6878805
  28.1734657  30.5733991  37.3091054  27.5585222  31.2774897  37.5148535
  28.2911396  30.6277013  36.3607192   3.1693696 100.6916097  71.3225031
   3.9622401 100.9087962  71.8128300   2.5951456 100.2776652  71.9668245
  56.7323589  14.7601151  30.2104044  57.2352076  15.1886487  30.9030342
  56.4896345  15.4702580  29.6162558   3.7881755 103.3247268  40.8098173
   4.6946906 103.0880332  41.0058594   3.4214973 103.5880638  41.6538763
   4.4027430  20.8698821  19.5189238   4.6795440  21.7409396  19.8033035
   5.0604343  20.2783036  19.8845875  31.3506889  28.5506368  52.0462465
  30.4835129  28.3404160  52.3927212  31.1753559  29.0258598  51.2340546
  66.1059999  16.5127289  57.2931957  66.4756155  16.4366770  58.1728745
  66.8444967  16.3449597  56.7077780  49.3425846  44.8162794  29.5512652
  49.9528360  44.2063141  29.1368127  49.6060705  45.6769753  29.2256737
  30.9124827  14.4897628  17.9212296  30.3904462  14.9138045  17.2401285
  30.4229116  13.6966681  18.1393003  10.8192384  48.5997248  28.0356693
  11.0266709  48.5440302  27.1028781  11.5439951  49.0984249  28.4128428
   2.1207477  57.4215889   9.3062896   2.8501379  58.0380249   9.2412597
   2.4303582  56.6358089   8.8558167 104.6606275  93.3874088  22.7752304
 104.2516824  92.5697440  22.4916458 105.4919835  93.4162396  22.3016834
  43.7033606  37.4360847  22.8276610  44.5559835  37.0018959  22.8549790
  43.5567427  37.7327013  23.7258554  23.4329009  40.3862524  33.6646843
  23.5330319  40.5296516  34.6057701  23.1720686  39.4684172  33.5886812
   8.6737203  98.0048764  55.5956125   8.4710216  97.1312237  55.9300947
   7.8225135  98.3756375  55.3627729  39.3379879  25.0195694  42.1234131
  38.8096905  25.5704808  42.7010202  40.2126360  25.4069948  42.1569586
  13.3945417  10.4079831  62.6867723  13.0563354  11.3016903  62.7427769
  14.3431449  10.5052197  62.7700138  38.0634212  46.0829306  39.0842986
  38.6798263  46.7217398  39.4423461  38.6177421  45.3865862  38.7320709
  16.1614811  10.0384903  10.5938315  17.0223188   9.6835655  10.3719807
  15.6416011   9.9204320   9.7988349  35.3262568  26.2994981  36.9378805
  35.4351306  25.7494283  37.7136397  35.3822732  25.6897593  36.2021399
  94.5778319  62.7826071  53.2248402  94.2377338  62.0941401  53.7963104
  94.0224943  62.7436113  52.4461794  38.5838437  25.5514121  37.2161102
  39.0543795  24.7308898  37.0692396  38.0843401  25.6884599  36.4111590
  46.7066622  17.0140183  77.9729891  47.1071959  17.8256536  78.2845163
  47.4374628  16.4007330  77.8952742  22.2627616  43.2276440  32.4923015
  22.3651242  43.7930489  31.7267466  21.8941593  42.4161816  32.1431732
  94.1149827  77.6440197  28.4176588  93.4460648  77.0201188  28.1356525
  94.1699179  77.5240522  29.3657207   8.5993367  47.6000834  35.2921653
   7.6578933  47.6569653  35.4555082   8.6698776  47.1418333  34.4547534
  45.4545975   2.2950171  68.6289501  44.5339155   2.5158718  68.7696695
  45.6879091   2.7464223  67.8177595  32.8213286   3.0815735  31.9850802
  32.2854662   2.6875740  31.2967157  32.7561688   2.4702562  32.7187538
  35.9568977   6.1550337  69.3598032  35.0113010   6.0622966  69.4758987
  36.0894322   7.0915127  69.2125845  39.1189122  13.3574390  32.4034309
  40.0585794  13.2553840  32.5545740  38.7487292  13.4883261  33.2763934
  13.8291538  41.5947676  66.1036062  13.2943368  42.2487307  66.5536404
  14.6686172  41.6144991  66.5631104 107.1273705 104.1355450  40.8616972
 107.8247758 103.8003602  40.2982140 106.3375350 103.6891485  40.5565405
  39.4640279  45.5517054  64.6012545  38.8958597  45.7329416  65.3499651
  40.3058815  45.9396839  64.8399782  87.2370442  88.0033165  30.8216691
  86.5038165  88.2792252  30.2716851  86.9715055  88.2387691  31.7106485
  80.3986450  98.8786787  51.1372471  81.2718608  99.1809177  50.8874941
  80.3076281  98.0281341  50.7076883   4.6480510  20.2686262  53.1432390
   4.5582238  20.1431632  54.0879202   3.8949579  20.8072829  52.9004812
  32.7834320   8.0052125  44.5480299  33.2245374   7.1557099  44.5465803
  32.3785472   8.0633742  45.4134321  39.6002626   5.5862284  52.4964666
  39.4980574   6.5000027  52.7625561  39.4901681   5.0873137  53.3059120
  31.2783170  12.8445768  41.6615152  31.0752583  13.0948460  40.7602024
  31.8218064  12.0612967  41.5759420   3.5809699  32.2669911  46.3334370
   3.8452893  32.6288962  45.4876280   3.5794142  31.3193464  46.1985254
  17.4073613  12.8002763  45.4869175  17.5210357  13.3869123  46.2346935
  16.4735627  12.5899172  45.4873085  13.9923418  14.8447645  38.1788611
  13.8615775  14.1507959  37.5326872  14.2943966  15.5949771  37.6668310
 102.1594182  46.1391878  61.0366440 102.8440490  46.6458797  61.4734221
 101.9503370  45.4376173  61.6533422  30.4958487  16.6477156  57.4640274
  30.0461960  17.4682796  57.2622299  30.1215029  16.3686848  58.2996368
  85.1070365  97.7848065  66.4485168  85.5524644  97.7686512  65.6014252
  85.3122564  98.6467737  66.8106365  20.2365446   5.0848401  15.3981471
  19.9408972   5.9295499  15.7376909  20.8778429   5.3089499  14.7237992
  25.2647233   7.4376941  30.0551271  24.8016071   8.0381936  29.4710422
  24.6850324   6.6794610  30.1277304   5.8438205  89.7959774  39.3599176
   5.4543018  88.9986163  39.7186995   6.0948610  90.3070718  40.1293278
 103.6308285  98.7456715  36.2371969 104.2254873  98.7546611  36.9872189
 103.0611964  97.9921931  36.3921905  20.3726983  17.2490275  26.0185909
  19.6108496  16.7813873  26.3608360  20.6775808  16.7089701  25.2894711
  20.6385398  37.8282261  37.8611183  20.2837801  38.5375881  37.3252225
  21.0780334  38.2725525  38.5861373  24.4648385  43.9124537  60.9024858
  24.0066886  44.7518015  60.8597660  25.3873706  44.1366529  60.7804155
  34.2700315  16.7020893  34.0028691  34.8039412  16.0171938  33.6002660
  33.8782763  17.1662986  33.2630944  34.5868969  17.6802957  64.5490694
  34.2860866  18.3103013  65.2039242  34.4866395  18.1368041  63.7137365
  35.7335496  32.2611976  21.3491440  36.2530994  32.2032714  20.5473065
  36.2944341  32.7335811  21.9643617  32.6617946  63.5112102  89.6342848
  32.7704208  62.7012445  89.1358992  33.3008511  63.4434588  90.3436846
  18.3252382   6.8130147  50.8203983  18.8189173   7.5309819  50.4241180
  18.0833638   6.2529117  50.0828266 101.5509959  99.0846771  28.3222008
 102.2983595  99.4824898  28.7687707 101.7892595  99.1012865  27.3952770
  54.2101240   5.1237839  28.4359837  53.8147640   5.3944516  29.2646337
  53.7987709   4.2824969  28.2378507  26.4511442  58.1147861  32.1861219
  25.7491851  58.2673407  31.5534997  26.1136460  58.4696102  33.0085731
  46.8886757  25.5611086  54.5353317  46.2836409  26.2963319  54.6333551
  47.3598671  25.7453728  53.7227678  37.9872966  23.3031368  53.0895567
  37.6613712  22.8675413  52.3019886  38.0403161  24.2276716  52.8473616
  31.7456412  24.3871498  17.8507698  32.4221087  23.7348676  18.0328441
  31.9610071  25.1222134  18.4248149  34.0297604   2.1347114  49.5436954
  34.5462656   1.6260934  50.1688051  33.2368445   1.6155259  49.4096661
 108.8500973 102.0612493  75.9287691 107.9793497 102.4337160  76.0676861
 109.0570136 101.6218245  76.7535830  33.5894275  33.4427524  63.9061308
  32.9704022  33.9958620  63.4295702  33.3547473  32.5493550  63.6551380
  26.8788385  14.7676253  38.3661199  25.9532690  14.9954224  38.2785797
  27.0163441  14.0725803  37.7225089  58.9718580  21.0245275  79.6646595
  58.8309717  20.5405664  78.8509226  58.9707565  21.9442892  79.3995714
 107.0925995 101.2253231  30.6903243 107.7858182 101.6611236  31.1860609
 107.0362350 101.7193350  29.8723936  26.7471004   3.4643322  84.3566799
  26.9932961   4.0392727  85.0812912  25.9360814   3.8419324  84.0162373
  58.3185434  19.4669533  41.9503260  57.8053617  20.2576208  41.7838192
  58.9964342  19.4746733  41.2745762 110.5558487 104.7619126  42.4514008
 110.5691572 104.3768343  41.5751791 111.4652630 104.7168879  42.7466488
 106.6827580  91.7951327  46.8700981 106.1076685  91.0305065  46.8992758
 106.5342899  92.2385078  47.7053261   4.0955395  39.4348621  42.1116972
   4.2974243  39.1003489  41.2378740   3.2549956  39.8811531  42.0090199
  15.0850141   4.7759002  58.3850241  15.1931524   5.4794973  59.0249348
  14.6507895   5.1933718  57.6411152  80.0818571 101.1752119  59.0078354
  79.4017538 100.7691839  58.4704018  79.6312805 101.8812674  59.4711876
  43.2351255  30.8787084  42.0780611  42.3934317  31.2172222  41.7727852
  43.3486605  31.2663507  42.9458618  63.8636637  26.5758777  54.2310905
  63.9008570  26.9584513  53.3544588  64.2621040  27.2364235  54.7977924
  32.3534966  27.0457339  55.2190351  33.0674267  26.5797281  55.6542015
  32.5690532  26.9981742  54.2876339  57.7294827  17.1281576  24.8647904
  57.7106524  17.8144908  25.5317426  57.9779100  17.5829780  24.0600228
   7.2670346  46.4361000  78.7959194   7.7024865  47.2193289  79.1323185
   7.5075305  46.4074183  77.8698683  56.7037106  33.0649614  39.2065048
  56.4788961  32.6405239  38.3785295  56.3585615  33.9537144  39.1215205
  42.3707581   7.8761345  24.4447064  42.2534513   8.8257176  24.4723177
  43.0277014   7.6963001  25.1172519  49.9989176  16.7148304  65.3622961
  50.9471846  16.7502415  65.2367210  49.8742628  16.8878222  66.2954473
  89.5921516   2.5062940  52.2130632  89.8785782   2.4501702  51.3014507
  88.6399269   2.4185103  52.1707726  32.8472114  18.4973562  20.8766437
  32.5686407  18.7232816  21.7641044  32.4913335  17.6210070  20.7296968
  30.0574088  26.4800858  70.8753729  30.3682566  27.1526265  71.4814234
  30.4149985  25.6622982  71.2211895  17.0218349  10.5891240  58.2006264
  17.4351656  11.1790109  57.5702143  16.6493666   9.8888344  57.6648188
  29.2774105  29.4595408  43.6605024  29.3858051  29.7012305  44.5803261
  29.3312287  28.5038638  43.6560297 109.7065213  28.1147146  44.8761034
 108.8018057  27.8568029  44.6994591 109.9808957  28.5817027  44.0868807
  10.4211664  30.0468373  28.5231376  10.1390469  29.4374728  27.8409982
   9.6311325  30.2132320  29.0373278  95.7410904  88.2379681   9.0875030
  96.4824864  88.0797118   8.5031068  95.6189891  89.1871458   9.0678608
  14.6442365 102.0440256  46.4490557  14.7180700 102.8912499  46.8883610
  14.1422557 101.5017050  47.0574474   4.3784875  33.7214756  37.1699119
   4.4406649  34.0888143  36.2881947   5.2864563  33.5616994  37.4273920
  44.2997837   9.2802083  15.1272273  44.6313572   8.5429990  15.6398833
  44.5145893   9.0578431  14.2213321  16.1735976  30.0089955  30.4723263
  16.7565525  30.2594924  29.7556329  15.6381357  30.7868814  30.6285548
  26.0742044   0.0976894  46.4912844  26.0766768   1.0541663  46.5284014
  26.6699553  -0.1156749  45.7731009  51.1576223  15.9323800  15.7520747
  51.0167122  15.3110886  16.4664781  50.5701399  15.6355178  15.0571167
  37.8203082  31.8142581  64.5907831  37.2008395  32.4551415  64.9397182
  38.4032416  31.6203332  65.3248215 101.5853748  12.1959150  41.8616676
 101.9458404  12.6152706  42.6429701 102.0592156  12.5981605  41.1337185
  10.6610239  53.6354589  63.6863136  10.4160893  53.2152843  64.5107508
  11.5807593  53.4011841  63.5620832  35.7249761  17.6536655  28.1750178
  35.5514359  18.0535269  29.0272069  34.9571776  17.1076894  28.0058217
 111.3257118  99.6041423  36.8322229 111.8538352 100.4011118  36.7857838
 111.9563480  98.9096677  37.0225763  39.7794271  17.4644005  51.3660383
  40.0266504  17.8367043  52.2125053  39.2638373  16.6887665  51.5869284
  30.0262547   3.7120771  49.7821760  30.7588911   3.7436074  49.1669655
  29.5980835   2.8751463  49.6020365  13.8362932  28.0197191  39.2779827
  12.9473829  27.7119732  39.1008854  14.0409422  28.5969162  38.5423231
  38.5229635  26.2069702  15.3414309  38.1582260  25.3239679  15.4006553
  38.6958170  26.3326287  14.4083905  21.5071940  17.0461726   3.0011484
  20.8123946  16.3942337   2.9091585  21.2514281  17.7538848   2.4095751
  59.8960447  30.9377933  33.0275607  59.5221806  31.7346668  32.6514626
  60.7779980  30.8897686  32.6586628  88.8128575 103.0102643   7.1364540
  87.8997108 102.9820567   7.4221098  89.0971562 102.0963987   7.1524435
  59.7446680   1.9380388  44.7973537  60.1536036   2.2412629  45.6079435
  60.1688862   1.0997768  44.6140814  49.6484204  89.2750127  86.7137843
  48.9108665  89.8845465  86.7405197  50.4177459  89.8229868  86.8690154
  70.5730410  85.1838572  91.0278045  70.9023137  85.6399591  90.2533492
  71.3335772  84.7146947  91.3708837  18.6808860  82.7112865  41.0518456
  19.1983974  83.3684063  40.5864429  17.9250610  83.1943035  41.3859940
  98.2282897 103.7035312  42.1125460  97.3639389 104.0528203  41.8954563
  98.0723520 103.1254363  42.8593540   8.6049932  13.8295507   9.8087192
   9.1453850  13.2224059  10.3142715   8.5474366  14.6122396  10.3567302
   8.8766426  47.0176935  50.7871246   9.0801227  47.0304394  51.7223597
   9.6602529  46.6522360  50.3764772  15.7779360   3.3200207  44.7283363
  15.0065780   3.6856788  45.1613855  16.0198081   2.5661504  45.2663040
  75.4517556  67.7108000  10.2889824  75.9705997  67.9081021  11.0687923
  76.0850359  67.7201186   9.5712757 102.5477620  96.1950284  48.5355997
 102.0829054  95.4060989  48.2567978 102.8406736  95.9985691  49.4254541
  19.6896219 101.1831009  46.1900759  19.7633218 101.7674803  46.9445944
  18.7497472 101.1350074  46.0152817  47.4686050  34.7134066  47.8739738
  47.4785614  34.8901892  48.8146591  47.9109049  35.4673553  47.4838877
 108.5746673  75.3576326  47.4507523 109.0841338  75.8097410  46.7782354
 109.2198291  74.8398542  47.9323149  34.7285604  14.2283583  47.1227407
  34.5952249  15.0657904  47.5667667  35.2016211  13.6923981  47.7592897
  38.0129457  20.8257484  51.0355806  38.3582449  20.4612350  51.8505192
  37.8054404  20.0601983  50.4997587  36.6967249  37.4091220  41.3960791
  37.2814322  38.1667471  41.4148474  37.2496486  36.6732812  41.6588449
  84.5538712  88.6386536   2.2281075  83.9589835  88.6354707   1.4782238
  84.3855000  89.4741176   2.6638603  16.9515789  59.2187881  52.3137236
  17.3721492  58.3941793  52.0700598  16.5686297  59.5424318  51.4983511
  33.2306123  49.7042561  47.4854517  32.4959826  49.5944166  48.0891800
  33.9562225  49.9897909  48.0405998  51.6730165  41.2997198  59.3620539
  52.0475292  42.1169567  59.6908379  52.0934677  41.1684036  58.5122252
  40.6773138  38.9037657  28.1851816  40.1631641  38.5149240  27.4775887
  40.0273085  39.1681576  28.8361979  32.2899008  14.2534101  51.8989515
  31.4416409  13.8429880  52.0670080  32.8545308  13.9330602  52.6023722
  53.5753727  46.9686127  75.4494143  53.8016415  47.5831270  74.7512674
  54.2595053  47.0913315  76.1075401  25.7922792  17.2440279  35.7779193
  25.2434874  17.6996505  36.4162517  25.8170533  17.8302479  35.0216365
  26.1626863  52.1850872  32.7833319  25.7654357  51.9554520  33.6233854
  27.0631766  52.4250841  33.0018544  28.9164662   7.2171837  53.8180685
  28.4003949   7.9128861  53.4107590  28.5142326   6.4065832  53.5060310
  50.2869081  23.0178642  34.3858337  51.0624170  23.3082604  33.9057469
  49.5693493  23.5314512  34.0149236  32.1718287  52.7327633  49.7639799
  31.6610289  52.1433353  50.3188610  32.8661180  52.1809816  49.4038010
  56.6123104  37.8870869  20.6787610  57.1547461  37.1078944  20.8006310
  56.5009642  38.2417607  21.5608287  71.0617208  42.3550701  10.1472843
  71.7996693  42.7382421   9.6731043  71.4488840  41.6454077  10.6598425
  35.3102612  59.7057390  50.6887674  34.4386387  59.3374538  50.5442953
  35.8991218  58.9524841  50.6431532  31.9811487  61.3721514  34.5428777
  31.8066239  60.5668879  34.0557170  31.4659142  61.2834501  35.3446865
  44.9559164  12.5784969  63.3067369  44.3905830  12.0690584  63.8873386
  45.1490831  11.9860661  62.5801373  52.7838755  28.2851124  53.4662056
  51.9122505  27.9082799  53.5866308  52.6633596  29.2219043  53.6215353
   7.6386464  20.9154272  22.0871210   8.3867818  20.4959154  22.5120115
   7.4993092  21.7197394  22.5870180  32.0741796  38.0387282  46.4667273
  32.2725058  37.3689747  45.8122587  31.5465808  37.5835299  47.1229792
  38.7996173  21.6278243  39.1821361  38.7392664  22.4843335  39.6052027
  39.7392750  21.4771485  39.0793228  45.9682465  34.1789794  29.9954653
  45.6606197  34.8227239  30.6335807  46.0954952  33.3786631  30.5049086
  35.2667928   6.9728833  65.9142542  34.3211675   6.9392264  65.7697105
  35.3615069   7.0446622  66.8640471  10.4114579  96.9089335  89.8802280
  10.7443713  96.6821909  90.7485485   9.5582294  97.3091095  90.0478268
  32.9402399  25.5151606  39.4837451  33.6298180  25.7800841  40.0924540
  33.0170441  26.1287141  38.7530708  33.1323862  27.2841644  17.1222079
  33.6952782  26.7151308  16.5972435  33.4344459  27.1562624  18.0214477
  62.9195213  14.4757235  47.3988819  61.9926643  14.6587348  47.5527477
  63.3600140  15.3075242  47.5729656  54.7212267  15.5074108  54.0924501
  54.3159389  16.3745594  54.0872383  54.0546227  14.9292386  53.7215281
  64.7096348  36.2815428  12.0935094  65.1073503  36.6263008  11.2940121
  64.3115044  35.4534745  11.8251336  10.6867516  29.8723722  14.1417873
  10.5955243  30.3867388  13.3397043   9.8005867  29.5635223  14.3303466
  25.7295132  43.9538002  22.9769826  25.2289391  43.4329939  22.3489571
  25.7338810  43.4264994  23.7758327  23.8342524  20.0888515  80.3873062
  24.6864009  20.2631330  80.7869339  23.2461262  20.7285261  80.7887459
  55.4959059  26.5472984  48.5083342  55.0356865  25.8391500  48.0578232
  56.3471222  26.1731935  48.7357140  44.9547625  17.1588421  45.5651140
  44.9313068  17.3604238  46.5005541  44.0385103  17.1913493  45.2900553
  56.6641808  38.0437136  13.0103743  57.4938631  37.6623917  13.2975185
  56.3886404  37.4933720  12.2772765  39.1000069  61.1328279   2.8168392
  39.7239061  61.5343921   2.2120857  39.6304920  60.5409013   3.3501720
  47.4588633  32.8499293   0.6294924  46.6836405  32.3765469   0.3275535
  48.1732035  32.5068569   0.0925992  53.7520027  30.2549076  35.6086779
  52.9994822  30.0843048  36.1751008  53.3681011  30.5460477  34.7815824
  42.5302649   8.6291027  60.7696486  42.3884296   7.6872200  60.8643675
  43.4546852   8.7096792  60.5347252  35.5126476  61.9436693  47.3217058
  35.1772523  62.8039980  47.0695639  36.0886550  61.6903448  46.6004038
  71.3626432  24.8503232  44.4460392  70.7207108  24.1835141  44.6900129
  71.4282227  24.7824907  43.4934998  17.8200686  29.8669243  38.5010386
  17.9965317  30.6535077  39.0171576  17.8338289  29.1536355  39.1392112
  21.6655445  53.0615187  51.3685083  21.3273287  52.1716309  51.4681959
  21.0193586  53.5029984  50.8173513  43.6711168  32.8432822  33.2690907
  43.4125948  32.4000859  34.0771604  44.1251087  33.6328125  33.5636473
  76.3782883  19.1562092  33.4541512  76.4033508  20.0345540  33.8337779
  76.8487883  18.6097181  34.0836024  56.3128614  39.5640373  43.5706139
  56.5604639  39.1068888  44.3743181  55.3683043  39.6962857  43.6515808
  26.5615916  64.2604017  50.3953218  25.9966087  63.5017252  50.5417204
  26.8145108  64.1965246  49.4743490  31.5479755  21.7626643  21.3823891
  31.6306829  21.3745379  20.5113268  30.7699680  21.3488221  21.7561126
  26.6915870  36.3420892  12.9995322  27.2362208  35.7597280  12.4699461
  25.8096695  35.9771943  12.9267180  48.8671923  14.1960061  37.4187708
  49.1996145  13.2994246  37.3755288  48.3766413  14.2302227  38.2400012
   6.3123083  51.1902952  35.5363178   5.7205695  50.6074715  36.0121274
   6.7818427  51.6661978  36.2213612  37.5690436  44.5294571  32.1512055
  36.8228984  44.5717669  32.7492929  38.0533195  45.3387451  32.3147917
  65.7626820  26.9188595  45.8100414  65.3028393  27.6725578  45.4402924
  66.6622686  27.0093417  45.4957390  38.4801173  32.4593806  43.3613586
  37.9026365  31.9374228  42.8043079  38.5694814  33.2928872  42.8992844
  54.7769213  31.9883943  55.1017046  54.5377350  31.1757326  55.5473518
  53.9709282  32.5047016  55.0961781  36.1466789  23.4720111  41.5614605
  35.6242633  24.2648315  41.4400244  36.9135976  23.6027741  41.0038137
  75.0660324  37.0766616   4.4092923  75.1810646  37.9055548   3.9446032
  75.8836174  36.9575739   4.8926172  34.7214460  30.5826235  28.0885649
  34.5582891  31.1484385  27.3339367  34.4773173  31.1159229  28.8450193
  57.0946741  20.7759953  34.4816232  56.7832899  20.0081444  34.9608707
  58.0424929  20.6548786  34.4250202 111.8366357  12.3075438  59.4715405
 111.5769566  11.5141070  59.0032959 111.9329920  12.9691875  58.7865782
  14.2189014  14.5100820  10.2934408  13.6469698  14.2127526   9.5858246
  13.6465156  14.5601857  11.0590100  23.2175422  33.8995767  61.1997080
  23.8578558  33.2729793  60.8626509  22.8583002  33.4783196  61.9805527
  36.9822598  23.6519241  15.3392231  36.7154074  23.1855440  14.5470655
  37.2820759  22.9635429  15.9329176  80.4013968  64.3523847   6.3706207
  81.2689973  64.5725654   6.7097759  80.5748940  63.8936864   5.5485916
  26.9515681  48.6918259  56.4706421  26.8508101  49.0067768  55.5723715
  26.7748308  49.4592381  57.0147610  26.0160589  35.1306415  23.4152222
  25.6251907  34.5018816  24.0219474  25.7418132  35.9856820  23.7467742
  66.8010521  11.6320932  38.5323668  67.5389194  11.8593657  37.9665661
  66.1709547  12.3404694  38.4003925  38.9486814   1.8752699  12.2706306
  38.9708376   2.3088548  11.4175510  38.1340671   1.3727026  12.2627831
 109.6988480  31.7517591  14.5616388 110.1476017  31.2458110  15.2390361
 109.8842008  32.6645756  14.7821867  23.5892677  23.3308840  14.8113048
  22.6523328  23.2225800  14.9745655  24.0105987  22.9960608  15.6028891
  31.5137625  56.9254589  39.6736717  31.3731337  56.1465311  40.2119303
  30.6980562  57.0283365  39.1834974  48.3346939   4.6561700  24.6230936
  48.4525919   4.1415733  23.8246441  48.7905073   4.1558719  25.2999735
  48.0854082  11.8333972  62.6714659  47.1709633  11.9457304  62.4118376
  48.1129122  10.9701538  63.0841208  12.9597520  86.6148489  35.6237459
  13.0040168  87.5148362  35.3007984  12.7197885  86.0963338  34.8557663
  25.0841856  54.6326256  86.4639187  25.6907630  55.2638197  86.8510818
  24.2342591  55.0723314  86.4865112   3.1734303  34.5709109  41.6367340
   2.4971810  33.9236951  41.4366627   2.7258435  35.4141855  41.5675592
 111.2208053  98.3647382   1.2743206 110.6179925  97.9803598   1.9107959
 111.7877074  97.6391470   1.0128403  23.7623382  50.2263260  61.8798828
  23.7305665  49.9110270  62.7831030  22.9218340  50.6654882  61.7497969
  37.8888655  26.1509323  26.5857840  37.1566916  26.6947341  26.8763566
  38.5637832  26.7775083  26.3247919  48.6574601  95.3911179  35.7797551
  48.0800962  95.6588679  35.0647807  49.2124032  94.7112077  35.3976607
  54.9388981  35.1288342  38.8360119  55.0854492  35.6450319  39.6286631
  54.0634966  34.7587180  38.9496636  35.9192657  64.8243475  31.4807558
  36.7243004  64.3156004  31.5773177  35.3512836  64.5097065  32.1840549
  53.6530924   9.5002484  24.5976591  53.9974260   9.1093212  23.7946367
  53.4120274   8.7521482  25.1439786  24.6029592   9.2810982  50.0731897
  24.8785305   8.4569418  49.6718693  25.4203200   9.7479534  50.2469683
  33.9774203  12.7729762  34.2775464  34.3986583  11.9978189  33.9061666
  33.0409598  12.5787950  34.2379904  47.0726633  38.6881161  64.9828768
  46.1976957  38.7039781  65.3707123  47.2076082  37.7738571  64.7335815
  29.6344733  45.1312923  14.5679629  29.5228386  45.5155277  13.6984050
  29.3214583  44.2315865  14.4742417  49.4477034  34.2467928  52.1080303
  49.3594360  34.1665959  53.0577707  50.2299690  34.7844672  51.9847393
  41.7258596  41.3792419  41.1034346  42.4150658  40.7389927  40.9264946
  42.1018028  41.9589376  41.7658949  41.5518427  33.7495255  38.1541014
  42.2199297  33.1133938  38.4094954  41.5128994  33.6858964  37.1998119
  48.1800079  41.5475845  66.0864449  48.1679010  40.6889820  65.6634951
  48.1084633  41.3550758  67.0213509  51.7637491  28.4887075  51.0110950
  52.3258209  28.2242894  51.7393732  51.5322495  29.3970752  51.2047672
  38.0713725  31.3271737  39.7904372  38.2489181  30.5524683  39.2570162
  37.5392771  31.8890667  39.2270708  24.4181609  31.5516281  10.1970243
  23.6066699  32.0581698  10.2305901  24.4905686  31.1574244  11.0662723
  95.9204097  79.3444593  88.8484307  96.4200826  79.8298032  89.5049378
  96.3107009  79.6006162  88.0127937   6.6994739  19.1782320  81.7476368
   6.3743156  18.4269762  82.2437382   7.0495081  19.7710609  82.4126625
 103.0072024  57.9058504  70.3257275 102.8078291  57.7959538  71.2554598
 102.2654626  57.5048447  69.8726797  57.3148012  20.2195978  44.4885349
  57.5461435  21.1331058  44.6565151  57.8076982  19.9885893  43.7011862
  56.2824917  34.8188996  45.8010674  56.7163324  34.0733814  45.3860807
  56.1161804  34.5301485  46.6983938   9.6122080  43.8882923  55.1372051
  10.0653660  44.0476179  54.3092585   9.6892381  44.7140312  55.6151724
  24.8464417  30.9433794  32.7188373  25.0459814  30.2659559  33.3649921
  23.8929415  30.9231305  32.6372504  11.5467429  11.3572431  70.6078959
  10.9350753  12.0848227  70.7206917  11.6039789  10.9558368  71.4749765
  14.7275174  58.8545370  36.2322569  14.7449470  58.0136871  35.7751989
  14.0719116  58.7396765  36.9201660  34.6231389  17.6541603  67.8644514
  34.3037653  17.1950388  68.6412621  33.8300562  17.9568779  67.4221706
  31.8707848  30.0782013  60.0629997  31.9175887  29.4932222  59.3067932
  32.2877383  30.8870983  59.7662401 111.0532900 102.3287290  16.3317525
 110.6656643 101.4578014  16.2453568 111.9198724 102.2457537  15.9337819
  26.5922904  29.8106122   3.7439522  26.1477971  30.2415490   3.0139175
  27.5054026  30.0867009   3.6650044  66.8618631  32.2997332  30.9152699
  67.4615049  31.9287539  31.5626001  66.3520002  32.9459882  31.4037681
  49.9020052  26.1537862  23.4392524  50.6679487  25.6080770  23.6174679
  49.9725533  26.8765616  24.0628290  20.7960033   6.3674784  36.5920687
  21.4302969   6.2913424  37.3048854  20.5847287   5.4627281  36.3618064
   3.2054853  93.0131155  84.9673271   3.1223392  93.3662706  85.8530998
   2.4131345  92.4908167  84.8423672   4.0961978  35.7119679  80.5408001
   3.5916567  35.4366255  79.7753859   3.8536456  35.0877786  81.2247467
  22.2839737  33.8478899  29.9609017  21.8081307  34.3908238  29.3323898
  21.7176247  33.8220716  30.7321429  53.2735682  46.5915918  33.7852621
  52.7267122  46.9841433  33.1047630  53.2181168  47.2031641  34.5195198
  35.5071712  44.2486477  46.1359453  34.9702096  44.1591692  45.3486109
  35.5328965  45.1908970  46.3024998  14.0381515   1.9922006  33.3758354
  13.8079023   1.1575791  33.7840295  14.8257470   2.2764547  33.8396502
  49.4898415  20.8698273  10.2928603  50.2932930  20.8301091   9.7740924
  49.2554712  21.7978573  10.3007579  53.1269503  57.3601246  31.2042832
  53.5333538  56.5361547  30.9356999  52.5636053  57.6003075  30.4686284
  71.4517260  18.5237885  59.0801382  71.4005566  18.3576214  60.0214148
  72.3698139  18.7463260  58.9257765  31.9759345  24.5566416  30.8189869
  32.8554392  24.4385862  31.1778235  31.4189625  23.9984083  31.3615632
  64.9231243  32.8061581  25.9509659  64.3919563  33.1213284  26.6822386
  65.8138466  32.7708173  26.2996721  38.0811548  43.1303120  59.4258451
  37.5541472  43.3074570  60.2050209  38.5944963  42.3555708  59.6549511
  21.6619134  39.0494347  66.1614609  21.8522596  39.9779105  66.0275364
  20.8209538  38.9120221  65.7254124  58.6072350  48.2492685  36.8078661
  58.7396717  48.6822367  37.6512122  58.8825178  47.3447466  36.9571662
   9.7863632  38.9611745  39.0760422  10.4378974  38.3277297  39.3768501
   9.0362555  38.8266158  39.6552348  59.3823528  46.0423613  29.3325162
  58.6565828  46.6425800  29.1615486  59.1377831  45.5955076  30.1429105
   6.7545760  22.0129848  58.0066204   6.0212344  22.3997068  58.4850454
   7.2484660  22.7639484  57.6774454   5.2806008  39.6206808  29.3045950
   5.3886491  40.0988150  30.1267552   6.1103648  39.7456169  28.8440371
  56.9656467  13.0474901  27.0030046  56.8173218  13.9839935  27.1341276
  56.1206436  12.7105463  26.7052293  42.3861265   3.6466748   8.4021521
  42.6571703   4.3152812   7.7730799  41.9208145   4.1328573   9.0828454
  21.4642692   2.3902820  78.6982155  21.7696428   3.1549680  79.1863060
  20.5260420   2.5396919  78.5814285  44.8539591  29.9501300  48.6508751
  45.0786638  30.0097966  49.5794106  45.5914736  30.3602982  48.1991386
  31.5109372   4.3930826   9.9728668  30.8346534   4.9187660   9.5456338
  31.5928364   3.6145997   9.4219685  61.4577866  38.9556909  31.6740441
  61.1492157  39.0453410  30.7723904  62.3184681  38.5447526  31.5929055
  67.9159069  10.8626235  74.4368982  67.9660797  11.4747393  75.1710844
  67.0211840  10.5239129  74.4681692  74.4982815  12.9731464  39.1447711
  74.2021132  13.3572674  39.9699759  75.4415607  12.8576136  39.2592764
  43.1351376  27.5673079  59.0064096  42.3367023  27.0578289  59.1448212
  43.8076448  26.9124508  58.8189840  42.7301455  49.5158958  45.0427294
  43.2586622  50.0501108  44.4498444  42.5385141  48.7220955  44.5433474
  54.1518497   0.0224905  41.8237352  54.9571562   0.5372999  41.8755245
  53.4544420   0.6485066  42.0185614   7.9845154   6.3507819  74.0439034
   7.3774749   6.0813200  73.3546114   8.0835533   7.2947812  73.9202547
  57.8218842  32.3548055  45.4312468  58.6795425  32.2327924  45.0240993
  57.8325939  31.7729974  46.1912584  52.9470110  14.7865117  33.9427328
  53.1026602  15.5916655  33.4490418  52.7819967  15.0825644  34.8379183
  59.4919348  49.9026585  39.5179200  59.6790504  50.7511997  39.9194098
  60.1855612  49.7867775  38.8685441  49.9013758  34.7060204  45.3633022
  49.2141390  35.3514338  45.5287600  50.6744623  35.2286386  45.1501274
  46.9048643  35.0592375  50.9331465  47.6530838  35.1084900  51.5281010
  46.3802385  34.3319058  51.2677956  24.8088288  59.8041677  62.4482393
  25.6198645  59.4624901  62.8246832  24.9059224  59.6673584  61.5058565
  36.7149234  26.2470984  31.1416841  37.1151328  26.5442252  30.3245044
  37.0555019  25.3613567  31.2669754 108.7325617  96.3564658   8.1863797
 108.3907553  96.3378256   7.2924829 108.7226602  95.4409897   8.4657305
  59.1570425  20.4488516   1.9895670  58.8303661  20.3618670   1.0940515
  58.8017273  21.2838674   2.2940853  33.0421495  48.7251663  42.3051023
  32.6138115  48.0224657  42.7939463  32.7880383  49.5257092  42.7642155
  36.2100697  33.9979911  65.2196503  36.4642572  34.2797828  64.3408918
  35.2529907  34.0008235  65.2046061  58.3056355  14.6638620  16.7712462
  59.0928745  15.1847291  16.9299364  57.6017952  15.1602399  17.1889246
  96.1197063 102.4579906  54.3392467  96.9219276 102.6607400  53.8580370
  96.4151283 101.9472641  55.0929832  33.5873890  54.0037823  23.8774204
  34.5307708  53.9632559  24.0343237  33.2687187  53.1308126  24.1067767
  58.2766962  14.7169387  56.9584751  58.0458403  14.9138451  57.8663111
  57.4460220  14.4799447  56.5461063  28.4915066  48.3870363  43.4430122
  27.6311088  47.9689455  43.4091139  28.8314795  48.3080006  42.5517178
  36.1259151   9.6830422  54.4211531  36.1880994  10.1124465  53.5679340
  35.8847737   8.7793815  54.2174864  31.8647170  27.6853251  49.1297197
  32.0318747  27.2588825  49.9702168  31.8904972  26.9732666  48.4905481
   9.4287585  87.7462119  60.4316282   9.7233724  87.6085680  59.5313597
  10.0664996  88.3566099  60.8016682  23.7430239   2.4205285  49.1865301
  23.0896425   2.2012773  48.5222626  23.3535743   3.1454471  49.6754646
  66.1131382   9.0669179  26.8119073  66.8249321   8.5076219  26.5008307
  65.5697203   8.4879422  27.3464298  53.7403679  43.6940527  38.7781334
  54.2199802  44.1692686  38.0996227  52.8237581  43.9278603  38.6318660
  18.0454993  39.7187972  61.3763046  17.2686601  40.0064516  60.8967113
  18.3504295  38.9477944  60.8979702  82.1905613  67.7376938  31.7207432
  82.7565575  68.2239437  31.1212015  82.3830318  68.1055880  32.5832057
  71.0880470  16.2067568  70.0611305  71.6343689  16.1326277  70.8436060
  70.3639221  15.6002784  70.2162600  41.0694075  26.2229800  26.3454342
  40.5794954  26.2671208  27.1665716  41.9830799  26.1328840  26.6162014
  88.0053043  33.1638551  62.5865078  88.2611084  32.2684765  62.8080750
  88.7581158  33.5178089  62.1129894  28.1941891  33.7851572  33.0124569
  27.2551036  33.6011219  32.9905295  28.2717013  34.6760440  32.6710701
  72.8848743  33.4314823  31.3899660  73.4136534  32.8157234  31.8973804
  72.1081114  32.9309750  31.1402392  67.4443388  34.2337108  27.6874232
  67.6580811  33.3754039  27.3215604  67.8389835  34.8584461  27.0789886
  49.1827250  17.9811645  58.3730078  48.2274437  17.9441571  58.3249760
  49.3632889  18.4865427  59.1656113  44.9690389  86.7595356  19.2169094
  44.1701078  86.2328952  19.2412245  44.9284028  87.2931605  20.0105238
  28.7827802  58.6218452  50.0884628  28.7134624  59.2277670  50.8262205
  27.9547691  58.1416416  50.0943041  90.1602360  93.5110944  38.0654597
  89.2058393  93.5124749  38.1386375  90.4697713  93.4699470  38.9702964
  62.5006962  17.5603914  70.6545544  63.1249332  18.0298090  70.1011944
  63.0369806  17.1768534  71.3484764  44.0926647  48.4789467  34.0339828
  44.6158648  48.0312490  34.6988606  44.6456337  48.4769297  33.2526708
  29.2894149  35.9705710  60.4132509  28.7514281  35.3020597  59.9891138
  28.9848518  35.9829259  61.3206244 111.3799847  52.8518438  44.2268038
 110.9070116  53.0984259  43.4319925 112.2813794  53.1304741  44.0652943
  52.1356916  44.7078848  24.2001271  52.6013756  45.0305843  24.9716377
  52.4511290  45.2574587  23.4826994  31.2355208  41.4349747  26.9925332
  32.1465540  41.1424685  26.9662046  30.8592558  40.9790802  27.7454066
  53.6231709  48.7751389  27.6005316  53.2582045  47.9386902  27.3117661
  52.9179716  49.4063520  27.4573541  25.5244875  56.8794727   9.1989779
  26.0660696  56.8556786   9.9878716  25.4864383  55.9686756   8.9070201
  54.2189121  44.8941469  29.6900296  54.3692493  44.4454002  30.5220509
  53.6206484  45.6088400  29.9080491  34.2107368  46.5421104  52.0058489
  35.0842190  46.3102627  51.6903973  34.1580105  46.1477757  52.8764534
  41.4089203  27.9187059  16.8372381  41.7708015  28.7268233  17.2008622
  41.4100122  28.0604744  15.8905959  42.6893330  33.2736516  23.2281756
  42.8429699  32.4069142  23.6041999  41.7423105  33.3122635  23.0944157
  61.5445185  44.8906660  19.7021008  62.1661949  44.5585537  19.0544510
  61.7240286  45.8298206  19.7468066  53.8558483  46.2231541  44.8236561
  53.5901880  46.4644432  45.7110357  53.2099676  46.6452408  44.2571640
  31.1876225  80.2391624  32.2597599  30.8988214  79.9593353  33.1283903
  30.8497143  81.1302853  32.1705556  34.7279716  60.9095335  62.8529930
  33.9935207  60.6584406  63.4131384  34.4694901  61.7537403  62.4832106
  43.5901499  55.3742218  30.3470039  43.0054617  54.6197414  30.2753687
  43.3348560  55.7981300  31.1663699  40.3550529  29.8363113  26.0999322
  39.8573256  29.1940117  26.6058493  41.1890697  29.4033837  25.9176588
  44.3283749  47.0354748  29.3691659  43.6768961  47.0538568  28.6681175
  45.0739908  46.5692902  28.9910722  37.0869207  20.0570488  31.7485833
  36.3460088  19.5834589  31.3704395  37.7243829  19.3750203  31.9600320
  14.8300862  50.2472019  59.7757053  15.5264390  49.6032381  59.6467400
  14.9243963  50.8524942  59.0402079  94.7814560  83.3774757  55.2849531
  94.7287941  83.4030914  54.3295479  95.5637550  83.8873100  55.4954576
  70.3488874  47.8721905  32.1242571  71.0691452  47.4639893  31.6438055
  70.6824684  48.7356758  32.3678756  68.9325476  69.4726753  53.0003405
  69.0249205  69.0534878  52.1447849  68.3808184  70.2370262  52.8342390
  65.4402494  94.6956635  38.1110239  64.9463367  93.9844799  37.7029777
  65.4420137  95.3930092  37.4553299  65.3107452  64.7977638  43.0431414
  64.7502565  65.3225136  43.6147356  65.7975245  64.2300177  43.6405897
  63.1491899  63.2321072  45.2161837  62.8548717  64.0926313  44.9176788
  62.7287722  62.6143742  44.6179438  65.8740759  26.2279510  16.0329807
  65.1995039  26.7943692  16.4076221  66.5453482  26.8322611  15.7160676
  21.2678051  79.3607235  72.1967554  20.7529879  80.1676083  72.2083664
  21.9084311  79.4752312  72.8986931  59.4428539  63.5842228  37.0061231
  59.2036295  64.4038773  36.5734887  60.2897215  63.3509493  36.6258168
  47.7447176 104.3590641  19.9550736  48.4706306 103.7784386  20.1834440
  46.9621897 103.8885593  20.2423143  55.2759457  74.6162033  17.8770125
  54.8843336  74.8912334  17.0480180  56.1137056  74.2256784  17.6282525
  88.1702137  71.7535114  22.2970080  87.2713852  71.6096687  22.5930595
  88.4753323  72.5005150  22.8119087  62.5078011  62.6124239  53.5490561
  61.8214655  62.8841305  54.1584396  63.2444048  62.3704052  54.1103649
  68.5964441  67.0805740  16.1038673  68.3601427  66.5490103  15.3437126
  68.1582689  67.9185867  15.9556639  81.3332748  61.1429501  48.1057405
  80.6365395  61.1306858  48.7619781  81.2051105  61.9668865  47.6357079
  62.2493505  71.0620880  57.1170044  62.7500820  71.4330149  56.3904285
  62.0711088  71.8076038  57.6903009  85.4081345  73.0365705  50.7498884
  85.3789711  73.6026764  49.9785900  84.6375465  73.2865381  51.2597322
  59.2080450  68.2367992  26.5134835  58.8947487  68.3759737  27.4071860
  59.7838306  68.9821482  26.3427305  67.3852921  75.6663179  64.1294384
  67.4876213  75.1985216  64.9582481  68.2561016  75.6439352  63.7326717
  78.4667778  63.8643169  24.2515373  79.4180727  63.8640547  24.1454077
  78.1420612  63.3647490  23.5023904  96.1935997  83.5424423  79.3066406
  96.8875027  82.9224586  79.5310593  96.3499355  83.7540627  78.3863068
  28.7083483  83.2100677  53.3911943  28.5649443  83.1379795  54.3348455
  27.8895855  82.9047585  53.0004978  48.8212442  82.8620529  49.7454023
  47.8902912  83.0492401  49.8659086  48.8736677  81.9063759  49.7324038
  60.5474997  69.4946289  65.5628157  60.4331207  70.4176283  65.3364944
  61.2888861  69.4865656  66.1682177  76.6534328  91.2396336  55.5974245
  76.1752224  91.8542957  56.1539555  76.3183117  91.4039898  54.7159958
  84.7678089  69.2578602  20.8705521  85.0905228  69.3636131  19.9756217
  85.1070786  68.4070683  21.1485362  63.4824753  73.7539577  33.9842749
  63.0540466  73.3719254  33.2182884  63.0261183  73.3673859  34.7316241
  54.8073626  79.5128632  46.7292929  55.1020145  78.6100197  46.8488026
  53.9113092  79.5189142  47.0658731  53.0999374  70.5631590  15.0972664
  52.7638102  71.3980579  15.4231358  52.6067448  70.4041243  14.2924666
  53.2057047  90.0943089  46.1957645  53.1904507  90.4008675  47.1024179
  53.9522839  90.5462933  45.8026314  23.5224060  19.0888995  58.8581133
  23.8218693  19.9747199  58.6534882  23.5838417  18.6174125  58.0273581
  58.4177589  83.6131001  17.7726555  58.6527729  83.7931156  16.8623841
  58.3551502  82.6591015  17.8196824  67.1025038  89.0667057  48.5551310
  67.0901728  88.7595940  47.6486206  67.4566364  88.3297729  49.0528774
  54.3975544  71.1660910  32.4972272  55.0941133  71.5281725  31.9495606
  54.0406275  70.4418802  31.9830775  76.5685177  77.8915167  11.2907875
  76.7680740  77.0354652  11.6697109  76.1434698  77.6911211  10.4568768
  76.6021299  72.6430893  55.3489351  77.1796894  73.1460905  55.9230900
  76.8824387  71.7350149  55.4632092  83.1404114  61.6411638  35.0015807
  82.2361851  61.6762304  35.3136182  83.1099319  61.0566044  34.2442203
 105.9976054   3.0729503  50.0378084 105.1948262   2.6823920  49.6924829
 106.5100909   2.3282737  50.3525257  66.2337303  77.8222704  49.2664099
  65.4242659  78.3324909  49.2404699  66.7128325  78.1712389  50.0180197
  76.7876768  82.2446156  41.6410542  77.2672415  82.8579426  41.0842037
  77.1609116  82.3709869  42.5133801  72.0572329  66.9999647  50.1052904
  72.6035070  66.3410330  49.6767712  72.6787090  67.5629520  50.5668545
 110.5987836   7.6860160  44.4343376 110.9703351   7.5069350  43.5705614
 110.1820184   8.5428447  44.3428469  95.0564098  88.7392330  40.7794189
  94.4466209  89.0548134  40.1124907  95.0239086  87.7857399  40.7017136
  97.7428436  71.4864969  51.2825251  96.8888474  71.3356400  51.6876984
  98.0514812  70.6129360  51.0419512  78.5086536  77.9887533  53.4517765
  78.7740231  78.1716824  54.3530798  78.5306025  77.0341587  53.3846903
  86.9660759  73.8692427  53.3965588  87.4241447  74.5868826  52.9590702
  86.0554218  73.9600134  53.1160021  74.2701292  80.8940125  44.8599720
  74.5094728  80.6846523  45.7628059  73.3891821  80.5343056  44.7561646
  55.6581783  72.8655624  20.2583146  56.1087179  73.5892439  20.6936669
  55.4610538  73.1982422  19.3827009  89.6067619  53.8030481  49.3399239
  88.9938259  54.3770361  48.8804913  90.4544735  54.2389202  49.2525387
 111.4161301  57.1739626  51.8437576 111.3868332  57.2856522  50.8935499
 110.8390903  57.8580809  52.1832371  47.9377651  68.8952971  24.4417167
  47.2674227  69.5500660  24.6370196  47.7477598  68.1723070  25.0395584
   7.2086480  40.2470779  78.0049610   6.6777280  40.2619028  78.8012886
   6.7518285  40.8331680  77.4015903  90.8426666  46.4658689  50.7440376
  90.2491188  46.6847849  51.4623785  91.6714382  46.2548590  51.1739731
  71.3447237  67.1144533  37.8925896  71.7779350  67.0007896  37.0466328
  70.8740664  66.2928677  38.0329657  92.3069954  78.7584972  32.5281119
  93.1147575  78.4865952  32.0924258  92.4762917  78.6130810  33.4589338
  59.6586514  87.1854973  54.6020937  60.4980326  87.6428795  54.5523691
  59.0233326  87.8722000  54.8046732  75.4256916  80.1066875  29.0006661
  75.7309771  80.7439709  28.3549809  74.4710875  80.1664543  28.9633751
  61.2278891  70.6623363  48.2402372  61.3034248  69.7233343  48.0705261
  61.6641808  71.0761833  47.4955177  60.9099340  83.0486107  53.5878563
  60.2135611  83.6915970  53.4542036  61.5729284  83.2744789  52.9354334
  10.3160290  17.2909469  21.5232348  11.2585834  17.1733111  21.4049172
  10.2287105  18.1704158  21.8908548  79.6545887  83.1955910  65.5319214
  79.1332865  82.4003887  65.6420994  80.1060677  83.0722332  64.6969461
  94.2019367  68.6504221  18.0527866  93.8945770  68.9003897  18.9241505
  94.7148228  69.4017792  17.7550507  64.1420031  90.2557182  39.6559811
  63.9885521  89.3557644  39.3683124  64.8983526  90.1949883  40.2394915
  15.6559062  70.1130772  48.2793808  16.1007428  69.7208548  47.5280380
  14.7373819  69.8674250  48.1689358 108.1671333  97.8698063  39.2454553
 108.6691189  97.2019577  38.7783217 108.3937645  97.7393723  40.1662493
  76.3527822  90.3553009  44.4426250  77.2804546  90.5673027  44.3391562
  76.0319662  90.9902763  45.0830317  43.4242773  96.1143875  36.1435366
  43.6436510  97.0452118  36.1844707  44.2439032  95.6657791  36.3513613
  72.1172857  84.7353745  55.7057142  71.4712715  84.0835190  55.9777117
  72.9527664  84.2688274  55.7290697  45.0588846  89.9491215  48.9791965
  44.4911528  89.5300961  48.3324146  45.9467411  89.7787476  48.6646986
  78.5296392  76.7726469  49.7898912  79.4831085  76.7347670  49.7144508
  78.2901669  77.6057863  49.3839741  56.6062832  64.6698141  67.0097160
  56.7312765  65.0891209  66.1583710  55.6608105  64.7013378  67.1557188
  86.8195916  13.5998076  48.1628227  86.4679814  14.4861239  48.0788660
  86.0484792  13.0473823  48.2910872  31.3971019  92.1952629  49.6757269
  32.3382926  92.2668171  49.8346949  31.2528467  92.6860714  48.8666964
  19.7266582  23.1159133  20.5409956  20.6835846  23.1377906  20.5471683
  19.4680790  24.0100402  20.3176117 100.8152867  17.8703040  37.2813416
 100.6794120  18.1416625  38.1891584 101.5897847  17.3086852  37.3126030
  84.8485851  76.7228699  52.7175236  85.5538654  77.2125387  52.2944021
  84.2631721  76.4784765  52.0007324  84.5843506  69.6176577  40.2261114
  84.3285751  70.5137348  40.4448748  83.7555504  69.1581106  40.0914526
  96.6235542  78.0689096  20.6550813  96.6226482  77.9075861  19.7115743
  96.9432926  78.9667130  20.7442522  45.3891038  42.0698573  85.6458896
  44.5455503  41.8000533  86.0090071  45.9025048  42.3393942  86.4074677
  80.1272392  99.4869900  45.6847525  79.7425556  98.6738586  46.0119629
  80.8808613  99.2040157  45.1668596  17.8688195  49.7629499  72.1048450
  18.0106118  50.7059002  72.0213509  18.1415609  49.5580006  72.9991865
  86.5591049  52.7641678  31.1259627  87.5072289  52.6394367  31.1675358
  86.2933826  52.3149490  30.3235769  88.3839226  86.5643406  45.9660912
  88.6905003  85.8942699  45.3551483  87.7556133  86.1084270  46.5260983
   5.6260589   1.6175193  33.3281088   4.8259071   1.8244952  33.8109684
   6.1638931   2.4054069  33.4068394  50.6741476  93.6711216  72.0410872
  50.1427698  94.3449020  72.4652147  50.0864124  92.9203033  71.9569492
  78.7002087  65.2700472  43.4146786  78.5194969  65.9918642  44.0168047
  79.3942976  65.6014824  42.8449202  78.3912992  80.5971241  62.5961924
  77.8240681  80.8956814  61.8853140  79.2102289  80.3552532  62.1636629
  84.9468899  82.3059940  70.7215071  84.0535355  82.4533367  71.0320473
  84.8454571  82.0874882  69.7951174  81.9731808  91.0659122  60.6914377
  81.4177513  91.2747288  59.9403524  82.7451324  90.6481075  60.3096581
  62.6749754 101.9000149  41.0091448  63.0272484 102.7856255  40.9207201
  63.4485006 101.3382626  41.0573387  96.1184169   3.1104297  46.6098070
  97.0021725   3.4733886  46.5509605  96.1202765   2.3749370  45.9972048
  70.9810543  53.2696438  50.2307367  71.4739752  53.8221169  50.8373928
  71.0748720  53.7026644  49.3822527  97.0531464   8.3923835  51.7732286
  97.2883178   9.2312640  51.3767481  97.4380828   7.7364654  51.1919928
  23.3043721  74.4093513  55.2924442  22.5306752  73.8906002  55.0721502
  23.7866929  74.4816971  54.4688177  73.6134815  66.2581635  62.5514984
  73.8276052  65.6049871  63.2176399  73.6344576  65.7741213  61.7259741
  87.5320816 101.1945438  39.5224571  88.0146122 100.8306026  40.2647066
  88.2049274 101.5976620  38.9738226  65.3557491  84.0575123  40.2161312
  65.8107567  84.5612144  39.5412374  66.0014677  83.4160137  40.5123854
  70.3196001  65.4414129  24.9487543  70.4020309  64.7084713  24.3386483
  71.0904837  65.3721142  25.5119324  63.0998802  81.3335705  68.5313177
  63.4624052  81.7700672  67.7604198  62.1654797  81.2492275  68.3415365
  57.6521730  68.2121086  48.2333899  58.5277033  67.8261328  48.2599020
  57.6653910  68.8829708  48.9160299  63.8866520  87.6357079  49.4889688
  64.3515396  87.6349640  48.6522436  64.4169903  88.1944275  50.0571299
  59.8434019  71.2196970  15.4073107  60.3132629  71.7435312  16.0562015
  59.9521017  70.3163385  15.7045507  84.9111843  91.3565636  33.6501741
  85.6596375  91.9344139  33.5013604  84.1471386  91.8993759  33.4557366
  63.9625597  60.0602436  26.5520597  64.4298649  60.6022549  25.9163880
  64.3013811  60.3417826  27.4018621  57.5666475  71.8226433  38.9104581
  58.2136726  71.7019558  39.6054602  56.7663431  71.4282513  39.2571592
  81.3070965  44.3011284  55.1596689  80.4856873  44.6182919  54.7842693
  81.0595322  43.5169125  55.6495142  77.2657108  86.9832706  51.9542217
  78.0378866  87.5485802  51.9741535  77.4942160  86.2873268  51.3380432
  40.3396797  90.1454926  75.2898359  39.4469881  90.1482201  75.6352758
  40.2357435  90.3288364  74.3561268  80.7206345  68.3090830  52.3024893
  79.9451256  68.3340740  51.7419672  80.8164024  69.2073298  52.6190567
  36.7692856  65.5572980   0.8054829  37.3158888  66.2898915   1.0896873
  36.7790942  64.9500268   1.5453148  38.3874226  76.9513893  30.2628422
  37.9776692  76.4850712  29.5342278  37.7060962  77.5431919  30.5818963
  86.0352516  68.7670517  57.4627590  85.4797554  69.3753290  56.9752598
  86.8649483  69.2325258  57.5684071  18.6156701  16.4564968  85.8895636
  19.3257760  16.9395234  85.4668719  18.3393001  15.8152367  85.2348626
  32.4398612  18.8872744  91.4047353  32.9096317  18.0796076  91.6126417
  32.7392482  19.1189553  90.5255766  89.4646741  43.3314246  76.1485147
  88.5836745  43.0897826  76.4343071  89.8618556  42.5054759  75.8723211
  47.6098394  91.0101223  35.1305723  47.9488564  91.0571671  34.2366552
  48.0752420  90.2723598  35.5247116  73.8168764  85.9051323  59.8419476
  74.7538280  86.0937405  59.8946810  73.4236860  86.7258453  59.5451975
  68.2221794  72.0145845  63.9721203  67.8752661  72.0273924  63.0800867
  68.2394695  71.0873413  64.2090893  65.4344606  68.3272266  37.2659659
  65.0124454  69.0478992  36.7982388  66.3339710  68.3234501  36.9387054
  78.1678486  67.5313520  50.2930212  77.7804232  67.1729803  51.0915804
  78.9791775  67.0367289  50.1775742  66.0298967  90.8523750  66.5721846
  65.7929802  90.0191307  66.1649895  65.1982212  91.2147808  66.8774939
  63.5131884  71.4954185  64.5821285  64.0233803  70.8124638  64.1467953
  63.9446354  71.6140366  65.4283094  86.5350533  70.0888729  11.4352524
  86.1357117  70.8983183  11.7539299  85.8238792  69.4484091  11.4514375
  47.5531912 103.7393379  23.3848166  47.1852446 104.6080971  23.5463738
  48.2450771 103.6466789  24.0397501  81.7546558  83.0867195  28.4762335
  82.2767162  82.2992039  28.3229423  81.2442970  83.1957054  27.6738048
  76.8130922  82.2890568  81.9548321  75.9866953  82.0414352  82.3695374
  76.7072582  83.2170010  81.7451859  65.8235502  85.0466728  52.4984741
  66.5939999  85.2406216  53.0323553  65.1569796  84.7753239  53.1295729
  41.2860966  73.1390953  66.1540079  40.8352375  72.5791788  66.7860317
  41.2396383  72.6551962  65.3294373  83.6455250  87.1341896  32.8844643
  84.0496063  87.0014477  32.0269513  84.3435669  87.5068665  33.4230638
  60.5046892  75.8080196  40.1849222  59.8535013  75.8042717  39.4833708
  60.9603834  74.9712658  40.0932074  74.6198511  59.3969774  47.9805231
  74.3311405  59.1158724  48.8487768  75.3303623  60.0148201  48.1527662
  74.0414906  82.7991581  42.9225731  74.7789669  82.3324776  42.5294304
  73.8598776  82.3215580  43.7319851  55.6167364  93.5399628  47.7872801
  54.7544384  93.6530685  48.1871319  55.6611443  92.6080418  47.5732994
   0.8984712  68.4246397  15.3192651   0.1842645  68.5139990  14.6882665
   0.5627111  68.8280296  16.1197519  90.4628086  65.2918482  30.1397371
  90.8554935  66.0083532  29.6410894  89.8214531  65.7187033  30.7077861
 100.5945493   0.1183814  34.8616529  99.8677064   0.0535792  34.2421937
 100.3698636   0.8646983  35.4173136  99.9322796  93.1069469  28.9186883
  99.6575737  92.2415352  28.6156726 100.6932068  92.9360008  29.4736671
  94.0463448  67.1974325  68.7496614  94.2277431  68.0790329  68.4239149
  94.1235638  67.2729111  69.7007513 107.0697784  84.3230534  56.3647747
 108.0212688  84.4273186  56.3596392 106.8612671  83.9842033  55.4941797
  89.2939568  64.8328924  67.4405909  89.1484070  64.4222689  68.2929039
  89.6790123  65.6844234  67.6476049  48.1898642  91.6765308  65.2117157
  49.1174889  91.5261173  65.3936863  47.8061962  91.8695164  66.0671616
  58.3863878  67.4008512  63.0647421  59.0616560  67.8304529  62.5396824
  57.5912619  67.4714041  62.5365162  70.7582474  69.0189028  28.8109875
  71.5376568  69.0551472  29.3654633  70.2077723  69.7365284  29.1243958
  61.6304827  85.7456970  18.1572068  61.0986662  85.1811981  18.7182236
  62.5150394  85.6752014  18.5161304  45.1075172  93.4198952  50.1015568
  44.2005157  93.2170582  49.8725700  45.5540752  93.5043812  49.2591333
  88.3342457  58.3053303  33.8188505  88.6806107  57.7194262  33.1458139
  89.1098690  58.7150049  34.2020059  94.7419357  65.9088469  17.1186793
  94.1775131  65.2479935  17.5198424  94.5052338  66.7251730  17.5589287
  89.0525627  43.7009811  20.1065564  89.7345161  44.3309402  20.3396487
  88.2592678  44.2290354  20.0167799  57.4081182  74.0176010   7.4115139
  57.4872351  74.9552393   7.5870270  56.6471195  73.7416792   7.9223764
  55.2653027  71.8010950  27.5178456  55.0476503  72.6516914  27.1366096
  54.4175768  71.4055634  27.7206945  20.3333477   1.0754794  56.2928009
  20.0688461   1.9629592  56.0506344  21.2056831   0.9732932  55.9122562
  95.1744270  92.8601933  39.0857673  95.8057976  92.1526432  38.9554238
  94.3941784  92.5756359  38.6098862  72.0932961  75.1833057  27.3041892
  72.3688269  76.0867405  27.4595022  71.9698477  75.1301146  26.3564730
  48.4920549  78.0365992  80.6812859  48.7763405  77.2271872  80.2567101
  48.5922050  78.7086630  80.0070953 101.1617470  57.1110725  28.1805992
 101.6290855  56.6235495  27.5022554 101.5582371  57.9821682  28.1656766
  85.2453327  42.8045702  50.7246017  85.3300095  43.0134010  49.7943068
  84.3048382  42.8523159  50.8961535  81.6436958  91.2888622  31.5364456
  81.9743538  91.7197323  32.3246384  81.8580532  91.8928528  30.8254766
  90.1895714  66.7921019  39.9934053  89.4688702  66.1908960  39.8053241
  90.1524544  66.9214535  40.9410954  65.5060863  91.1713696  36.9458723
  65.5695581  91.2908363  37.8934646  64.8286200  91.7893696  36.6713929
  28.1145381  40.0970293  78.4584260  28.2648515  40.6209017  77.6715362
  27.3741149  39.5337130  78.2333112  38.2553554  67.2093296  27.4179244
  37.4607563  67.5157595  26.9809484  38.1890702  66.2547350  27.3937035
  79.1652107  88.7613869  44.8163652  78.4963131  88.1390572  44.5308685
  78.7736988  89.2055511  45.5684710  70.4094362  70.7146263  55.3254414
  71.2852001  70.3430700  55.4313421  69.8811197  69.9906254  54.9893856
   7.7246094  65.4289722  43.1220865   7.4977678  65.0370836  42.2787619
   7.0973480  65.0508595  43.7383699  39.4931936  75.8035755  59.9156523
  39.3244481  75.0790215  60.5179644  40.3792810  75.6436253  59.5908499
  50.6854248  72.1142817  31.7742205  49.7895670  72.3901081  31.9681168
  50.9910631  72.7384758  31.1160445  68.1283045  94.1868401  32.6394272
  67.9635286  94.9282932  33.2219529  69.0806961  94.0910625  32.6371717
  80.8144760 100.7990646  14.1827381  81.1613941 101.3874817  13.5121846
  79.8702145 100.7878780  14.0263009 100.2615786   3.7995166  44.4108772
  99.3884850   3.5415286  44.1152716 100.4703379   4.5762748  43.8919401
  70.8113623  71.2456703  72.7131891  71.5993977  71.6645098  73.0593157
  71.0190296  71.0652256  71.7963791  37.7801776  82.2463226  67.3862267
  36.8869734  82.4119663  67.6878595  37.7080345  82.2100830  66.4324331
  40.6364965 101.5759850  34.2955756  41.2113190 100.8516884  34.0481734
  41.0056543 102.3379803  33.8491368  76.6661931   2.9216212  54.4315958
  77.4981929   2.4960345  54.2245054  76.9156123   3.7301845  54.8790789
  70.7523537  93.7454414  32.7958846  71.5830708  93.2757759  32.7212834
  70.6009531  93.8160801  33.7383914  69.9589920  98.5626316  36.9784951
  70.3691912  98.3523178  37.8173876  69.7032309  97.7138233  36.6174698
  35.4949903  82.9643154  59.9582100  34.9323130  82.1905327  59.9881268
  35.3274965  83.4144115  60.7862139  69.4651079  79.3255281  68.9160252
  69.2300224  78.8969612  69.7390032  70.3558588  79.0251923  68.7354898
  55.6514883  97.7508736  47.9082537  55.7454824  97.9291153  46.9725084
  56.0507679  98.5075474  48.3375025  77.7021980  61.1680889  11.9805968
  76.8036747  61.4830303  12.0790541  77.6299620  60.2154684  12.0399940
  48.1723118  78.0695534  45.6433773  47.2516727  78.1115294  45.3847456
  48.4396124  77.1748066  45.4331064  70.7076311  68.4035540  41.7579794
  70.8614826  68.8563728  40.9288120  69.8038483  68.6215115  41.9858027
  86.7824459  88.4085274  49.1169262  87.5692081  87.8633499  49.1219568
  87.1120167  89.3052197  49.1766596  76.0763979  56.1773825  37.1931100
  75.1761341  56.5019751  37.1730995  76.5961456  56.9300127  37.4753213
  67.4955845  90.4732037  51.4250660  68.1527901  89.9911594  50.9231234
  66.7116165  89.9257660  51.3810873  75.6408596  80.5833435  57.9147768
  75.9186459  80.4850292  57.0040607  74.6853924  80.5374146  57.8800297
  58.0709028  73.6102295  62.0978642  58.1718206  72.8812695  62.7099657
  57.1436214  73.8415051  62.1516275  85.8221626  67.6918602  37.9614401
  86.1905098  68.3553028  37.3780084  85.8124924  68.1091738  38.8228273
  62.6698208  82.4371433  34.5018339  62.8083515  81.6192913  34.9794984
  62.7268505  83.1184101  35.1717973  56.9455099  72.8683519  46.0541344
  57.3237991  72.6798677  46.9129705  57.6992893  72.9194975  45.4663992
  78.8726473  67.7657700  61.9416142  79.1050243  67.5304794  61.0433531
  78.4931660  68.6415529  61.8692732  67.5099468  73.8647127  82.8238010
  68.4225702  73.5760307  82.8197575  67.1000433  73.3532572  83.5213852
  99.6787071  64.0893126  32.6388597  99.6032906  64.7071362  33.3660722
  98.8428307  64.1590309  32.1776867 108.7283946  -0.0857812  43.3904314
 109.6602870  -0.0139218  43.5969353 108.6708928   0.1385516  42.4616671
  71.0665560  81.8962955  21.8417239  71.8876457  82.3878479  21.8215084
  71.2941933  81.0352325  21.4910316  43.4009171  97.5554657  69.7061825
  44.3362617  97.6540661  69.5283031  43.2649899  98.0148220  70.5348873
  75.9661007 105.5417728  55.5270195  76.1016035 105.1685333  54.6560621
  76.5988827 105.0875378  56.0833454  27.9339794  14.5645446  13.9903069
  27.1813682  14.2672843  13.4789991  28.6886028  14.1579837  13.5642874
  74.6166611  74.7899723  39.8339558  74.2272854  75.1752281  39.0489721
  75.4958391  75.1663017  39.8746109 103.0948163   9.1795081  12.1039212
 102.5730086   8.7564963  12.7858353 102.4493361   9.5890826  11.5278637
  98.5145665   8.0206603  38.4666657  99.3870784   7.9286498  38.0839229
  98.3126784   8.9524383  38.3814478  77.1818472  14.2370051  65.7598400
  77.4200965  13.7993545  64.9425697  76.7706872  15.0555820  65.4821491
  41.5340713   0.9381885   8.1389576  40.7697777   1.4979285   8.0019510
  42.1302227   1.4713496   8.6648661  91.4658928  47.8267956   6.9331950
  92.3206425  47.9162264   7.3546571  91.5241528  48.3794117   6.1538029
  44.9402285  80.9877110  61.4367723  44.8493814  80.9819221  60.4839087
  44.2795944  80.3669643  61.7441320  64.0723562  75.7103014  40.5190992
  63.5663795  74.9653387  40.1946831  64.9597263  75.3681612  40.6274557
  74.6623087  66.7887306  70.6215954  75.0361967  67.3891306  71.2665415
  74.2504406  67.3598576  69.9732018  61.3182735  87.8877831  26.7671728
  60.9215117  88.2614422  25.9802890  62.2605324  87.9848862  26.6295314
  77.0271921  58.1088591  23.5654235  77.6628971  57.6561022  24.1196132
  77.5108862  58.8513327  23.2034802  61.6600132  65.0850868  47.3422384
  61.0681677  64.9115705  46.6102266  61.6121483  64.2955494  47.8812838
  56.9016218  81.3901234  46.7686987  56.2696409  80.6838703  46.9030285
  56.5943146  82.0975494  47.3355627  83.0110836  57.4907541  57.2269917
  83.0659294  58.4080982  56.9592047  82.0757580  57.3349476  57.3578215
  65.5532265  93.6608028   1.1940266  65.7468081  93.9324188   0.2968187
  64.6696424  93.9900875   1.3585964  87.0106220  77.2408342  22.1420693
  87.7296162  77.8712702  22.1847630  86.9533730  76.8824911  23.0278134
  87.1195221  41.3645458  52.1673822  87.1441746  42.0163584  52.8679276
  86.3027191  41.5441465  51.7017603  71.6953754  67.1773720  78.3038807
  71.8303394  68.1247330  78.3267784  72.1666908  66.8497181  79.0698671
  58.0943155  75.0864172  59.8579693  58.0725098  74.4432735  60.5665779
  57.1810293  75.1727438  59.5846748  70.2304363  69.4237566  47.9648638
  70.6640530  69.6784306  47.1504021  69.3181896  69.6867609  47.8429127
  81.7491531  72.6934767  58.1037188  82.5855446  72.6154280  57.6448202
  81.5559673  73.6309004  58.0917740  87.6215172  63.9646912  58.2979107
  87.9534054  64.5980978  57.6616144  88.2766724  63.2668781  58.3053064
  19.4867997  18.9627879   1.4717007  18.5917716  19.1297476   1.7671394
  19.4556908  18.0814641   1.0995102  84.4370174  78.5078382  55.1978779
  84.6125126  79.4415379  55.0810814  84.2843151  78.1801319  54.3115854
  60.0267553  81.7163372  38.0778265  60.6137657  81.4119720  38.7699318
  60.4416656  82.5119591  37.7445579  73.5728168  66.3935995  39.2391825
  73.1689835  66.0548544  40.0381851  72.8425503  66.7533875  38.7356949
  71.1674643  69.8597574  45.4273033  71.7785740  69.2672300  44.9894762
  70.5916023  70.1693439  44.7281790  62.8001118  56.8943453  42.5539255
  61.9949722  57.3768187  42.3663044  63.4416342  57.5722837  42.7662420
 108.2101631  64.2749357  62.4710464 108.0505562  63.6804342  63.2040691
 109.1210079  64.5488071  62.5787306  76.0677242  59.5709991  37.3467183
  75.4806757  59.8607731  36.6484070  76.8636513  59.2958260  36.8917298
  92.4105453  87.0767021  20.1161408  92.4274349  86.4440632  19.3980062
  92.2962570  86.5432453  20.9026456  71.2335777  59.2187691  51.5300989
  70.7708454  59.8155069  50.9418678  70.8256674  58.3666134  51.3762474
  83.9295101  74.6002865  37.9753232  83.2246304  74.5186853  38.6177540
  84.6201229  75.0761509  38.4366536  65.1176834  68.1137228  54.2374992
  64.3025255  68.1206417  53.7357998  65.4480934  67.2201014  54.1453028
  61.7141771  96.6810036  26.9801068  62.0270681  97.1561241  27.7499104
  62.4181890  96.7746258  26.3383627  65.3260231  84.1589928  48.1692982
  64.5112276  83.6722469  48.0451536  66.0053301  83.5818195  47.8205347
  83.6555672  90.8677292  10.6526947  84.5577908  90.7814312  10.9605730
  83.2857990  89.9897289  10.7455385  90.8612347  64.7797918  59.2677212
  90.8139515  65.6917572  59.5546341  90.7384968  64.8204184  58.3192921
  77.9410172  58.6390781  35.9214139  78.6553335  58.5475636  36.5519762
  77.9450846  57.8154564  35.4336977  90.1897621  79.7122145  60.2260160
  90.0408936  79.9073792  61.1512089  91.1407280  79.6369982  60.1470947
  73.6115694  94.3783379  26.6846013  74.3058062  94.1372108  27.2978902
  73.3531332  93.5511684  26.2781119  84.1317177  90.8264828  45.8661318
  84.7985744  90.3977013  45.3297615  84.0375614  90.2583122  46.6306925
  61.5870810  94.3221474  67.3724365  61.8564034  93.9104557  68.1935358
  60.7589293  93.8961506  67.1512651  67.1421814  85.5005074  33.9004540
  67.8264093  85.4644299  33.2320523  66.9201374  84.5841885  34.0656042
  93.5238838  57.2903347  53.1359720  93.7633991  57.8541899  52.4004936
  94.2973804  57.2906542  53.6998320  50.1021051  92.4072075  37.5638223
  50.6519365  91.9193745  36.9506860  50.7221603  92.8970337  38.1040525
  64.8363686 105.0482750   6.0658878  64.0972519 105.3388214   6.6002297
  65.5385923 104.8867607   6.6959912  64.8681545  64.5189857  55.3504753
  64.5509958  63.6160898  55.3299475  64.0733433  65.0513411  55.3837442
  70.1991130  12.9620189  21.1978865  69.5137335  12.2956008  21.1491132
  70.1305533  13.3115214  22.0863533 107.2920418  35.3505468  48.4536505
 106.8668556  36.2080574  48.4647608 108.2139111  35.5425143  48.2817793
  66.3574076  58.2883692  28.0669236  67.2152758  58.7129402  28.0722928
  65.7406330  58.9920616  28.2685137  20.6618599   4.6864528  57.4151087
  21.6152195   4.6089858  57.3786449  20.4965595   5.2589625  58.1642008
  72.7136517  52.0847082  34.6913481  72.6316977  51.2214899  35.0967693
  73.5193777  52.0323515  34.1772485  69.0890694  64.9072790  47.3671484
  69.7037125  65.6041241  47.1372557  69.1836119  64.8073912  48.3144140
  92.2834969  64.4988441  69.9428988  91.5292645  65.0476933  70.1576853
  91.9030476  63.6590338  69.6855688  73.1091213  92.4262619  66.4185333
  74.0451574  92.5966263  66.5236187  72.6811552  93.1660175  66.8496275
  89.6552753  90.0475121  32.0439601  89.9913788  89.6068859  32.8244233
  90.1490211  89.6622372  31.3200736  93.1607437  82.2681618  22.9971528
  93.5290623  83.0975246  22.6926661  92.2240734  82.3403263  22.8136206
  75.8842421  89.8189545  63.4824085  75.2033043  89.4043827  62.9526091
  76.7008400  89.4283485  63.1712389  63.5579729  85.3265190  53.8344193
  63.2070017  85.0703526  54.6873188  63.3059263  86.2448597  53.7377214
  22.1155790  64.9221754  30.4262066  22.7183583  65.6227493  30.6753659
  22.6773217  64.2468357  30.0459576  62.7829361  98.4108067  80.1097775
  62.7543783  99.2942619  79.7424412  62.7177477  98.5424805  81.0556316
 108.7415648   1.3465137  50.0585365 109.5603705   1.2274570  49.5772696
 109.0131284   1.4558906  50.9698677  97.9203225   8.0798549  73.9602470
  97.5016356   8.8401908  74.3637705  97.3732520   7.3388404  74.2207193
  17.4663118  94.4111156  15.2892911  17.8405431  93.7624359  15.8854437
  17.5135282  93.9989948  14.4266462  15.6242851  17.4785728  21.8360901
  15.3776077  18.2971686  21.4056468  15.8497337  17.7364367  22.7299094
 103.1875134  88.7746048  29.9274278 103.6837482  89.3993378  30.4562855
 103.7672710  88.0175018  29.8442888  60.7455783  56.9099419   1.4409447
  60.6263690  57.6990883   0.9124756  61.4169840  56.4099782   0.9767342
  36.2114242   7.1739692  30.5700994  35.9247402   8.0678863  30.3831458
  36.5123752   6.8374938  29.7260380  26.7728428   1.7655200  54.6915627
  25.9913162   1.2155646  54.7462130  26.6816715   2.2292441  53.8591623
 100.2166224  12.5909347  81.1902237  99.9432374  12.5077647  80.2766800
  99.5794774  13.1913871  81.5771866  69.1353559  90.4695034  14.7555494
  69.4375372  89.5614624  14.7752845  69.8872328  90.9787655  15.0581312
   1.9954637 104.5455837  16.4740026   1.8684152 103.8375187  15.8425450
   2.6326612 105.1261425  16.0578704  95.1413059  93.1324291  46.9369411
  94.5493412  92.4476051  47.2481155  95.9365654  93.0159855  47.4567747
 102.1525002 103.4360409  14.9409962 102.2372341 103.8021660  14.0606487
 101.5412331 104.0226269  15.3865302  27.2374061  10.7669944  13.4042645
  27.3281387  10.5790347  12.4700952  26.2934593  10.7478827  13.5618472
  80.4115295  70.6876612  35.0947046  80.5272770  70.1686144  35.8905840
  79.7179031  71.3099957  35.3133869 102.0817519  37.2361678  38.5506177
 101.3672257  37.8668899  38.6393332 102.4708987  37.1906871  39.4239616
  36.4084916  30.0092881   3.7878037  36.2191443  29.0711300   3.8035393
  36.7293553  30.1740258   2.9011536  10.0776055 104.1215229  46.2003803
  10.0066236 104.6475983  46.9968987  10.9445623 104.3298435  45.8522224
  99.0348721  91.9073963  41.0207510  99.0245438  92.2888374  40.1428938
  98.4737682  91.1348820  40.9528446  54.7102070  88.5517502  33.8664079
  54.5345831  87.7871227  33.3180261  54.9359322  88.1862640  34.7218037
   1.4314798  93.9669609  36.1155653   0.6048921  93.8355255  35.6511116
   1.2415650  93.7135696  37.0188689  93.0163383  99.0999889  37.1664906
  93.9296341  99.1176891  37.4525332  92.9506397  98.3145428  36.6233587
  90.7299900  57.0969391  59.3319893  90.8458805  56.2730646  59.8053122
  91.5258121  57.1858788  58.8075876  99.3213081  87.1623421  16.3737404
 100.1939106  86.8343353  16.5910089  99.2925549  87.1510887  15.4170382
 102.4744892  89.5409107  53.3605099 102.9863834  90.2703667  53.7099218
 102.7353954  88.7888813  53.8921213 104.8387767  23.7480945  58.0146694
 105.1826287  24.5437926  58.4206963 105.5859042  23.1502933  57.9888153
  91.3878250 103.9384747  56.8579340  91.1392784 104.8272705  57.1119022
  91.8233681 103.5811996  57.6318121 106.8002988   1.5191955   2.7977616
 107.6847125   1.1635226   2.7108839 106.3610698   1.2702292   1.9845420
  26.6694168  10.7070464  51.1916637  27.4463562  10.9941596  50.7119179
  26.5572647  11.3624782  51.8801832 109.4312000  79.4798899   7.5357777
 109.6814919  80.0180912   6.7848253 108.4801769  79.3975210   7.4650651
  81.5491772  97.6216221  25.2579808  81.0112095  97.6136112  26.0496569
  82.4471092  97.5335693  25.5776763  77.3345900  87.2037888  37.9785514
  77.4920750  87.7239704  38.7664890  77.0856524  87.8457069  37.3135662
  34.6324161   1.9222754  59.0900850  35.2983288   2.6086253  59.0488100
  34.3187622   1.9469184  59.9941015   4.0538266  94.2938423  57.2595406
   4.4646409  93.8156223  57.9798031   3.5210183  93.6380768  56.8097401
  74.0539455  81.9494629  37.5286579  74.1255856  82.6640701  36.8958521
  73.4078407  82.2565842  38.1646276 108.2563210  68.4993410  46.6276121
 108.0864811  69.2950249  47.1318722 108.9588451  68.7431383  46.0248947
 104.1485453  21.9330901  21.1500788 104.6283580  21.1709613  21.4743781
 104.7124434  22.2989482  20.4686117 107.3450851  94.8293591  15.2201867
 107.2219276  95.2628803  16.0646522 108.2688808  94.9687481  15.0118661
  60.6182957  73.1337976  24.2339253  60.9667921  72.6498413  23.4852147
  60.0993919  72.4893141  24.7151899  65.5912733  94.7330379  31.1671257
  66.3425589  94.1954041  31.4176250  65.9325695  95.6270981  31.1472034
   1.5582947  49.5912093  52.0511198   1.2111858  50.0453109  51.2833071
   0.8487133  49.0112609  52.3274946 106.2679053  15.3180999  69.8967028
 106.3691951  15.5701942  70.8145380 106.8437196  14.5607585  69.7913837
  87.4234962  63.6959314   4.6242771  88.2577801  63.2346535   4.7105128
  86.8553734  63.0791283   4.1627353 106.7386627  96.0340977  46.6436100
 107.5337982  95.5348969  46.4570999 106.6152287  95.9437084  47.5885057
  71.3126993 103.1641579  40.9177637  71.0924244 102.2366047  40.8320713
  70.8565569 103.4464073  41.7105436  47.8180365  48.4649460   1.4016056
  47.6807933  48.0912202   2.2720718  48.5957770  49.0147393   1.4968967
   3.9974646  29.0519542  38.4231377   3.3764366  29.7795123  38.3884072
   4.3722299  29.0147227  37.5431395  94.4827271  49.4525337  53.6799145
  95.1459408  48.7623358  53.6800671  94.5569038  49.8557949  52.8149843
  66.4216042  78.5906315   5.2186900  66.9770241  77.8820038   4.8937398
  65.7362843  78.6806536   4.5565251 111.1395074   4.6919841  55.5755615
 111.9677306   4.3406314  55.2487230 110.4676629   4.1913623  55.1127148
  83.0187416  72.3554087  30.0652266  82.6465797  72.5838566  29.2134452
  82.7543449  73.0720234  30.6421041  96.9069814  49.7542883  85.9677064
  97.0538186  49.2809130  86.7865998  96.0326337  50.1320292  86.0628784
  81.0564995 104.1072273  74.2419910  80.3537273 103.7004852  73.7351465
  81.4349651 103.3875847  74.7470713  77.5851011  91.4466476  59.8339081
  78.4527779  91.1782742  59.5316839  77.0139694  90.7138920  59.6034813
  76.1461544 103.6997700  62.4612761  75.6159925 104.4901180  62.3587608
  75.5198097 102.9798317  62.3863506  68.3520651  66.4434576  43.7627029
  69.0126371  65.8461809  44.1136169  67.7989483  65.8910322  43.2103252
  20.0720600   5.9814567  43.4052944  20.5700497   5.3137893  43.8769531
  19.1849617   5.9124488  43.7581539  99.9757577  13.5944194  31.0446191
  99.3360377  12.9189128  30.8194876 100.7753659  13.1089419  31.2475228
  96.0742569  95.5242825  38.8976860  95.4066181  95.9436798  38.3549070
  95.9001732  94.5871353  38.8100648   2.6749185  87.3858166  44.1599941
   1.8892339  86.9740105  43.8003445   3.3335736  87.2861862  43.4726238
   7.1367982  74.7767210  23.5462785   7.6014283  75.3863144  22.9729176
   6.5127900  74.3347216  22.9705286  44.1467619 103.6363316  36.0904074
  43.9193773 103.4851074  35.1729870  44.7207832 104.4020844  36.0718155
  81.1596874  15.2988547  39.5022893  81.5105251  14.4955558  39.8868060
  80.2400974  15.3097075  39.7677588 109.2804623  97.8293610  41.7854118
 109.3743992  97.3022079  42.5788307 109.2633820  98.7335110  42.0991993
  89.0036964 102.4535179  70.6134701  89.9422264 102.3418713  70.4620314
  88.6050224 101.6704464  70.2338791  45.2221155  96.8219662  23.2900405
  44.4666576  96.6553116  23.8537216  45.4956198  97.7117634  23.5129571
  89.9926567  36.7902207  70.5414772  90.2033806  37.6641083  70.8703375
  89.0984535  36.8685913  70.2090645   7.7755169   3.1253737  53.1088924
   8.1491951   3.8557071  52.6157236   7.1242336   2.7461833  52.5187445
  12.3424534  10.9154052  58.2945204  12.8273109  10.3021354  57.7422237
  11.8527035  11.4583510  57.6767874 108.0097771  84.6906853  47.0400095
 107.3028946  84.9881172  47.6127911 107.6430893  84.7476101  46.1576653
  82.3661041 105.2977753  60.3224421  83.3141136 105.3902340  60.2278519
  82.2568607 104.6573448  61.0253954  76.1539793  85.7586956  48.4277964
  76.3315153  86.5779877  47.9657698  76.9897795  85.5257034  48.8320065
 100.4439068 101.3031864  42.2517061 100.5744267 100.4725170  42.7090883
  99.5283222 101.5271091  42.4184179  80.4775810  69.6761560  29.7544718
  79.5630741  69.4147873  29.6468425  80.6336975  69.6189022  30.6971192
  91.8257904 104.8429871  54.1267061  90.9153938 104.9589920  54.3986464
  92.0620918 103.9721775  54.4462109  89.7633266  93.3306789  40.9213543
  90.2836037  94.0864182  41.1941433  88.9131165  93.4610462  41.3413143
  89.8485947  66.8987370  18.5184085  90.0854683  66.5724182  17.6502836
  90.0988007  67.8225374  18.5035205   4.8942712  99.5452690  35.3406692
   5.1248887 100.4596233  35.1763821   5.6924108  99.0569496  35.1387978
  14.4217876  20.0852126  66.8323183  14.0446190  19.2642993  67.1486807
  14.6751598  19.8996181  65.9281158  99.3331147   7.0002002  47.1125984
  98.6748505   7.3307342  47.7238846 100.1679469   7.1464747  47.5574446
  25.0325302  29.0403861  34.6723223  25.2031044  28.6638659  35.5356717
  24.1047195  29.2749042  34.6923614  77.8421450 103.4123516   1.9481191
  77.6383257 102.4803162   1.8706934  76.9960785 103.8508415   1.8579519
  65.6669378  96.7297363  62.4307489  65.9980583  97.3316574  61.7642021
  64.8724461  97.1502113  62.7597189  70.7148790  75.3371525  38.1706882
  69.8540401  75.2987480  37.7538919  71.2311745  75.9081364  37.6017904
   0.9326699  81.8891048  42.3762894   1.6097787  81.7542648  43.0392885
   0.1325086  81.5518761  42.7790976  82.6871300 101.2099743  37.6555371
  82.0757008 100.6051064  37.2354031  82.8960609 100.7961273  38.4929800
 101.2932015  23.5458774  45.7074213 102.0759726  23.0019301  45.6200790
 101.4462281  24.0602988  46.5000010 106.1118603   2.2996634  28.2583857
 105.5406523   2.7669543  28.8679767 106.1574794   1.4095229  28.6073804
  80.5834103 102.5147629  18.7482727  80.5080414 103.2518959  19.3542385
  81.0199833 101.8308830  19.2561448  12.1971134  13.4645385  41.5903139
  11.9413856  12.9133719  40.8506823  11.6874699  14.2670363  41.4784813
  89.2892265  95.8553505  48.4503937  89.2635536  96.6848469  48.9273691
  89.9338627  95.3277779  48.9219284   5.2241472   6.5017337  72.8446150
   5.1773933   7.0642776  73.6176491   4.6939615   5.7378596  73.0718470
  99.6716022  76.6506767  35.8167577 100.5960941  76.6024399  35.5733895
  99.5438862  77.5579643  36.0937953  67.2249317  60.4230547  30.6960583
  67.3871708  60.1545429  31.6003871  68.0731058  60.3290749  30.2624726
  80.7844925  87.5005817  21.3122010  80.2812767  87.3225498  20.5176449
  80.2689457  87.1060848  22.0156360  20.9595680 102.7970982  73.4248781
  21.3969469 102.3406124  72.7061605  20.2556086 102.2056580  73.6911058
   2.8852896  16.9323939  44.2880726   3.0755476  16.1145705  44.7476339
   3.7457279  17.3073501  44.1002417  60.3094864  58.2471371  22.8440452
  60.9744549  58.2645130  22.1557522  59.4809008  58.1525517  22.3742294
 103.8786983  74.2266989   3.1017435 103.5413170  74.2067528   3.9972916
 104.7919178  74.4976377   3.1958199   3.4040741  17.2714442  60.2024984
   3.8444237  16.7052192  59.5686960   2.9340176  16.6673965  60.7772923
  78.3741570  97.3079967  29.2664766  78.0083084  98.1458569  29.5499992
  78.9723253  97.0573425  29.9704623  86.2892915  28.2718200  60.6874704
  86.5990067  28.5162086  61.5595865  86.0337687  27.3533076  60.7727337
  99.3235446  33.1100577  43.3599997 100.1388217  32.6604671  43.5823202
  99.2514134  33.8100547  44.0088749  88.4101772  59.3363953  45.0029850
  88.4064198  58.4018803  44.7958660  88.3022976  59.3715000  45.9534407
 102.7473450  78.5114384  57.3597145 102.7418613  77.8320265  56.6854715
 102.2994804  78.1122923  58.1055880  16.7048458  11.5941066  24.5400858
  16.1925701  11.9599742  25.2611637  16.0503582  11.2966651  23.9081001
  97.7960777  90.4604340  20.1305676  97.7567482  91.3683033  19.8298085
  97.8802299  89.9456692  19.3279660  96.7210960  89.2097759  44.3496418
  95.9387112  89.6004295  43.9604282  96.7993259  88.3558273  43.9243221
 105.2409267  75.6132221  74.0142965 106.0528183  75.3103876  73.6076641
 105.3675556  76.5549803  74.1295624   5.8278183  33.2577151  50.9139299
   5.7446293  34.1519279  50.5827379   4.9656776  32.8676814  50.7696486
 111.2324810  94.7561455  -0.0058347 111.9835567  95.3206253   0.1771610
 111.5285397  93.8781738   0.2344470  57.2222380  54.2739289  11.1573792
  56.3575797  54.0195458  10.8350849  57.0733599  54.5269292  12.0684528
  72.6769924  68.7658215  26.5537047  73.1959534  69.1435480  27.2637987
  71.8353367  68.5551643  26.9580150  68.3076620  94.4792271  68.8936996
  67.3889208  94.2174435  68.8336277  68.2846975  95.3393459  69.3131065
  18.9639477  48.3492297   9.3157601  19.6482090  48.3641261   8.6465889
  18.4480099  49.1379088   9.1483527  95.2561760  86.1918354  55.3360748
  95.7500648  86.8804359  54.8909378  94.5688725  86.6589451  55.8111000
  84.7337819   2.9408854  45.8701277  84.9472142   3.8348502  45.6027269
  85.4042722   2.3996657  45.4532814 111.4293957  14.1902751  56.9970274
 112.0034838  14.9155921  57.2431326 111.3274194  14.2765159  56.0491896
   9.1429237  19.2470855  36.4343143   9.2238621  18.5467452  37.0817757
   9.1872982  18.7987823  35.5897546  89.9699688  71.5277004  75.2040434
  90.3180981  70.6589603  75.4048538  89.2809010  71.3664818  74.5595026
  88.4673977  51.5335989  76.1745024  87.9629040  52.0899534  75.5810499
  87.9386806  50.7410812  76.2672997  84.9664116  87.8177452  58.5737133
  85.7284069  87.5040436  59.0607405  84.9598217  87.2913837  57.7742529
 106.1953068  65.4899454  61.2507772 107.0596886  65.2156782  61.5571404
 106.0421467  64.9653339  60.4649305  50.3021765  82.1370125   7.8610343
  49.4397926  81.9665432   8.2398051  50.4457521  83.0725670   8.0037051
  75.2954626 101.7104626  27.1632981  75.7157421 102.0137882  27.9680300
  74.4426823 101.3816738  27.4477100  67.5465775  81.7629433  33.7173438
  68.4975243  81.6613102  33.7574625  67.2737265  81.1845875  33.0051017
  10.6136326  20.2570933  32.7156210  11.1160091  20.9655303  32.3131609
   9.9133686  20.0741881  32.0891976  48.5383800  13.7332744  49.2519617
  47.9761509  13.0662078  49.6458578  48.5469917  13.5188693  48.3191204
 105.2243423  70.6696272  47.0423412 105.0473976  69.8948383  47.5758457
 104.4087982  71.1700487  47.0688820  88.1594276  85.9920788  13.8605940
  87.8666592  86.5802383  14.5567143  87.8154278  85.1346588  14.1110182
  85.3666306  85.5851460  43.8133478  85.8488941  85.1990223  44.5444870
  85.9541607  85.4925823  43.0633640  59.1021299  98.7696552  71.9078636
  59.3501997  98.4797668  71.0299969  59.8990154  98.6669922  72.4281120
  18.7093166  39.0913123  56.3635635  19.6602348  39.1663283  56.2838078
  18.3677391  39.8311633  55.8614016  90.9674358  96.1234093  51.8354797
  90.8278179  95.5957317  52.6217985  91.7384911  95.7362366  51.4209986
  72.7531195  92.9405880  74.5625591  72.5393391  92.0166779  74.6926165
  73.3007717  93.1677914  75.3140163  21.4200500   8.3320159  42.6267195
  21.0090450   7.6393527  43.1439543  22.3598293   8.1818122  42.7290916
  -0.0354334  12.9207343  51.7567778   0.4097561  13.6492080  51.3239145
  -0.0416943  12.2214717  51.1031580  70.3424454  78.8978529  64.1136980
  70.7388163  79.7664738  64.0457392  69.6826982  78.9887667  64.8012304
  41.9080544  68.6394405  53.1082582  41.6871595  67.9310560  53.7129307
  41.1241150  68.7479353  52.5698328   4.5242218   9.7238082  39.1169977
   5.2491573  10.3318233  38.9720201   4.2970089   9.8376960  40.0398397
  81.2453461  83.0046463  51.7210388  81.4921951  83.6318398  51.0413885
  80.2915955  82.9497051  51.6612482  37.8184704   5.7905978  15.8549058
  38.3503059   5.1943130  15.3278148  37.5137905   6.4522475  15.2339256
  66.9401121  86.4771461  29.1338491  67.7115154  85.9238815  29.0110803
  66.5538549  86.1708927  29.9543643  86.1670685  91.6187763   7.2607833
  86.4708138  91.3019180   6.4101541  85.3478718  92.0747852   7.0679152
  91.5107442  10.8636779  19.0747941  91.0694075  10.3233451  19.7301543
  92.3419190  10.4163188  18.9158750 100.4608727  85.2277756  56.6428804
 100.9748745  84.4674778  56.9148540  99.6109009  85.1060200  57.0659208
  16.8408398  16.4095515  39.4146347  17.4775413  16.9722861  38.9739943
  16.6075615  15.7525367  38.7587786   8.1350377  82.0674706  56.3343477
   7.5322869  81.9165611  55.6062269   7.6913598  81.6911888  57.0944786
   0.9454682  93.8515091  22.6900005   0.0553086  94.2034149  22.6877236
   1.3226846  94.1595459  23.5140491  95.0146675  97.5616932  43.2162619
  94.7856903  98.0910015  43.9802170  95.0591373  96.6657543  43.5502434
 102.6572419   1.8589610  28.0498791 103.4290887   1.3058394  28.1704664
 101.9224549   1.2456149  28.0385542 102.0680141  68.6607552  40.2756739
 102.4567032  68.4318590  41.1199284 101.1561203  68.8678455  40.4801035
  25.9789566  17.6934642  87.3317051  25.7200149  18.1811160  86.5498066
  26.7798141  18.1252784  87.6290131 109.9566460   1.4581126  52.6084089
 110.6166125   1.1308116  53.2195950 109.5712567   2.2127837  53.0535889
  83.6559772  98.8192177  79.8035049  83.4992790  99.1906261  78.9353275
  84.0179253  97.9501438  79.6304560 108.8907433  23.1689185  42.4691629
 108.0407620  23.1009025  42.0342684 109.1648865  22.2615546  42.6024389
   5.6204704   3.6646575  57.0847797   5.6484608   4.6167296  56.9899130
   6.4310841   3.4458179  57.5443935   3.2708649   2.5806731  20.1508141
   4.2075781   2.7649230  20.0811720   3.2105688   1.8939704  20.8149171
 105.6472206  71.1744976  12.3510838 106.1246014  70.6215143  11.7325795
 106.1759663  71.9695044  12.4190664  68.8622713  96.0709190  26.1286044
  69.5149326  95.5275345  25.6870198  69.3709087  96.6156101  26.7292929
  72.5016117  92.3229218  60.8413553  72.8577995  91.9232655  61.6348553
  71.9145250  91.6582108  60.4811811   4.7943643  75.6559420  48.6045980
   5.4460767  75.5902195  47.9066133   4.2000726  74.9222612  48.4472466
 106.7057419  93.3425999  29.4744658 106.7038059  92.4098492  29.2594790
 105.7832432  93.5590744  29.6099687  88.0845261 104.2101860  23.2569885
  87.9046154 104.7690964  22.5010276  88.7747669 104.6693611  23.7354803
  80.1480675  58.0107927  37.4661207  79.5484209  57.7411890  38.1617975
  81.0106564  57.7293301  37.7710128  91.0754204  96.6339684  38.3175611
  90.9944248  95.9401798  37.6630926  90.2412510  97.1015453  38.2754254
  56.2823439  80.6903362  55.3764343  55.6068563  80.5665684  56.0432434
  57.0375919  81.0252094  55.8598518  92.4495029  97.2511959  35.1885915
  91.6714096  96.7138958  35.0398922  93.1307125  96.6241646  35.4315305
  34.0052322   5.2666205  30.0847363  34.9505905   5.3827018  29.9895859
  33.9117626   4.6435279  30.8053255  55.7006884  92.0138073  14.9821293
  56.6059685  91.9833279  15.2915871  55.3519154  91.1437225  15.1758945
  61.4902067  96.0629368  37.7965355  61.7092705  96.5666676  37.0126343
  60.5909491  95.7698345  37.6493549  80.2210999  71.6942739  56.0396099
  80.7422161  71.9417572  56.8034267  79.5448732  72.3692894  55.9821081
  22.4141411   6.5225619  45.6916189  21.5024666   6.7304439  45.8962488
  22.3631576   5.7495517  45.1293993 108.8534737 102.6265526  57.3815012
 109.0714359 103.5085487  57.0801830 108.8771820 102.6870060  58.3364916
  20.5293659  11.4885634  70.6857777  21.2747291  11.9707507  71.0437584
  20.8906177  10.6367606  70.4405165 109.8493385  89.3083096  55.4370403
 109.7352219  88.3617401  55.5219269 109.3375778  89.5427799  54.6628571
 111.1453057   3.5623473  47.6364374 110.7655288   3.9543551  48.4227800
 110.7796431   4.0726775  46.9138813  65.7027197  79.8891544  17.1883833
  64.9365044  80.2696896  17.6177239  66.4498997  80.2823830  17.6393092
 106.9832564   7.1581573  66.1480093 107.0530940   6.9331569  67.0757627
 107.4316502   8.0003661  66.0713959   1.8671516  10.6055182  38.7730050
   2.2682766   9.7574061  38.5831761   2.1832184  10.8294028  39.6483421
  90.2360439  76.7741585  40.8793736  91.1603737  77.0220423  40.8593798
  90.1486111  76.1194086  40.1866293   7.6724056   0.9884757  37.3220921
   7.5348476   0.3498382  36.6224790   6.9607166   0.8232707  37.9405165
  42.1524863  60.3574841  20.3723240  42.4415593  59.8673241  21.1419964
  41.2933068  60.7017033  20.6163502  65.0184822  93.7055683  48.1502867
  65.3472090  92.9483986  48.6349106  64.0660048  93.6173820  48.1855202
  95.8417797 101.1199856  30.3575683  95.1989269 101.8128109  30.5091095
  95.6619930 100.8169174  29.4675922  83.4778690  50.5963087   9.6986860
  83.3946228  51.3419867   9.1043234  84.4087601  50.5691099   9.9199075
   8.1642678 101.0605907  29.5359802   8.9920095 101.4954567  29.3311405
   7.5174192 101.5073967  28.9899182  14.9723390  44.9128389   1.6289261
  15.2867177  45.3367853   0.8303850  14.3546632  44.2496967   1.3207883
  13.3176140  23.1790942  21.4065075  13.0494121  24.0919799  21.3019633
  14.2114834  23.2293624  21.7451906  92.1469784 102.5384045  43.2654476
  92.1835899 102.8025532  44.1847467  92.5351334 101.6635418  43.2519913
  89.8243904  92.0239830  29.8261070  90.7557106  92.0972347  30.0347185
  89.6001911  91.1196613  30.0455809  84.0841675  77.3686075  33.4281421
  83.3515072  77.7600956  32.9525614  83.8379288  77.4422646  34.3501902
   5.3802064 102.9782867  18.5133111   4.8976377 103.7803078  18.7136376
   5.5692914 102.5925446  19.3686950 108.9200783  42.3425102  17.4907136
 108.2536030  42.8577518  17.0362210 108.5162830  42.1136713  18.3278584
  93.3247185  92.2750664  37.0818162  92.4400520  91.9978809  36.8435359
  93.8894463  91.5680027  36.7697763  57.2166776  59.3086745  90.6944232
  56.4380025  59.5996119  91.1690273  57.3316240  59.9588515  90.0013959
   5.1059392  78.4664583  86.6892529   5.8201173  78.0555820  86.2020493
   4.9332193  77.8651714  87.4137211  73.4639025  78.0101156  33.4278846
  73.5373354  78.3489895  34.3200755  73.9514589  78.6364603  32.8928924
  20.0565533  12.0810908  44.8446655  20.4460720  12.5527877  45.5808735
  19.1711143  12.4376506  44.7732830  12.8948978  31.9571036  51.1590004
  12.9663566  32.7173251  50.5817699  11.9817737  31.9593448  51.4460850
  29.7424034  16.8334979  23.8318110  30.3460888  16.0953540  23.9151359
  28.9184097  16.4380855  23.5473609  15.7552437   7.0179481  35.1649952
  15.1701931   7.5862712  35.6659460  16.6257671   7.3928660  35.2986574
  79.8661232 104.8929596  54.4097376  80.5196095 104.6146870  55.0514174
  79.8462057 105.8468723  54.4864130  69.7341490  95.5978966  57.2287750
  69.0202284  95.2663708  56.6841316  69.4294739  95.4697323  58.1270933
  23.2774452  13.3202189  18.6006379  24.1869167  13.0839747  18.4182346
  23.3039192  13.7221450  19.4689608  33.8095450 100.5091858  35.2492690
  34.5719147 100.2840328  34.7160435  33.2749367  99.7151947  35.2501416
  78.4318352  99.6288967  57.3154879  77.5555468  99.6194458  57.7005386
  78.6487246  98.7049389  57.1909857  99.2985535  90.7003117  27.1919250
  99.6990776  90.2422142  26.4530349  99.0061378  90.0014305  27.7769852
 100.5308151  79.2845201  75.7273483 101.4627838  79.1650248  75.9100580
 100.4771042  80.1434231  75.3082609 104.5768547  90.2436924  46.6473436
 104.1005516  89.4382191  46.4459276 104.2680168  90.8737564  45.9962845
  27.4238495  28.8391894  15.9611642  27.8030304  28.0509871  16.3499987
  27.8763489  29.5621223  16.3957202  24.5076469  20.7203692  35.3853321
  24.1211227  19.8983497  35.6872034  25.0872520  20.9885615  36.0983253
  94.9891186  35.1620978  29.6925807  94.4537259  34.8927135  28.9462447
  95.5677605  34.4168109  29.8536730  70.3244495  98.5797882  25.3802323
  69.8308659  98.5600853  24.5603442  69.6954393  98.8912678  26.0310459
  35.1161193  59.6790148  88.3257186  35.7512664  59.4889380  89.0161446
  35.3386068  59.0702177  87.6213774  82.9239464  75.7617617   5.9261757
  83.1854439  75.7393646   6.8466914  83.6935806  75.4487467   5.4508668
  21.7885593  14.2045707  27.3457718  21.3972286  13.4160537  26.9698381
  22.6203350  14.3033904  26.8825030   1.0009244 100.4418087  47.8374958
   0.9249833  99.9198437  47.0387363   0.4960206  99.9562454  48.4898233
  80.3578854  91.4660454  44.8712015  81.0486603  92.1284771  44.8866415
  80.6355476  90.8461285  44.1967821  81.4510536  85.3273106  45.8381796
  80.8019066  85.9735012  46.1161661  82.0949364  85.8327770  45.3420401
  26.0255913  34.2970103  40.1189709  26.5820984  34.9717444  39.7300482
  25.6141094  34.7283000  40.8679056  65.1743127  22.0183391  23.5934687
  64.4836832  21.6523665  24.1460347  65.9677006  21.5563029  23.8641763
   7.7798084  42.0003337  55.4086256   8.4742550  42.6511020  55.3062487
   8.1937508  41.1695308  55.1748657   1.8950037   4.9015063  75.0806284
   1.4597801   5.2063674  75.8767891   1.2009481   4.4781512  74.5753717
  62.2592305  47.8979803  87.3946914  62.7397107  48.5741068  87.8724092
  62.4679422  48.0605437  86.4747772  82.6606464 100.2484035  50.7675505
  83.1296444 100.7632256  50.1108742  83.1929398 100.3278542  51.5591240
  22.0062164   9.2084044  29.3645430  21.8882183   8.9758986  30.2855468
  21.6601852   8.4577769  28.8817883  69.3623590  69.0565395  14.0038800
  69.9897528  68.8716650  13.3050060  68.5129690  69.0800667  13.5631800
  15.4173283  21.4676875  54.9255371  15.0074009  22.2681731  54.5978022
  15.5120949  21.6150874  55.8665609  54.7703981  36.5556265  73.6794913
  54.3612527  36.1934210  74.4653916  55.3319692  35.8513953  73.3555591
  69.6577692 103.8902092  35.4658413  69.4583035 104.8259926  35.4933286
  70.1758862 103.7790680  34.6687007  79.1518641  89.8488808  75.2891350
  79.6707821  89.1109180  75.6090832  78.2433748  89.5666790  75.3951454
  42.0706034  90.2174187   5.4818434  41.6302586  89.3871593   5.6634802
  41.8663454  90.7673550   6.2382078  77.8275299 105.0596714  27.5018430
  78.6471796 105.5469131  27.5855565  77.2939873 105.5886078  26.9087219
 102.0503235  83.9078522  34.4401121 101.7546654  83.9762402  33.5322881
 102.9788113  84.1382599  34.4076204  98.0601692 103.7544632  49.2193890
  98.9047146 103.4890175  49.5834208  98.1988049 103.7603664  48.2722998
 107.8718377  11.7109221  75.8536148 107.2687102  12.4126834  76.0985851
 108.2126714  11.9754333  74.9991560  18.5408787  15.3575820  43.1109428
  19.3533043  14.9082202  42.8779650  18.7131313  15.7310695  43.9752769
  81.8441296 100.1517010  24.1601539  82.1682167  99.4159031  24.6795893
  81.7326164  99.7927189  23.2798529   0.3558782   5.7991237  42.7199554
   0.5598167   4.9730701  43.1584501   1.1904291   6.2669772  42.6903439
  34.0091586 103.2638073  44.3729782  34.5234084 102.7799416  43.7267208
  33.9971304 104.1629696  44.0449381  88.8766861  58.7027931  56.2588215
  89.3645859  58.3808994  55.5008173  87.9913330  58.3599472  56.1370039
 106.7937565 100.1632690  19.5034325 105.9739685 100.4751492  19.1201496
 107.4147511 100.8760643  19.3533862  96.0699654  11.7342872  60.6265020
  96.3726331  12.3483390  61.2955046  95.2708531  11.3556117  60.9929132
  80.8786774  99.4960403  36.5762043  80.0367737  99.4031525  36.1303377
  81.4712429  98.9217567  36.0911322  77.5763798 100.2638531  66.2330770
  77.6746178  99.5852089  65.5652285  77.5111389 101.0800743  65.7373476
 107.2212220   1.2439746  36.2381196 106.8918515   2.0929069  36.5331817
 108.1388856   1.2353724  36.5102315  70.1229095  99.8758125  31.3504982
  70.7457733  99.3639851  30.8344483  69.3103504  99.3711472  31.3145566
  66.7021656  92.0573330  44.7545099  66.8467569  91.4392471  45.4709530
  66.5684748  92.8999805  45.1884556  88.4598255  94.0404129  20.8083415
  87.7936554  93.3543682  20.8506823  88.9506245  93.9484119  21.6249752
  53.9884571   8.4452743  49.7398710  54.7432426   8.0272120  50.1542997
  53.2586769   7.8517837  49.9170923 110.7971764   4.5668715  58.5097647
 111.2452651   4.3631858  57.6888132 111.3200093   4.1307849  59.1825962
  16.9143299   7.2281188  72.8878784  16.0454277   6.9560164  72.5925970
  17.0901016   6.6796989  73.6524534 109.9464226  19.0219993  35.2968025
 110.8080483  19.0973109  35.7068825 109.8128033  19.8650760  34.8636723
  35.4204658  14.6051425  36.1941290  34.6304230  14.3960113  35.6957984
  35.0988583  15.0560206  36.9748378  87.8470898  84.2187309  22.4668956
  87.0031834  84.2043877  22.9183888  87.8040028  83.4837151  21.8552327
  97.7941990  66.8799877  66.2159252  97.9953098  65.9969139  65.9061432
  98.3068752  67.4554873  65.6482935  91.4619160  97.1197796  43.3143568
  91.5109634  96.5373230  42.5563526  91.2164021  96.5470886  44.0409803
  91.2377644  98.4472752  22.6121688  92.0180321  98.9863110  22.4823141
  91.0334492  98.1078053  21.7408228  94.7531128  88.9740181  47.7831793
  95.1214981  88.1612682  48.1295300  94.5500088  88.7745953  46.8692780
   5.3588203   2.9411334  30.7169580   5.1711754   2.3173827  31.4183545
   5.9559158   2.4729175  30.1334500  55.7449249  42.6914901  26.2822104
  54.9653248  42.8488273  25.7495737  55.9388546  43.5404510  26.6795659
  89.1976929  87.2605228  51.0772514  89.6537209  87.3043633  50.2368069
  89.7952461  86.7787552  51.6491413  78.6307669 104.2982578  36.1059952
  78.3458996 103.9648342  35.2551651  77.9158974 104.0752220  36.7021942
  11.5809444  22.9630202   8.6931813  12.4807552  22.8249949   8.9890200
  11.4830784  23.9146155   8.6598682  71.7217445  89.1282368  55.5309248
  70.9965515  88.7010002  55.9867716  72.5043583  88.8329315  55.9962654
  50.9158710   1.5413684  38.2822466  50.8068947   0.8340568  38.9179111
  50.5913357   1.1758632  37.4592519   3.1164411  89.5593357  49.9756575
   3.1889012  88.6815166  49.6009350   2.2311357  89.5927143  50.3380775
  10.3947071  18.6831397   9.7537351  10.1173118  18.2974643   8.9227468
  11.1421875  18.1512851  10.0269437   1.5868381   7.3687095   8.8758063
   1.3059000   7.0585460   8.0149335   2.2931484   6.7731780   9.1261935
  39.7448925  18.5216540  38.9851236  40.6509308  18.7979907  38.8474464
  39.3441585  19.2456264  39.4662833   7.0642380   8.4885615  85.8432484
   6.4010433   8.9505118  86.3560867   6.9564728   8.8251227  84.9536800
   4.4668201  13.8198775  62.4297857   4.6780733  13.7861747  61.4967966
   4.2613844  12.9142016  62.6617098   8.2658867   7.4123401  21.3013029
   7.4014286   7.6310367  20.9532762   8.8073353   8.1738967  21.0937190
  40.3617100  11.0444469  57.9072189  40.2866844  10.9724254  58.8587523
  39.4779304  10.8703250  57.5834179  27.7306370  31.3660354  29.2628646
  27.2221569  30.6603450  28.8632655  27.6856998  31.1910171  30.2028537
 108.9475966  25.7129973  30.3301692 108.7033225  26.0620803  31.1873198
 109.5613862  26.3562697  29.9756432  41.8935589   9.1310042  69.4773436
  42.2686771   8.2636374  69.3250561  42.5126366   9.7350425  69.0673161
 102.8372288  91.1849308  32.7493787 103.6505985  90.6803226  32.7544904
 102.9854774  91.8846798  33.3854580  12.8849033  40.2045745  15.9937394
  12.9382900  39.4098109  15.4629612  13.6883263  40.1995200  16.5140498
  20.5277256   6.1998195  30.0977445  19.8214249   6.4163512  29.4890714
  20.3431896   5.3004664  30.3685880  99.8370171  14.0058345  14.8464417
  99.1486836  14.6709651  14.8409545  99.4206763  13.2272357  14.4767356
  93.4285117   9.2033404  18.3324218  93.4960080   8.3097190  18.6687517
  93.7523127   9.1460151  17.4334788   3.5503534  10.2850265  41.6541290
   2.7754167  10.7079047  42.0241022   3.4339861   9.3559093  41.8527079
  41.9016986  72.7670853  10.1316643  42.7419810  72.6869099  10.5830288
  42.0909743  73.3126633   9.3682861  30.4600338  16.1736793  47.3997211
  31.2622074  16.6197223  47.1280527  30.3560070  15.4620475  46.7680645
   9.4590428  91.1636257  23.6367321  10.1883748  91.7695618  23.5057354
   9.8368409  90.4379654  24.1336322  77.0180511  95.1309395  56.9943714
  76.5055275  95.9325600  56.8897009  77.0391369  94.9818516  57.9396534
  11.3495640  28.6600322  56.0040188  10.7421783  28.2310027  56.6067171
  11.8944935  29.2115325  56.5653801 107.7181769  48.6162013  46.0735226
 108.5154534  48.3717174  45.6036186 107.7188922  49.5733565  46.0646343
  93.4817505  79.9774218  21.2104797  93.2964516  80.6935692  21.8179584
  93.9773655  79.3446207  21.7302561  21.8802837  20.7812709  19.9552429
  21.0930065  20.8045787  20.4992056  21.6005138  20.3509063  19.1473162
   3.0538372   0.7879275  31.8963218   3.0587343   1.4854926  31.2408733
   3.1663708   1.2427634  32.7310014  97.8763581  38.4752387  40.6856489
  97.5562430  38.2943553  41.5694141  97.1173478  38.3283347  40.1212406
  81.9633389  80.6792545  49.9775028  81.9001770  80.0689411  50.7121897
  82.8354645  81.0648727  50.0607729  71.6245794  62.3762226  21.4520383
  72.3766041  62.7822161  21.0209227  71.1281919  61.9740725  20.7392216
  18.6357263  76.8510866  35.5143881  17.8933480  76.2470150  35.5289841
  19.2920831  76.4109278  34.9743056  -0.1193615  28.4125442  46.6560745
   0.7872585  28.1781692  46.4577246  -0.6339880  27.9726905  45.9793758
  87.0507908  99.4286728  13.6730313  86.4631081  99.6205807  12.9422593
  87.2338009  98.4924793  13.5937262  94.8638439  90.5518246  42.9803181
  93.9538860  90.7312775  42.7436972  95.2430153  90.1597500  42.1937180
  11.3824943  18.4276599  42.5134325  11.5038208  17.5229663  42.8015804
  11.7297272  18.9564437  43.2318020   3.0560497   2.2778148  52.4339294
   3.0203298   2.2006721  53.3873510   2.3377947   2.8712958  52.2145796
  89.7907257  89.8181820  39.2478681  89.6164799  90.1882458  40.1132679
  88.9307308  89.5494556  38.9247084  24.7693924  48.2311553   4.4772655
  23.9238171  48.6785239   4.5105967  25.1399044  48.4820479   3.6310977
  88.9432526  39.2228240  63.9325666  89.7798301  39.0468520  64.3631554
  88.2847167  39.0225619  64.5977354  22.2169975  21.4551085  24.9455810
  22.0215038  20.5903262  25.3063464  22.7340988  21.2757319  24.1602993
  11.3653187  14.3639773  32.8340673  12.3035625  14.2730445  32.6677513
  11.0560135  14.9527854  32.1456814  70.6807280  94.9179649  52.7153969
  71.6351748  94.9741364  52.7613020  70.3954744  95.8169556  52.5520420
  97.5982857  89.8654842  40.2282715  96.8106937  89.3741131  40.4616928
  97.4660587  90.1087379  39.3119884  95.6550121  92.0120239  21.8502474
  95.7883930  91.0697079  21.7479229  95.9407711  92.1986580  22.7445292
  94.5390511  94.7018051  36.0682249  94.2842197  93.8800335  36.4877415
  94.9103069  94.4361591  35.2268958  99.2219449   3.1259460  66.0379076
  98.3450747   3.3518142  66.3482571  99.5226813   2.4475974  66.6425800
  97.8862715  19.1314334  82.2265339  97.9230023  19.4180125  83.1390858
  98.7981988  19.1404265  81.9357777  97.8376484  74.8633814  36.4176154
  97.8913498  74.1616201  35.7688618  98.5401154  75.4670763  36.1761355
  64.8984528  71.6488695  18.4308422  64.7378635  72.5537872  18.6983681
  65.6734324  71.6984940  17.8712225  61.7815642  78.0077736   1.5450192
  61.5876822  77.0706360   1.5655422  61.0814051  78.4085553   2.0601654
  87.2382327  69.2860538  40.9084034  86.2999281  69.1233116  41.0049915
  87.3037561  70.2295810  40.7611132 108.6314841  93.9452451  55.2150965
 109.2475744  94.2758327  54.5613527 109.0442129  93.1503492  55.5527782
  64.6462774  16.9201791  22.5489378  64.0956831  17.5051200  22.0284390
  65.5165005  16.9997513  22.1582818  73.8618729 105.1274794  66.0818577
  73.1987024 104.6767016  65.5591393  74.4262391 104.4268239  66.4086676
 110.5232116  92.9947382   8.3846396 110.8114120  92.5497406   7.5876778
 110.7509752  93.9133948   8.2417256   7.0039462  79.7574478  46.1665392
   6.3608217  80.4561311  46.2868309   7.0079660  79.2892748  47.0014238
 110.0840111   0.5367497  12.6886988 110.5724055   1.3233045  12.9316688
 110.3064132   0.3912353  11.7691362  77.6594158  66.1828489  68.1276417
  77.2226544  65.8471913  67.3448229  78.4377189  65.6336470  68.2217503
  10.4059839 102.1758201  28.0000067  10.6943464 101.2880170  27.7881432
  11.0915183 102.5200966  28.5724998  45.4919100   5.0496376  37.1584034
  44.6049166   4.6927789  37.2045350  45.6568241   5.1611388  36.2221336
  12.8391278  20.2832770  35.9444404  12.5343752  20.3967023  36.8447137
  12.8894186  21.1728835  35.5947256 104.8964974  85.9347433  73.3315516
 104.4682952  85.9491843  74.1875124 105.0509235  86.8566376  73.1254101
   4.8508023 103.0383250  43.7990379   5.7782697 102.8018555  43.7880182
   4.4604968 102.4470082  44.4426489   7.5872219   3.7846303   7.7492994
   7.6909977   4.5072821   7.1302378   6.6810912   3.4985808   7.6338220
  21.3214827  11.7578018  20.0209928  20.5092835  11.8008530  19.5163047
  21.9969797  12.0602345  19.4139743 107.7499887  64.1583806  30.9063768
 107.0249482  64.7626239  31.0658836 108.2905074  64.6003848  30.2516222
 104.5839592  67.8602582  36.5477872 104.9949833  68.6396628  36.1738586
 104.2597362  67.3735434  35.7900143  27.7248668  84.7934037   4.3126467
  27.3983907  84.3198901   5.0777799  27.4512672  85.6992596   4.4568709
  58.0434465   0.6585160  29.7924018  57.1435738   0.5985999  29.4716716
  58.3567047   1.5037525  29.4704103 104.5763131 104.9873204  32.8921270
 103.7584921 104.6729727  33.2775974 104.3012258 105.5015799  32.1331167
  18.8082778  21.4095402  50.2873755  18.6623955  22.3505020  50.1897049
  18.1632769  21.1334848  50.9385300  39.5418572   9.1658688  47.1480942
  40.0883913   9.4689500  47.8731298  40.1487684   9.0711671  46.4139795
  92.4587949  98.4738093  49.0412903  91.5295430  98.3752668  49.2486763
  92.5455149  98.1198203  48.1561899 109.8898145 103.8178681  59.8346090
 109.1885706 104.4140611  59.5718527 110.5854865 104.3924352  60.1542139
   0.4578698   8.2984364  37.5538325   0.1343035   8.3353710  38.4539294
  -0.3320269   8.3276021  37.0139766  25.8270288  17.8050518   2.7205577
  26.2104774  18.6774993   2.6309362  25.1262021  17.7833557   2.0689411
  89.1600343  97.9103786  52.5512505  89.9145063  97.4403429  52.1961880
  89.4950386  98.3422762  53.3370447  44.6688986  35.9888172  31.7450166
  45.0510406  35.9631729  32.6222515  45.0161934  36.7914152  31.3558435
 106.2120267  95.2289802  20.4425216 106.3659879  95.3416127  19.5045221
 105.2616879  95.2913397  20.5384374   8.1712579  78.7592107  54.0562868
   9.0998649  78.5274821  54.0713787   7.8852081  78.6614138  54.9644947
  21.2775016   8.2029235  89.4594860  21.4538097   9.0477389  89.0454388
  21.4322495   7.5600535  88.7673855  15.4903507 101.9776457  68.9686632
  15.6628894 101.0454297  68.8366222  15.6334209 102.1174761  69.9047232
  50.6210899  26.2477827  45.6499052  50.6411219  25.9193277  44.7510481
  50.6154871  25.4595089  46.1928844  14.1511154  47.6879406  13.2111251
  14.9120796  47.2027493  13.5301185  14.4942403  48.2331276  12.5031221
 107.8355154  16.5619624  16.7451334 107.7943030  15.7025433  16.3256919
 107.0366469  17.0059013  16.4605987  37.4102235  19.7006786  26.9331217
  36.8417335  20.4498196  26.7546844  36.8157721  18.9511120  26.9648933
  36.0430049  98.1528723  67.9526663  35.6094407  98.9472711  68.2644129
  36.8281268  98.0798185  68.4953260  33.5617542  18.2739294   4.6888402
  33.1448388  18.9361393   5.2401042  33.6124611  17.4965942   5.2450877
 107.4459454  87.8754145  32.4062514 107.7813073  87.9049450  31.5102100
 106.5039035  87.7392274  32.3050451  74.6907683  52.0769621  82.2381818
  74.4504948  51.2880493  81.7522621  74.4002958  52.7991430  81.6811252
   4.6694469  87.6046902  40.4473686   3.7124347  87.5979584  40.4652214
   4.9264573  87.0250958  41.1644793  78.5339668  84.5652801  39.9754286
  79.3175628  85.0859529  40.1518059  78.7437292  84.0794760  39.1777897
  11.8637037  85.6405037  26.1747384  11.0658168  85.5565423  26.6968060
  12.5163936  85.9791165  26.7875767 109.7294470  80.9852534  10.3676367
 109.4489046  80.6527906   9.5149946 110.1967832  80.2523666  10.7685196
  12.8892565   0.7687134  52.1513891  13.6318135   0.5753383  52.7236223
  12.1214521   0.5021465  52.6570082  61.3992167   1.6026998  35.1558924
  62.0955372   1.1875747  35.6648540  60.7076693   1.7775577  35.7941866
 103.3529779  99.0649342  15.6091332 102.4928113  98.6876869  15.7936049
 103.2421990 100.0024873  15.7671034  77.3592078  98.9430529  42.1548748
  77.0641234  98.9656794  43.0651760  77.3202767  98.0176288  41.9134045
  40.9580183   9.8520404   6.3243133  41.0086679   8.9200687   6.1119580
  41.4010954  10.2879786   5.5963898  85.8192035  99.4121301  22.6640511
  86.6446920  98.9298767  22.7113080  85.3508838  99.0139848  21.9303012
  27.4850607  17.8167260   9.0215003  27.9005980  16.9975924   9.2909092
  27.9925632  18.4987438   9.4614142  39.4306517   9.8269171  24.5435905
  38.9706755   9.7319055  25.3776336  39.2040515   9.0364206  24.0536928
  40.5163765  11.8267107  37.8102994  41.4326286  11.9814575  37.5805855
  40.5495119  11.1445355  38.4809494  18.7957203  43.1278658   5.9231055
  19.4665766  42.4880552   5.6847161  18.0664921  42.6002312   6.2487787
   2.1665692  75.1506120  88.2821083   1.4319133  75.0401717  87.6785278
   2.2585224  76.0986954  88.3765411   2.8328732  22.5238013  23.1240916
   2.2019781  22.4575686  23.8409019   3.4127149  21.7718935  23.2451248
  92.8378530  89.9938233  74.2384803  92.2367139  90.5111987  74.7743738
  93.6147828  89.8852975  74.7869682 109.1399527   1.1590276  18.8278461
 108.7968206   0.7862550  19.6399617 108.5213166   0.8762676  18.1543708
  54.0921307  13.4796643  52.3293304  53.4646034  13.9181244  51.7547035
  53.5788155  12.8053439  52.7743387  74.2175479  51.5126548  85.1273882
  74.0145321  52.0323558  84.3496180  74.2206855  50.6073759  84.8164344
  92.2264107  99.3087589  61.9444799  92.2597047  98.3693850  61.7636442
  91.7024585  99.6717149  61.2303591  40.1938343   2.0765369  28.1366563
  40.8794594   2.2483701  27.4911904  40.0989962   1.1240471  28.1375360
  65.4056931  18.8584673  37.1869922  65.8860493  18.0369246  37.0842433
  65.7046890  19.2073298  38.0267119  35.3337526   2.5415647  12.8329754
  35.2303815   2.7884597  13.7519908  35.9399939   3.1912568  12.4771607
  31.7644596  22.4898195  32.6420760  31.7238498  21.5451550  32.4931097
  32.0456862  22.5767922  33.5528874  46.9574928  19.3019843  19.9941874
  46.5229464  19.9255335  19.4123018  46.3527727  19.1985464  20.7289314
  20.8720851  26.3321400  33.3393598  21.5641642  26.3818407  33.9987445
  20.1360273  25.9236884  33.7950110 106.0358306 101.6741007  82.2990799
 105.2355834 101.2631720  82.6261425 106.2664934 102.3167526  82.9699135
  74.7648286  98.5521239  25.8091402  74.6527433  97.8421616  25.1769829
  75.3788804  98.2029479  26.4550877  65.8555031  15.5998993  46.5254784
  66.3688564  15.4579592  47.3208094  65.0572109  16.0317528  46.8295527
   4.7975253 102.2070172  12.3838747   4.8475122 101.7328119  13.2138526
   3.9685821 102.6834383  12.4297762   9.1692065  95.7706570  24.5492673
   8.5191631  96.4428228  24.3446589   9.7129630  96.1633217  25.2321839
  16.4142989  70.6362992  21.6454983  16.5107488  70.0552755  20.8909512
  16.5982961  70.0792128  22.4018264  32.6258516  82.4201518   4.2516786
  32.6837110  82.2292191   3.3155006  33.0829667  81.6924387   4.6732354
  68.8010359   8.0434495   8.1525660  69.5038414   8.4559083   8.6547369
  68.9025736   7.1070415   8.3230448  27.2424698   1.7326178  19.5122457
  27.7509499   2.5333062  19.6410000  26.3322949   2.0280373  19.4889915
  43.6409235  34.5065331  25.5007887  43.3957148  34.1062737  24.6665835
  43.2842016  33.9156389  26.1639857 103.4972569  75.3043419  48.7335157
 102.7663656  75.8819443  48.5134935 104.2774602  75.8399182  48.5897446
  38.2312655   3.0599785  14.8188281  38.1256652   2.3666154  15.4702330
  38.7506914   2.6575798  14.1227663  88.5889764  76.4473278  85.9939402
  89.3602748  75.8858735  85.9158242  88.9376827  77.3383624  85.9676129
  32.5297046   5.2104437  18.5225618  33.0161667   5.6653172  17.8350484
  32.4633002   4.3075725  18.2116830  48.9208794  11.1053300  54.7394037
  49.0821981  11.5055883  55.5938053  48.6902380  10.1981604  54.9395990
  61.7371316  60.6140889  81.5205514  62.5212331  60.4300631  81.0032964
  61.0115929  60.3271903  80.9660125  40.0002241   5.3098494  17.6664913
  39.6484661   5.2818739  16.7767072  39.7289085   6.1632663  18.0045760
  78.3963414  79.6483093   9.0942538  79.0573534  80.2245861   9.4779211
  77.6074635  80.1881891   9.0449321  48.5957527  35.7479596   3.6311781
  48.2776213  35.7774901   2.7288741  47.9938889  35.1526856   4.0779847
   4.3681440   6.3840526  69.9001408   3.5748994   6.3540894  70.4350185
   5.0718546   6.1403310  70.5014896 106.8696138  85.0245434  19.2181373
 106.2357660  85.0120264  18.5009825 106.7990919  84.1564899  19.6153021
  21.3918304  86.9256264  39.2504358  21.4555024  87.8761309  39.1570711
  21.3419675  86.7805773  40.1952696  17.8226173  18.1595671  42.5392914
  17.9722512  17.3942649  43.0944061  18.6509812  18.6385906  42.5634050
  42.3964262  35.3853464  49.6012020  43.3174562  35.6442857  49.6309471
  42.2838545  34.8131704  50.3602648 108.2339665  82.8877526  40.6197977
 107.5027629  82.9480940  40.0050354 109.0088149  83.0733472  40.0893307
  74.7999716  19.3534458  59.7634840  75.6340027  19.7084701  59.4559431
  74.2448997  20.1226711  59.8916149  82.0081182  64.0651388  89.6544535
  82.7935357  63.5761328  89.8998614  81.2823577  63.5264344  89.9695773
  19.6002626 102.3610764  15.4618001  19.7019099 102.5563186  16.3933468
  20.4620885 102.0478013  15.1873088  34.5133424  22.6746345  45.4604006
  33.6285830  22.3786926  45.6745291  34.3835139  23.5017228  44.9963951
  20.5940485  19.0680838  17.9996753  20.9078741  18.1658840  18.0611682
  20.6138062  19.2652416  17.0632088 105.0180622 100.5271083  42.1471262
 105.4852458  99.6988141  42.0380354 105.6697556 101.1227715  42.5168753
  44.3276644  12.5370228  42.3458862  43.4006166  12.7293587  42.2050905
  44.6867752  13.3447480  42.7131081  15.8390498   9.9440682  45.8270168
  15.4805088  10.8311701  45.8540297  15.9299862   9.7507948  44.8939562
  81.4228006 104.3853958  79.7906804  81.0045143 104.1664560  78.9580119
  80.7611699 104.8876245  80.2663243  66.0277256 104.9856397  20.4765511
  65.7043549 104.0849673  20.4552817  66.9421764 104.9183539  20.2018070
  31.7353606  12.6152921  14.7234523  32.6901364  12.5725067  14.6705031
  31.4898920  11.8508863  15.2446616   7.2796487  76.8516642  30.3515959
   7.6828193  76.6563588  31.1974907   7.8391551  76.4109117  29.7121286
   2.2625251  21.5954685  10.4551542   1.6469201  21.9243979  11.1101866
   3.0932799  22.0176339  10.6739116 106.6249105  65.1206285  27.4465084
 107.5212785  65.0250035  27.7683973 106.5184017  66.0621220  27.3105669
  30.6997228  10.7386291  57.1095133  30.5375743  11.5953898  56.7146730
  29.8440361  10.4590309  57.4348640   1.3091850  64.7702628  33.1586766
   1.4279007  65.4163509  32.4624681   0.4490422  64.9709922  33.5275841
 104.5154735  89.6078723  39.9919796 104.8473021  89.8007184  39.1150928
 103.6155792  89.3149155  39.8484683  58.6058664  56.0921621   2.8775230
  59.4540882  56.1169100   2.4346524  58.2073116  56.9395399   2.6791993
  44.4415188  19.4945168  30.8070469  43.4888887  19.4891798  30.7137442
  44.6479607  18.6486924  31.2047815  12.7355587  28.9425564  18.4135056
  11.8565750  29.2051005  18.1402087  13.1964171  28.7598968  17.5946784
  21.9380522  15.8304071  54.1658926  22.2558403  16.6566741  54.5299339
  22.6098824  15.5726576  53.5346699  72.6712461  66.0580666  80.8102596
  73.4455366  66.5760524  81.0302460  72.5001593  65.5378063  81.5953016
  14.2007732  98.2047468  21.8143487  13.9240979  97.4367136  21.3145423
  13.3940887  98.6989397  21.9601917  56.2751436   4.4413555   0.2899257
  55.6590557   3.7931669  -0.0514245  57.1091318   4.2208076  -0.1248721
  43.0190134  18.0886555  58.4873724  43.0495882  17.1453822  58.6471605
  43.7987423  18.4310174  58.9244509   6.2045056   4.6004212  50.1914883
   7.0727336   4.9917471  50.0951767   5.9034413   4.4615328  49.2935419
  46.2939930  11.5194535   9.7274536  46.1460066  10.5750048   9.6789920
  46.3579321  11.7990398   8.8142312   8.3075380  83.9634973   4.3794233
   8.4454536  83.8338190   5.3177166   7.5789689  83.3820563   4.1618174
  72.8492928  29.0535998  26.0372305  73.6771393  28.6743760  25.7421327
  72.5795746  28.4994435  26.7696214  30.6613183  14.4750154  43.7565136
  30.7215548  13.7757587  43.1056356  31.3302255  14.2565095  44.4053984
  66.0407543   6.2309319  25.8545852  66.6015291   5.8608097  26.5363312
  65.2036858   6.3872987  26.2917280  50.2327299  10.7739151   3.0156407
  49.3331146  11.0679364   3.1587392  50.2795792  10.5945659   2.0765612
  14.8420524 102.8086170  34.2665792  14.5628976 101.8971809  34.1794777
  14.9749326 102.9296100  35.2067566  74.5517130 101.0820740  24.6736646
  74.5509931 100.2426582  25.1336789  74.8399352 101.7152458  25.3311253
  10.7571316   1.0747252  24.1026163  11.5180433   0.6470801  23.7097239
  10.3208244   0.3806110  24.5966530  32.6048350  19.2251122  13.0663812
  31.6617227  19.1016436  13.1737316  32.9982519  18.5037327  13.5573673
  64.4753504  23.6284614  31.9631648  63.6519003  23.2525349  32.2743607
  64.2165947  24.2203927  31.2568378  30.8419347  32.9545999  21.0136652
  31.5668678  32.4194670  21.3366771  30.6427574  32.5921392  20.1504254
  57.1037681  94.2004783  77.5082707  57.6603361  94.9644525  77.3572385
  57.4584909  93.5271890  76.9276810  17.7362489  94.5286482  39.4452882
  17.9208326  94.0309292  40.2418041  16.9724511  95.0611800  39.6672273
  33.2312226   3.2418561  22.4677253  32.6338053   2.7437693  21.9098401
  32.6691771   3.8732195  22.9168534  28.9277554  15.3223646  52.6304483
  29.4502854  15.4434514  51.8376493  29.4383788  14.7125757  53.1630421
  36.2476873  33.9600515  44.2262745  36.1816955  33.5298610  43.3737421
  36.6012645  33.2867622  44.8075676  81.3733109  99.1856628  11.4504433
  81.9312086  99.8524028  11.0498929  81.8996396  98.3865392  11.4257038
  21.1650157  22.0992661  52.7581120  21.1038709  23.0157685  53.0274057
  21.2680411  22.1354103  51.8071556  51.9316292  50.8287048  33.5607433
  52.1573353  50.1476812  34.1943789  52.4435329  50.6104040  32.7819443
  41.2868547 104.6399699  49.1861296  40.5697107 104.1415357  49.5779133
  41.0081338 105.5532700  49.2526865 105.0631523  15.8945775  49.8617887
 105.9438992  15.5537379  50.0178385 105.1963615  16.8222189  49.6669340
  39.1704440   7.8281611  72.9944229  38.2879353   7.4724430  73.0987167
  39.3572927   7.7352172  72.0602512  33.8121009  11.5316308  28.5281134
  33.3636189  12.2678101  28.1120181  33.8645816  10.8650470  27.8431726
  52.5595427  29.1448760  32.1009278  52.6895094  28.6335850  31.3022304
  52.3351574  28.4953475  32.7672601 106.2158676  51.6309737  86.6045234
 105.7387443  52.4228929  86.8524146 106.0241695  51.0068653  87.3045036
  14.8588073  12.4519253  46.3056803  15.1006877  12.1662903  47.1866655
  14.0851140  13.0003166  46.4356709   7.2726201  88.5401839  37.3432565
   7.7787494  87.7381164  37.4727011   6.9925403  88.7913340  38.2234311
  17.4807071  90.2450293  12.8591764  16.6492748  89.7707468  12.8611267
  17.5946187  90.5324536  13.7650704  31.6722417  20.3851223  34.5928431
  30.7686281  20.1632500  34.8175359  32.0932889  20.5566692  35.4351759
 102.7878376  92.7374941  36.2377429 103.3038756  93.1182569  36.9483471
 102.3666760  91.9729680  36.6306210 107.4968454 104.8686303  36.4334440
 107.8251024 104.4997965  37.2534680 107.5236341 104.1386831  35.8148217
  39.8828745  23.3615422  36.5769482  39.9562287  22.9101562  35.7360554
  40.3393650  22.7912736  37.1955276  87.0972247  59.8630364  79.0152657
  86.5091367  59.8401226  78.2603753  87.9724927  59.7664119  78.6400330
  28.8127946  86.1420887  33.0701303  28.1422376  86.8152958  32.9544711
  29.1412114  86.2812668  33.9583874 100.2458307   7.1103704  28.1431460
 101.0896179   7.4410170  27.8350449  99.9685368   6.4934772  27.4658108
  40.9197092  41.5120220  16.0354221  41.3303709  42.3230076  15.7356048
  40.6776094  41.0543013  15.2303708   5.8069658  97.8485554  20.1891255
   5.2037524  97.5494975  20.8695149   5.8825874  97.1042305  19.5920539
  68.4936380  14.4590819   8.1717712  69.2543936  14.2755234   8.7229401
  67.7408600  14.2630136   8.7295485   7.9688406   8.2438242   8.0232835
   8.6580014   8.6951905   8.5106826   7.1543443   8.5435319   8.4270185
  44.1505480   1.5617608  41.1231518  43.5677290   1.0761715  40.5394077
  43.8538885   2.4694255  41.0570383  56.5506124  19.9088454  56.8376446
  57.2671747  19.7214890  56.2312889  55.8657789  19.2839122  56.5995407
  11.0382413  87.7325636  38.7659359  10.1835202  87.3995584  38.4924579
  11.5975379  86.9565600  38.8011599  78.2513519  57.4726624  84.8917925
  78.0676027  57.8517462  84.0322787  77.6828523  57.9544587  85.4925537
  53.5169506  16.2218356  10.6092739  53.3646917  17.0190704  11.1166835
  54.2975330  16.4140451  10.0896811  12.0241832  86.5114003   6.2180537
  11.3462400  85.9684783   6.6203737  11.7442035  86.6088432   5.3079170
  21.4824414  21.3941622  49.7020006  20.6250095  21.0962677  50.0058126
  21.5656137  21.0268784  48.8219929  50.5164719   0.7966090  25.5093455
  49.7006083   0.5840468  25.0561166  51.0725784   1.1830844  24.8328757
  74.1389179  18.0667615  17.0597327  73.8220596  18.7821853  17.6110947
  74.6919680  18.4948957  16.4062274  40.5950642  14.3012786  53.2641506
  39.6726775  14.5261550  53.1422234  40.6037903  13.7366259  54.0370178
  45.2372313  19.9035931   5.9171641  45.9148312  20.3868914   5.4443902
  45.5959558  19.7868586   6.7968935  30.6344151   9.5992160  33.2430720
  31.1539125   8.9533424  32.7643204  30.4800606   9.1965801  34.0976429
  51.5691662  26.7537665  38.1187201  50.7296324  26.7899990  38.5770893
  52.2243547  26.8227935  38.8131237  34.3176937  18.6336970  39.4251966
  34.9488544  19.3531787  39.4106007  34.7080755  17.9612637  38.8669252
 107.8045794  65.2497130  37.8486705 108.7531181  65.1570731  37.9376698
 107.6402064  65.1415139  36.9119167  78.8038033  96.9826054  46.6632128
  78.3442130  96.4778179  47.3341799  79.3164708  96.3321376  46.1833191
  55.3485584  15.1555061  58.5052919  55.7459831  14.7272325  57.7470922
  55.1079130  16.0264957  58.1895447   7.2051906 104.4002551  34.4566202
   6.7164468 103.5778752  34.4890594   8.0590677 104.1864009  34.8326421
  17.6640606  16.0106385  21.3201737  16.9772303  16.6568601  21.4841604
  18.1083179  15.9142792  22.1625400  57.7760692  77.8974230  80.0116873
  58.0548258  78.2049258  80.8742225  58.3274932  77.1341307  79.8397970
   6.0046767  96.4224922  13.6831391   5.1421355  96.8373734  13.6718082
   6.4768504  96.8707204  14.3848312  97.1940465  64.4459803  90.8367865
  97.3126121  64.8830194  91.6800963  96.9501205  65.1491065  90.2348338
 109.8990079  91.2400311  30.2379298 109.3123098  91.6797417  30.8532929
 110.7760330  91.4031142  30.5850077  60.5998440  77.1876032  88.1842679
  60.0904985  76.7608197  88.8732193  61.1776657  77.7904684  88.6521432
  16.3823270  64.5448380  51.9095325  15.4333495  64.4936400  52.0237780
  16.5658998  65.4822331  51.8477106   6.1296415  87.9943388   0.2569027
   6.4090442  87.1525413   0.6168189   5.3401279  88.2157773   0.7507362
  78.3878364  91.5008098  10.8762121  78.0536666  91.8961650  11.6813564
  78.7285879  92.2386783  10.3705740  91.9447014   9.6071166   9.8446453
  91.3819286   8.8376248   9.9306792  92.1212301   9.6710068   8.9060354
  84.3691440  36.4205630  75.6219137  84.9984546  36.1918206  74.9378955
  83.7321468  35.7061930  75.6099272  48.4704876   5.7972902   4.9441603
  48.5290432   5.3851122   4.0822369  48.7301493   5.1092184   5.5568296
  56.5416336   6.0091937  40.4249859  56.6358280   6.2665534  41.3421154
  55.7038641   6.3856262  40.1554203  43.7597418  35.7134438   6.0429585
  43.6837959  36.6306424   5.7798755  43.0613136  35.2680731   5.5633003
  28.3556938   5.7858980  36.9155550  28.2311392   5.6342465  35.9786892
  28.7841868   4.9906179  37.2320318  77.5487185  28.5565019  28.7217331
  77.8019714  28.1746817  29.5621538  77.8495979  27.9228830  28.0704045
  22.0435023  25.1357818  50.4515409  22.3703623  24.2395163  50.5296516
  21.8695259  25.2466679  49.5168400  30.9011697 100.5092314  22.1644735
  30.5571365 101.4024648  22.1671462  31.3501786 100.4280227  21.3230300
  33.6239433  13.0533397  59.1236067  34.1065645  13.3402085  59.8988533
  33.6172295  13.8187337  58.5488367  34.4353056  18.1456578  45.4320002
  34.7233844  18.6763442  44.6892929  33.6479545  17.7012086  45.1177168
  16.7020178  14.1411531  32.3182845  17.4939692  14.3713200  32.8041530
  16.9963288  14.0442193  31.4126277  21.9121408  60.3249884  38.3980608
  21.4270353  59.6076727  37.9901791  21.2590909  61.0127878  38.5272408
  30.2771616  18.1086683   1.0281618  29.6031666  17.7703273   1.6176438
  30.1395726  17.6330674   0.2089515  45.9167576  14.5984876  25.7440424
  46.3046265  13.8752151  25.2514291  45.3084612  14.1761672  26.3505530
 109.6107098  68.3705359  56.8025780 108.8745996  68.2124215  57.3936558
 109.6998998  69.3233186  56.7806530  40.6078815  10.0294805   2.5059032
  40.9509611  10.9012759   2.7021191  40.6332827   9.9714738   1.5508004
   1.9007038  93.9485794  12.3358166   2.5795507  93.6601859  11.7257130
   1.0802101  93.6644608  11.9329512  29.9155402  19.3334651  31.8528056
  29.2300820  20.0008154  31.8208122  29.6942186  18.7991679  32.6155472
 100.5426975  84.6418863  36.7515993 100.2630397  85.5353337  36.5521574
 101.3546058  84.5290810  36.2573195  59.6907854  24.6826482  36.2339354
  59.9196196  25.4508257  35.7107019  58.9309406  24.3074131  35.7888889
 101.3929531  15.3470850  42.5812292 102.3326936  15.4407740  42.7372503
 101.0538349  14.9586022  43.3876467  27.4715757 105.4510911  51.1875248
  27.0664071 104.6700588  50.8106136  26.7340230 105.9830361  51.4863348
  10.2458429  91.6704863  43.8976955   9.3859767  91.4005452  44.2201757
  10.6970548  92.0072597  44.6717882  29.4765424  92.8745192  82.4599934
  28.6815881  93.1709987  82.9031372  29.2049407  92.7270728  81.5540504
  21.8377328  30.7641006  16.5844798  22.6682281  31.1748409  16.3440537
  21.8776941  29.8934722  16.1887038  35.9679889  72.7552253  45.9660196
  35.4783057  73.4915310  45.5995607  36.8851566  73.0212027  45.9004831
  21.3621377  96.3702464  44.1752720  21.1296415  97.2959894  44.1033173
  22.0421266  96.2419659  43.5139179  41.2691069  12.7914512   1.6430424
  40.7019520  13.1200707   0.9454940  40.8070660  13.0127025   2.4516177
  46.5128613   7.5426376  48.9731312  47.4318886   7.5927991  49.2360115
  46.0243988   7.7587116  49.7674561  58.4841824  11.0824108  58.0046606
  58.4907913  11.7073607  58.7296581  57.6180172  10.6770730  58.0457306
  43.7498760   0.7282963  32.3326325  43.9602566   0.0445901  31.6966152
  44.1346502   0.4191068  33.1527424  47.8602982  14.9736595  44.5509243
  48.3906507  15.1402903  43.7717009  46.9692230  14.8710787  44.2167282
   2.9784106  78.5689503  18.4355402   2.5339460  77.8109032  18.0560088
   3.1009626  79.1681748  17.6992369  31.3687205  27.0667887  29.8156357
  32.1127868  27.6040840  30.0875068  31.5659213  26.1944246  30.1566982
  58.3334351  10.3578007   8.3818620  59.0818834  10.6310868   7.8514135
  58.2645655   9.4150460   8.2311845 111.1930897   7.3992836  49.2023611
 111.9061988   7.2919762  48.5729265 110.4249382   7.0413071  48.7573624
  90.7524014  13.9675415  56.9398403  90.9570026  13.0714321  56.6727114
  90.9893322  14.0012014  57.8666449  45.8941793  83.3243566  36.1429453
  46.6583108  83.8870388  36.2683344  45.5144071  83.6172563  35.3145647
  92.1435412  95.5269623  11.4165282  91.5509149  95.4989224  10.6653690
  92.4129101  96.4436155  11.4750028  98.7937018 102.7831453  24.9873233
  99.5327660 102.1782702  24.9229693  98.7837072 103.2394697  24.1459537
  21.9603919  94.9158674  62.4607611  22.2892093  94.4610017  61.6853857
  22.6817798  94.8715585  63.0883551  36.2720132  13.7306702  29.6318936
  35.5275726  13.3850908  29.1393352  35.9149003  13.9297891  30.4973722
  84.6152492  47.5180430  89.4455141  84.3182607  48.0455325  90.1869882
  85.4840560  47.8627200  89.2391032  24.7353267  96.0345959  24.2449737
  25.6053304  95.8041191  24.5708728  24.8799466  96.8115288  23.7048888
  26.9638824  12.2804320  53.6273718  26.5075660  11.5684354  54.0757751
  27.5376344  12.6554847  54.2954826 102.1153899 105.5690216  25.4736638
 102.4450966 105.4374626  26.3626051 102.6415654 104.9795713  24.9333668
 105.3016373  83.1789833  20.5789948 104.6243282  82.5746733  20.8827949
 104.8169061  83.9340669  20.2456522  53.5705423  10.4206347  19.2991257
  54.1590786  10.3418243  18.5483623  53.6122417  11.3460827  19.5400381
  54.7404003  41.0797215  29.8570085  55.6836796  41.0913086  30.0192499
  54.3469477  41.1657000  30.7253599   3.2967042 104.7668604  12.4016905
   2.7103280 105.5086679  12.2529829   3.6838769 104.5919042  11.5439498
  13.0285405  96.3429260  35.7157469  12.3151111  96.5796196  35.1231050
  12.7444600  95.5213630  36.1164522  30.3529787   3.2707191  70.5485439
  30.2287793   4.0083921  69.9513483  30.2181220   2.4957174  70.0031853
 102.4455186  97.1865415  41.0548496 103.3484956  96.8954789  40.9277773
 102.4897405  98.1404084  40.9884119  24.4044423  35.1076794  27.2857380
  25.1836848  34.9483991  27.8183198  24.7237825  35.6156731  26.5399528
  22.2131014  15.7804751  15.1084495  21.9053483  15.0706685  15.6720924
  21.4282680  16.0787141  14.6487534  53.7120199  19.3313360  51.4778614
  54.5450211  19.7445059  51.7050838  53.9598942  18.5354054  51.0074568
  57.3330545  90.2693814  53.6048460  56.3982820  90.2332860  53.8076210
  57.7528810  90.4603976  54.4435883  57.5692315  91.9106181  80.7653844
  57.0541413  92.7111537  80.6651008  57.0111115  91.2202747  80.4073858
  42.9464817  20.5978322  21.9040370  42.7621937  21.3918066  22.4059081
  42.5925159  19.8881340  22.4400115   2.2624516  89.0525740  26.2767863
   3.2156276  89.1279787  26.2320113   1.9397020  89.7620553  25.7211781
  18.4300566   9.8462087  43.9772129  18.5992813   9.2299354  44.6898174
  18.7975109  10.6748128  44.2848253  16.4182353   0.8291498  29.3324900
  15.4907084   0.7062375  29.1304612  16.4597166   0.8098184  30.2885962
  38.7612939   7.3937058  31.7448783  37.9059124   7.1803993  31.3719797
  38.9155865   8.3022410  31.4860535 111.4702030 102.6778495  29.0975189
 111.1464759 103.1916925  29.8373842 111.0378834 103.0594107  28.3334899
  72.4331019  89.8505431  15.0833845  73.2746326  89.4946307  15.3686643
  71.7871975  89.2154473  15.3927279  43.4244061  36.7297363  35.4047823
  44.2206669  36.2009168  35.3542471  42.7673864  36.1388135  35.7727027
  47.1193981  20.2151012  32.4617410  46.7009306  20.1123476  31.6070175
  46.6010761  20.8881712  32.9028225  69.2816353  27.4939013  21.2234068
  68.8157463  27.2121668  20.4361320  69.1964769  26.7572331  21.8286347
  79.0752411  30.4210067   3.3963841  78.6988926  29.5458961   3.4900659
  78.3173847  31.0036778   3.3475628  35.1462722  42.3238420  16.7504263
  34.8749661  41.5645599  16.2345624  35.6404638  41.9526243  17.4813187
  48.0718374  40.8293247  40.2264452  47.4873590  40.8017874  40.9839773
  48.4642458  39.9568272  40.1948500  47.8584290  33.2820344  41.7275620
  48.4874630  33.2146740  42.4459028  47.9773808  34.1688132  41.3874054
  10.6794155  64.7800255  21.7170978  10.6960809  64.2895079  22.5388908
   9.9638605  64.3865061  21.2177444  29.8815298  71.2237883  24.4475198
  30.5641079  70.8642101  25.0141096  30.2446461  71.1588907  23.5642505
  57.4864340  23.1738162  35.8604646  57.1807861  23.1895494  36.7674184
  57.1932602  22.3271823  35.5235720  18.6124945  32.9132915  55.0545216
  19.3597555  33.3953261  55.4087496  18.0553293  32.7432632  55.8140516
  44.7448015  24.4825578  58.4508657  45.0114059  24.0663218  57.6311684
  44.8537493  25.4198408  58.2900429  40.6515932  42.1328020  44.0092134
  39.9659967  41.6685057  43.5289907  40.2842140  42.2651720  44.8831367
  80.4186630  38.2806015   7.9546660  79.9478340  38.8321471   7.3298883
  80.8845997  37.6459742   7.4102497  60.1215792  18.7887490  48.7356329
  59.7152615  19.5614493  49.1281557  59.7250938  18.7249398  47.8667498
  41.7259216  95.7090950  39.6368170  41.8286943  95.3557282  40.5204439
  42.6167011  95.7457101  39.2883968  24.4452643  22.8164482  17.5810349
  25.1998138  22.8859830  18.1658864  24.1042638  21.9351840  17.7337587
  22.7378178  58.9966726  51.8901253  23.1352329  58.1823969  51.5815020
  22.0043612  58.7133503  52.4360228  46.4841700  44.3972492  40.6415319
  46.0754919  44.9808025  41.2808132  45.7568645  43.8900900  40.2809095
 102.2683430  24.0460896  40.6199026 101.5232563  24.2377710  40.0503922
 102.0795059  24.5208812  41.4293146  21.7230081 100.2209425  17.1120882
  20.8248710  99.9878204  17.3471093  22.2603463  99.8271143  17.7994001
  51.1296558   3.8996160  49.7973824  51.4353514   4.4035405  49.0431643
  51.6283703   4.2481238  50.5363369  69.9325323  50.4887056  16.5882230
  70.6835794  49.8960972  16.5569472  70.0325108  50.9585905  17.4161363
  41.6568089  13.1515944  42.1403694  41.2828350  12.8963578  41.2970257
  41.1842012  12.6215684  42.7822018  75.2019425  79.9781926  86.5322122
  75.8985157  79.8212631  87.1696991  75.3500576  79.3237002  85.8496195
  62.1976014  58.0973245  88.3677799  61.5721698  58.8008262  88.5414278
  62.2922607  57.6482521  89.2077833  20.0861645  20.7135510  36.9297314
  20.0031900  20.1497984  37.6988411  20.4671216  20.1478577  36.2580943
 111.7276760  83.9658361  19.1832185 111.8418094  84.0862685  20.1259279
 111.2293764  83.1523877  19.1042745 100.8717628  49.4188304  86.2702453
 100.3498550  49.8300282  85.5812192 101.6405530  49.9824486  86.3570043
  32.8440976  19.0139127  32.5828362  32.1950364  18.3368623  32.3916459
  32.4161315  19.5818841  33.2235265  51.6440916  34.8663807  16.2696493
  52.0063114  35.2127266  15.4541302  50.7929087  35.2958226  16.3550937
  49.5458460   4.4980428  76.7142630  50.3998661   4.8990226  76.8758297
  48.9216948   5.2175939  76.8086576  66.3560820  37.1578550  22.0828605
  66.8861341  36.9142771  22.8417730  65.9568644  36.3365364  21.7959929
  67.9992819  10.2229774  40.3119230  67.8573513  10.7524669  41.0966110
  67.3043442  10.4932189  39.7117066  56.1652231  49.8494959  27.8229785
  55.4109097  49.2602491  27.8289175  55.9662914  50.4863071  27.1365905
  53.5181332  34.2350769  45.3865290  53.1808186  34.9215508  45.9620333
  54.4519663  34.1881847  45.5914354  83.1787391  51.9442558  72.0153010
  82.9672523  52.1406918  72.9279447  82.3298879  51.7907160  71.6004407
  10.5252790  31.8406010  45.6856298  10.8363187  32.2256684  46.5049028
  11.1925614  31.1937070  45.4565048  32.5443888  52.8495598  38.0548716
  32.1703267  52.0240116  38.3627319  31.9628763  53.5226297  38.4084988
   4.4210833   4.8253646  53.8091135   4.5318848   5.6825000  54.2205429
   4.1490328   5.0232136  52.9129648  16.8595195  18.3427513  24.0665269
  17.0405817  18.4409213  25.0013065  17.7164853  18.1800187  23.6723709
  28.5935521  42.3168755  48.3640814  29.5465302  42.3719454  48.4350204
  28.2722998  43.0654097  48.8668013  64.8311806   9.0340173  15.9554839
  64.6704102   9.4939011  16.7794323  63.9685297   8.9674860  15.5460465
  88.5384655  34.4982791  30.2245784  88.1003284  34.0184236  30.9274364
  89.0699577  35.1533437  30.6769371  81.3720226   6.6243470  19.7352397
  81.0496044   5.7238764  19.7730756  81.0345364   7.0332706  20.5321836
  55.2604628  12.9216743  19.5060384  54.5619965  13.3003950  20.0398469
  56.0300016  12.9333663  20.0751638  53.1166410  32.8371835  17.5127518
  53.8444710  32.8578687  16.8914115  52.4519062  33.4043050  17.1219432
  21.4505339  58.0516052  40.3736591  21.8869138  57.2137117  40.2195787
  22.0758677  58.7075520  40.0655603  58.7851000  22.6110840   9.0436459
  58.4082270  22.0501208   9.7215241  58.7452602  22.0830035   8.2462907
  36.2905264  38.3627391   8.8372880  37.1406889  38.3560371   9.2770743
  36.4520955  37.9335093   7.9971153  39.5264816  25.9662032  67.0581818
  39.4337726  25.5090857  67.8940535  40.2598286  26.5663195  67.1934319
  51.0300541  40.1884365  34.7356009  51.7928982  39.7100854  34.4108176
  50.2829647  39.6421671  34.4913054  54.8519850  26.4988542   8.9380270
  55.4502869  25.8196998   8.6265624  55.1474953  26.6883659   9.8285270
  55.2761030  36.4948964  27.8297424  54.6518707  37.1683264  28.1000280
  55.2603960  35.8544517  28.5409498  41.1724329  28.2177758  22.3685956
  40.9264326  27.4905396  21.7968941  40.3385830  28.5994935  22.6428485
  53.2978249  27.2247386  58.5558891  53.1767321  27.2374249  57.6064634
  53.7378740  26.3927341  58.7301207  32.0334411  36.3922882  43.8904524
  32.2185087  35.4664016  44.0476513  31.1187005  36.5012121  44.1504908
  50.0869560  25.7498002  35.8247781  50.5516577  25.7680726  36.6614079
  49.1664505  25.6426239  36.0643792  55.3162861  28.6497164   6.6774184
  55.3488541  27.9271889   6.0504228  54.4758034  28.5426426   7.1227950
  46.9809723  38.8269520  18.9495945  47.3789692  39.3688416  19.6309078
  47.3446369  37.9535937  19.0952969  53.9668131  26.3514829  45.2710009
  53.0376816  26.4832616  45.4596281  54.1752863  27.0182705  44.6166563
  19.8879003  96.6615754  13.6496508  19.3387555  96.6595340  14.4336581
  20.1207065  95.7425135  13.5179007  66.3434172   0.9018628  17.5575066
  65.8103275   0.6815920  18.3213961  66.8678427   0.1173312  17.3971403
  47.9290009  46.2500811  21.9529366  48.5690069  46.8084717  22.3943210
  48.4039974  45.8853197  21.2062359  62.5149298  30.4071212  77.2077799
  62.4760008  29.8020291  77.9484415  63.0415440  31.1406970  77.5252295
  88.5798454  18.2373655  44.0675735  88.2607365  18.1248081  44.9629688
  88.7277985  19.1792428  43.9826584  55.7160091  46.3348627   5.5418807
  56.3986063  45.7657528   5.1863438  55.5500650  45.9904480   6.4194196
  23.3019948  22.6071858  27.5011635  22.8636146  22.2672129  26.7211175
  23.3190966  21.8671298  28.1080055  57.3815250  21.8893504  21.1449742
  58.1135654  21.5358734  20.6396008  57.3839808  22.8258777  20.9471321
  38.5227227  32.4114633  35.0391674  38.2419515  32.0330763  34.2059660
  37.7134681  32.7195501  35.4471111  36.4546727  94.6135741   7.6153392
  36.9318294  94.8895651   8.3978868  36.7395877  95.2224320   6.9339097
  35.9601951  26.4613461   1.1467130  35.4314089  25.8068871   1.6031113
  35.4968071  26.6114259   0.3227106  64.5757885  75.9250815  83.9563954
  64.7303195  76.8500740  84.1480696  64.2045207  75.9220726  83.0741352
  84.3648911  19.7841668  37.4937105  83.9821339  18.9137924  37.3833704
  84.9855328  19.6831453  38.2153964  91.8650575  38.8586266  80.9568059
  92.6680894  39.1198821  80.5061257  91.8603082  37.9029496  80.9030437
  82.2222328  21.3207388   5.7264251  81.9988346  22.1918750   5.3986329
  82.4189377  21.4567614   6.6532689  25.9446239 100.3913289  44.9770832
  26.5792989  99.8263508  45.4177904  26.4636468 100.8847293  44.3419456
  32.6757479  48.4598351  39.3396115  32.3903084  49.3571663  39.1676998
  32.6908779  48.3920574  40.2942896  37.0080495  11.1240232  31.8503332
  37.9210091  11.2375236  31.5860343  36.5683842  10.8051968  31.0621238
  58.4856939  19.2054772  36.3499069  57.7974272  19.3964243  36.9871354
  59.0204096  18.5315657  36.7696095  79.4497199  62.3158039  78.8594675
  78.8646932  62.3852177  78.1050432  78.8631053  62.2121967  79.6087205
  53.2160378  34.9336743   1.0934693  54.0758085  35.3092861   1.2830527
  52.7979422  35.5720019   0.5155740  33.4312558  27.4332356  21.6244602
  33.8907003  27.8074622  20.8727312  33.5989523  28.0485535  22.3382497
  70.2439785  17.4808848  21.9804859  70.4892302  17.7807689  22.8557873
  69.8706198  16.6108179  22.1212673  38.3910084   8.0377734  39.0303707
  37.5201440   8.3836061  38.8348532  38.4541726   7.2383904  38.5076571
   5.0310324  62.4732031  82.5502712   4.4807719  62.1763058  83.2750446
   5.7257842  61.8172736  82.4927211  72.5092506  27.5497508  31.9952369
  72.4310970  26.7740393  31.4399004  71.6857958  28.0204630  31.8664479
  83.1228542  11.2960768  23.4995151  83.0463600  11.7134261  24.3575358
  84.0641785  11.2731040  23.3274174  43.5375738   8.7799960  48.9434528
  43.4711504   7.8369695  49.0935183  43.9076900   8.8570988  48.0640745
  61.1197281  17.8692770  23.3155775  61.2100220  18.0546868  24.2502975
  60.9492397  16.9283259  23.2734203  49.0099716  21.2216282  43.0351019
  49.1290808  20.8613133  43.9138651  49.8936796  21.2571740  42.6690054
  43.4923744  19.5902693  13.0424726  43.3041716  20.4088688  12.5834453
  43.1326103  18.9089787  12.4744534  53.6345482  42.4024963  24.2779922
  53.1536484  41.9472885  23.5867953  53.1928682  43.2476997  24.3603468
  72.1008587  21.9966888  27.7547121  72.6832438  21.6340685  28.4222174
  71.9653797  21.2769079  27.1384382  22.7096462  76.0189920  43.3760595
  23.0494403  75.3405124  43.9595318  22.1390723  75.5485183  42.7683353
  25.0923038  19.5878839  38.7785363  25.1960707  18.6598516  38.9888263
  24.1468978  19.7352684  38.8052511  21.2933898  11.0878980  42.0338631
  21.0211468  11.3598478  42.9103088  21.4282274  10.1430941  42.1073246
  35.8228850   5.3216249  23.8668752  35.1947904   5.5075163  24.5648527
  35.2939749   5.2951378  23.0695128  51.4146757  36.2192845  32.6532388
  51.7058849  36.4572144  33.5334754  50.8128119  36.9200754  32.4024749
  40.1944733  23.7730145  17.7081370  40.2763557  22.8213525  17.7703190
  39.3363905  23.9648104  18.0864739  12.4589442  -0.1653598  89.2944410
  12.1799993   0.6466032  88.8711955  13.4020137  -0.2064346  89.1357838
  80.3372765  54.1901064  13.2493389  80.8791828  53.5348654  12.8097606
  80.0195599  53.7487745  14.0370667  40.2990723  16.7347872  48.7570810
  40.6536055  17.2300076  49.4955254  39.3556833  16.7087746  48.9169931
  36.3258147  16.3480532  32.0669055  36.6486001  15.4609311  32.2251916
  37.1141195  16.8621445  31.8922114   5.5858611  82.1190864   7.5922883
   5.6341790  83.0750638   7.5941312   6.4993190  81.8331104   7.5857532
  65.3724575  41.0723495   9.2020833  64.9948168  40.3513002   9.7057766
  64.6196890  41.6043425   8.9440984  73.6405849 101.2896183  48.1522989
  73.8346870 102.1031609  47.6867819  73.3058354 101.5742743  49.0026760
   8.3611011  93.0709940  32.7738881   8.0006265  92.5378209  33.4824181
   9.0063285  93.6336845  33.2020116  40.4688931   9.5502049  39.3234444
  39.6443725   9.0713501  39.4076777  40.8261681   9.5699686  40.2112484
  77.5031853  14.0410292  11.6887510  77.6815939  14.8388934  12.1865594
  78.0530930  13.3741486  12.0999742  81.8945213  76.9989116  89.6904942
  82.7210183  76.7680056  89.2664468  81.5204234  76.1597402  89.9589598
  66.1401081  19.4139433  57.8165388  66.1084557  19.0529466  58.7024927
  66.1410236  18.6461473  57.2449446  48.3020449  25.4876804  48.8255692
  48.5837984  24.6990466  48.3619881  48.1466722  26.1299539  48.1330538
  64.6362400  48.1124115   8.2619363  64.4872093  47.4658680   8.9518684
  65.1789761  47.6558971   7.6190776  80.7239914   4.1549402  19.7942781
  80.4485130   3.4072375  19.2639148  80.9723949   3.7729418  20.6360650
  91.0399914  29.1706848   6.1754721  91.3001919  28.9681935   5.2768463
  91.4367771  28.4766436   6.7018753  22.1478558  31.6375113  32.1865630
  21.5074944  32.3082137  32.4238944  21.6447067  30.8235526  32.1632504
 101.0410924  79.4799812  90.5516392 100.4014869  78.8556416  90.8941830
 100.5162521  80.2268846  90.2637021  70.4695749  28.6773181  42.3702908
  70.1301718  27.7914691  42.2425938  69.7030735  29.2431355  42.2777748
 107.3281574   9.7155929  45.4498100 108.1946614   9.7623271  45.0458097
 106.8015000   9.2116350  44.8294163  94.2975707  68.3689935  61.7742276
  95.1723476  67.9814596  61.7456031  94.2229219  68.7267322  62.6589203
  73.4393311  34.9413061   5.6339151  73.2654810  35.8734155   5.5028355
  74.1357517  34.7374558   5.0096750  71.1566114  18.5574853  42.2197485
  71.5044403  17.7262473  41.8968105  71.7934752  18.8457561  42.8736162
  64.0177917  30.4364419  13.1064880  64.6568108  29.7404504  13.2597268
  63.3601475  30.0367165  12.5373137  37.6249027  16.2539291   3.2098395
  37.2821832  15.6271434   2.5727242  37.0792747  16.1288035   3.9862835
  61.0155106   8.6237484  37.0224333  60.4350519   8.0013472  36.5843534
  61.1014414   8.2847905  37.9134750  10.3470027  66.1319828  27.3946095
   9.9774754  66.8552208  27.9011726  11.2902498  66.2947941  27.3976588
  53.4687233   4.8627836  47.6045513  54.4132280   4.8979545  47.7558899
  53.3049726   3.9634380  47.3206568  50.9344292  25.9679627  49.6057940
  51.1666632  26.4086723  50.4231501  50.3853750  26.5993333  49.1408730
  57.3364544  75.5596972  25.6899452  56.9078970  74.9053192  25.1382565
  56.8371916  76.3626671  25.5409122 109.3742033  83.0793887  22.0755291
 108.8049766  82.5939566  21.4784002 109.9810811  82.4218493  22.4154902
  61.1343193  39.7074294  28.8795352  61.0341835  39.4937348  27.9518819
  61.5907383  40.5487967  28.8835883  18.0443572 100.6431964  27.3981166
  18.7943410 100.3540867  26.8783379  17.5720548  99.8370319  27.6061153
  34.3034267  97.2368246  57.8809404  33.7303447  96.5876263  58.2887983
  33.7868404  97.5913584  57.1572876  56.3047504  16.0432184  20.8667517
  55.3650141  16.1898661  20.7589102  56.6267776  16.8455672  21.2775612
  12.4531066  64.6582079  37.0826006  12.1151495  63.7860012  36.8794370
  13.0913079  64.5111656  37.7806759  40.8452368  39.8026729  18.2667065
  40.6691313  40.3112173  17.4751258  40.6904984  40.4162264  18.9849269
  70.6558132   1.5111250   4.3393940  69.9511099   1.3622361   4.9698400
  71.3130951   0.8492334   4.5541278  56.8063736   4.1674703  10.2140045
  57.4454355   3.6579928  10.7122636  56.7599392   5.0068575  10.6717217
  65.2024412  12.5547421  57.9648352  65.0302887  13.2359672  57.3148155
  66.1223698  12.3252189  57.8333569  35.5627155  19.2138410  23.9271331
  35.8681583  19.3433011  23.0292606  36.3256431  18.8710105  24.3925786
  33.1120181  16.7477429  51.5667629  32.7954578  15.8525002  51.6874361
  33.0210662  17.1522820  52.4294949  91.1845394  72.5726612  71.6933680
  91.6092725  72.0479185  72.3719549  91.7590185  72.4901969  70.9321785
  28.3410215  44.7924423  23.5437560  27.4729204  44.4801092  23.2886505
  28.3377695  44.7543144  24.5001912  68.2578993  16.6909230  30.0130391
  67.8942585  16.4059007  29.1747308  69.1940689  16.5036738  29.9440908
  60.7531309  64.6467781  28.8834977  61.5632963  65.0773001  29.1564703
  60.6034231  64.9612856  27.9919243  47.9931784  52.1315098  22.0645261
  48.0703211  52.0850229  21.1115742  47.1074438  52.4606800  22.2173452
  52.2611666   4.7200453  59.0283871  52.5759172   4.5479569  58.1409502
  52.4760532   3.9255035  59.5170164  99.2646976  27.3261125  77.2819519
  99.9942489  26.7914898  76.9686365  99.3893476  28.1744153  76.8564212
  58.9415598  36.1799550  20.9996247  58.8055372  35.8066845  20.1287651
  59.4430590  35.5140090  21.4699936  25.3836870  29.1650748  24.6437097
  24.9113750  29.0500498  25.4682827  25.8936977  29.9652719  24.7694302
  62.1512508  37.0328832   5.6015384  62.1167946  37.6708150   6.3143408
  61.2379265  36.7853999   5.4572445  39.8996568  34.7018790  59.6325874
  40.6503773  35.1798701  59.9849796  40.0947618  34.6028137  58.7007332
  52.0952940  52.3340416  24.6131420  52.8453827  52.9176664  24.4991970
  51.3496208  52.8350639  24.2827058  24.4846106  39.2092657  52.1884441
  23.7806082  39.7515535  51.8327236  24.7343993  39.6452117  53.0031776
  40.0246811  41.4629889  39.0075159  40.6908798  41.5269756  39.6918511
  39.4072723  40.8087873  39.3347192  80.0187016   7.9007810  21.6521811
  80.1802063   8.8277823  21.8277311  79.0649128   7.8247899  21.6249681
  45.2791071  15.1198947  43.6016560  44.9447489  15.7476377  44.2422628
  45.3217459  15.6132984  42.7825308  33.8975334  16.9223535  41.5064096
  34.0751052  17.6994812  40.9765291  33.0016136  16.6755855  41.2769222
  10.8726405  94.1078573  36.4105415   9.9976110  93.8843828  36.7277408
  11.3887643  94.2412740  37.2055554  42.4722385  28.3816051  24.8942471
  43.0450916  27.7149224  25.2731943  42.1888971  28.0077553  24.0598679
  40.9520960  49.9772501  36.2080193  41.7075777  50.1950264  36.7539620
  40.2533197  49.7828054  36.8326235  42.6938868  16.0500801  22.5347209
  43.4998178  15.9578085  23.0428505  42.4943399  15.1619279  22.2387505
  34.8636317  41.2724590  22.4039745  34.3425536  40.8798552  21.7035651
  34.4592810  42.1271610  22.5530291  13.7976778  12.1912146  30.3017926
  13.3083332  13.0032134  30.4338217  13.1324494  11.5035033  30.3293252
  45.1940155  12.1130860  38.6965847  45.2515125  11.2753654  39.1560960
  45.7681513  12.6976228  39.1914773  57.7244329  20.1254416  59.3705320
  57.6582289  21.0788488  59.4240427  57.6022005  19.9286115  58.4417963
  21.4779853   4.1489579  87.4126920  20.6589793   3.6851670  87.2384426
  21.9048213   3.6326481  88.0964053  59.2997408  37.8499246  10.6181657
  59.0607166  37.2880435   9.8810160  58.6923981  38.5877585  10.5637062
  60.4268408  50.8078432  23.8711548  60.4880428  51.6374016  23.3975315
  59.4959784  50.7162189  24.0744495  69.3103409  22.0843077  30.3163862
  69.9307537  21.9267845  31.0280824  69.1675234  21.2212944  29.9277401
 108.4638305  58.4799982  88.7437299 109.2987390  58.6385090  88.3032370
 108.0384202  57.8049667  88.2149658  56.7566347  15.7061481  27.1404433
  56.5858459  16.1646330  26.3177299  56.6914225  16.3857365  27.8113675
  79.8689699  19.0459847  19.1407311  80.3467560  19.7656965  18.7284625
  79.6095181  19.3894243  19.9956965  39.3040562  29.5804763  73.2085609
  39.8020911  29.4196558  74.0100145  38.7817597  30.3586459  73.4032106
  92.0756193 101.2066657  88.1972602  91.3249774 101.4640529  88.7325376
  92.6045270 100.6566388  88.7751484  48.0186986  99.3185007  21.4553189
  48.8069677  99.5861041  20.9828186  48.2346868  99.4544786  22.3778653
  47.4918985   9.3545562  21.3222718  47.4835825  10.3020501  21.1865568
  48.1364775   9.2176884  22.0165443  70.6517668  80.5234368  88.1689906
  70.3107424  81.2820179  87.6951906  71.3402052  80.1763756  87.6016864
  67.4618912  38.6256337  25.2262855  66.9273567  39.4172120  25.2887964
  66.9080305  37.9334807  25.5873799  66.7624092  45.2277136  11.6859257
  66.4245939  44.3359232  11.7685032  65.9868336  45.7847500  11.7525029
  91.1226316  94.4760949  88.7786600  90.2131887  94.4817741  89.0771791
  91.2227578  93.6355979  88.3317000  36.8926978  42.9661846   2.5369430
  37.5925660  42.4035072   2.2055680  36.2393212  42.9728985   1.8374518
  99.8373508  56.5566540  62.5034666 100.3319454  57.1733379  63.0431986
 100.4982662  56.1364651  61.9531441  64.5483637  57.3527479   5.2611780
  63.7430620  57.6430702   5.6894684  64.5325232  57.7814484   4.4054937
  23.2732581  97.3285001  37.3606634  22.8475141  96.6412401  36.8481755
  24.1192054  96.9543928  37.6069331  28.8242126  47.1278000  49.4408846
  28.7600756  46.5061951  48.7158155  29.7632551  47.2006702  49.6115398
  52.0881414  20.7841539   5.6343430  52.1658468  20.4240656   4.7508666
  52.6444435  20.2208591   6.1723584  54.6157646  36.3423014  43.5981369
  54.2323780  35.6062961  44.0751505  55.0199223  36.8830633  44.2767143
  82.0088482  30.2588177  63.9759111  82.2031498  30.7270026  63.1639528
  81.7960548  30.9482670  64.6048880  34.4860005  16.2143099  11.8218291
  34.8386788  16.5500128  10.9977210  34.9409866  16.7152488  12.4987924
  47.1558905  40.6923532  24.6771550  46.6886425  40.9835243  25.4601812
  46.9449329  41.3496542  24.0140653  48.5531282  44.5617867  11.6831970
  48.6105394  45.1492071  10.9296250  47.7076435  44.1245413  11.5821743
  39.5528460  18.8597405  74.4216728  38.7192535  18.8273776  74.8910427
  39.5887256  19.7444153  74.0579510  63.8037777  26.9166064  32.5396729
  63.0165339  27.4148107  32.7593899  63.5983133  26.5011168  31.7021847
  68.6115837  24.9059176  22.9432273  68.4241295  24.7582412  22.0162535
  68.1543159  24.1972494  23.3959174  75.0772572  33.6176872  14.5121884
  75.6771374  34.0482593  15.1212740  75.6393576  33.0539513  13.9806986
  11.4390492  13.3943248  38.8944268  11.6051960  12.6242697  38.3506966
  11.4402401  14.1271257  38.2786083  61.5574265   0.1757438   2.9429328
  61.3832426  -0.3165383   3.7451488  61.4402246   1.0919782   3.1939507
  18.7993240  99.2672032  17.5002408  18.1604671  99.1715944  18.2066059
  18.3014011  99.0923047  16.7016697  77.9077530  22.1903610  15.3004134
  78.1827402  22.9432201  15.8236885  78.1296206  22.4301553  14.4006884
  12.9716539  28.3691812  72.5716257  12.1668589  28.8444686  72.3651314
  13.5960901  29.0513873  72.8184175  62.2727919  20.9892368  30.8699846
  61.5034533  20.5011821  31.1635017  62.3561764  21.7058659  31.4990497
   2.6700901  94.5781380  48.0385733   2.0583104  94.4452041  48.7626457
   2.9239129  93.6939186  47.7740717  41.9323587  44.8059416  12.6392031
  41.5593433  45.6740856  12.4861658  41.3878870  44.4298363  13.3308148
  89.9115181  24.6821165  40.8342218  89.5775604  25.5335355  40.5517435
  89.1333771  24.1281104  40.8959341  54.5782137  31.5803003  41.0522175
  54.1631699  32.0856142  41.7512369  55.3889132  31.2531757  41.4420748
  47.3900461  18.8505471  15.5549586  47.1105289  18.6822140  14.6550882
  48.3457422  18.8764560  15.5080247  46.1610174  24.4597507  27.5918460
  46.6286659  25.2197886  27.2456098  46.4891863  23.7220025  27.0777774
  28.1648969  98.8288057   9.7564238  28.7894534  99.5351344   9.9215174
  28.4323167  98.4650415   8.9123899  58.2634735  78.8865900  20.3440952
  58.5843992  79.0871382  19.4648790  57.6150465  79.5674706  20.5234742
  23.0461264  60.4155588  21.8552899  23.5139441  59.6075487  22.0662332
  22.2868824  60.1274252  21.3485718  54.2796278  19.6696341  40.6690693
  53.7798405  19.9151456  39.8905015  53.6967039  19.8708165  41.4011669
  49.6309233  12.5090289  23.8889313  48.7337732  12.3271930  24.1687322
  50.1712227  12.2557151  24.6373558  64.7487879   1.6115442  22.2881007
  65.2566719   2.2679588  22.7649713  64.7970057   0.8275533  22.8351521
 110.7176634  72.8940207  58.3911371 111.5815016  72.9129129  57.9792404
 110.7709929  72.1804005  59.0268517 100.8533760  16.5824105  66.8564677
 101.4018890  15.9614016  66.3771796 100.2435275  16.0329415  67.3488140
  50.6619835  13.6195540  27.0700645  51.0165167  14.4287550  26.7016459
  51.3638544  13.2821131  27.6266074  68.8213682  54.8946381  25.7593155
  68.6747551  55.8368540  25.6758118  68.4559107  54.6702957  26.6150856
  35.1686716  41.9566059   9.9792683  36.0668612  41.6376257   9.8913181
  35.2423000  42.9069090   9.8913121  52.6967716  45.4459572  41.2726688
  52.3325348  46.0863161  41.8838167  52.7535200  44.6361637  41.7798567
  59.3133879  33.7373781  34.6257782  58.5729265  33.3360600  34.1709232
  59.1931105  34.6780372  34.4956684  62.5498438  66.1290550  11.9113648
  63.4302473  65.7595825  11.8434334  62.2229719  66.1360693  11.0117352
  35.4415584  27.6350093   4.2200062  34.8694062  27.8277874   4.9627778
  34.8458290  27.3545337   3.5252589  50.1261853  97.0876467  20.5559802
  50.9948968  97.3832345  20.8283782  49.6467256  97.8944742  20.3678894
  72.8350830  33.9793921  19.4155014  73.3689117  33.1979418  19.5589924
  72.0585442  33.8419151  19.9580145  65.7975531  18.4039366  34.0567303
  64.8992014  18.4421754  33.7285066  65.7921076  17.6827669  34.6861076
  49.4001102  38.3690786  39.1656399  50.2444792  37.9192924  39.1345692
  49.1685724  38.5075736  38.2472467  52.2267389  46.1613369  26.7564344
  51.4341450  46.2879229  26.2348986  52.0162058  45.4314423  27.3388147
  66.9452047  56.8287039  36.1514401  67.7324390  56.3292599  36.3683462
  66.6678047  57.2118855  36.9835782  47.2936392  51.4518690  25.7515311
  46.4819384  51.5168524  25.2483964  47.4408865  50.5110121  25.8481312
  15.0270843   0.9851624  88.4447742  15.5368423   1.7910077  88.5283941
  14.6267032   1.0439469  87.5773239  59.6588278  44.0555716  26.8005967
  59.5455837  44.5957613  27.5826478  58.7761497  43.7510252  26.5899825
  53.1734753  40.4043055  49.6007538  52.2769880  40.1220465  49.7820854
  53.7033272  39.9580169  50.2612972  24.2183375  28.1353450  16.6498780
  24.3672538  28.9530516  16.1751032  23.3339071  27.8697562  16.3979280
  61.5453243  37.0879626  24.9198413  60.8081436  36.8058348  24.3783689
  61.3791513  36.6924882  25.7755375  37.9996538  76.2242842  18.2994318
  38.8204145  76.6484356  18.0490744  37.6079416  76.8191814  18.9388740
  36.0079837  51.6542292  30.3408360  36.4598250  50.9169865  29.9303007
  35.3528023  51.9224024  29.6965885  16.4776372  88.1872505  35.0482774
  15.9357309  88.7823122  34.5301366  17.0989322  87.8201884  34.4193959
  62.6843548  26.3286448  36.6411781  62.8157234  25.7691717  37.4066615
  63.1873655  25.9049535  35.9456944  53.8829613  65.9983778  29.9940586
  53.2362366  66.0781670  29.2929077  54.6373415  65.5814314  29.5777678
  59.2176247  38.6047220  26.6001344  58.7557077  38.0516672  27.2302103
  58.8515186  38.3575845  25.7509470  22.3403644  97.3517364  60.7779312
  21.4921521  97.7862215  60.8673334  22.1364021  96.4174252  60.8190870
  50.3220320  20.5919862  56.9342184  50.6622934  20.6034398  56.0396099
  50.3860474  19.6755624  57.2031021  60.2607107  19.1810238  31.7020226
  59.9937391  19.1262412  32.6196051  60.7167912  18.3560824  31.5356159
  64.3510866  67.4995375   8.6481470  65.1345444  67.1077347   9.0340489
  64.5789909  68.4213161   8.5272396  65.8853626  27.7779388  12.5684953
  66.6803026  27.2596002  12.6934981  66.1633348  28.5156083  12.0255327
  54.9312544  42.2404718  44.6551800  54.5610476  42.3751020  45.5275679
  55.4299879  41.4268637  44.7295856  83.6657333  53.0407572   8.4528077
  83.0227089  53.4536886   7.8764093  83.5934639  53.5228682   9.2765665
  79.3368483  67.5121450  37.1634865  79.8920727  66.7361593  37.2396827
  79.0070677  67.4834394  36.2653470  44.7866726  46.7154598  12.1132672
  44.2927408  47.4914265  11.8484402  44.1681242  45.9919262  12.0126200
  59.2021990  45.7197714  36.9528556  59.7284031  45.1589727  36.3829064
  59.2317820  45.2884245  37.8068423  63.2900000  40.1218414  20.2326202
  62.7649879  40.9204435  20.2857947  63.9831161  40.2472734  20.8807683
  19.2954624  15.6162238  73.3693981  19.1986358  16.5322757  73.6296034
  20.1941395  15.5528045  73.0459976  43.4898233  34.3941450  18.8665247
  44.1779757  33.8004994  19.1669595  43.6784506  35.2223325  19.3078351
  52.7080345  70.0107241  26.6251087  53.4757519  69.4390202  26.6241813
  51.9644117  69.4130325  26.7026520  50.8220148  38.1029224  11.7512047
  50.5210876  37.6821566  10.9458292  50.5232048  37.5221419  12.4509454
  61.3704014  18.0624783  57.0266724  61.6856432  17.8234375  57.8982878
  61.5907812  18.9897573  56.9382429  83.7117477 101.0895307  73.9582932
  84.1864868 101.6728599  74.5503914  83.0396171 101.6447217  73.5630274
  75.4927063  61.8549919  31.3779926  75.5361366  60.9330416  31.6316724
  76.3339663  62.0268822  30.9549427  48.1851864  36.2321258  19.4138348
  48.8187599  36.4507413  20.0972247  48.0906248  35.2812767  19.4702005
  26.5661716  43.6908960  12.7881944  27.3640370  43.1740856  12.9002011
  26.4077830  44.0767002  13.6497617  68.1634188  25.8729243  12.7868843
  67.8909540  25.0941277  13.2721412  68.7149763  25.5347776  12.0814252
  68.2612181  64.4346905   4.6370155  68.8673449  64.9663019   5.1529902
  68.2815266  63.5740757   5.0555384   3.9286935   7.2900355  28.4059930
   3.7502518   7.3756027  27.4694729   3.7659490   6.3663989  28.5974121
  26.6462350  28.0209231  21.8597770  25.7583451  27.6635194  21.8718958
  27.1018314  27.5543165  22.5604486  57.3544836  33.8933849  -0.2243655
  57.1436644  34.6390224   0.3376037  57.3428822  33.1388307   0.3644868
  91.8836923  68.7256296  76.7561412  92.3414417  67.9814310  77.1471202
  92.5819869  69.3258412  76.4946759 104.3718667  74.5096190  58.7137794
 104.9890085  75.2361829  58.8002467 104.3067594  74.3616588  57.7703285
  39.9274230  22.7512932  22.3862624  40.1997614  21.9980788  22.9104090
  39.8034930  23.4544802  23.0237556  96.3502784  92.8403957  85.6750709
  96.8329664  92.0869906  86.0151088  95.4529424  92.7077396  85.9807128
  73.6248255  30.5494213   1.4902902  73.4919214  29.6679497   1.8389694
  72.8056335  30.7548189   1.0397767  51.1220217  64.3784618  30.5168438
  51.7657137  64.8808718  30.0173664  50.3960276  64.9873257  30.6526756
  66.7614174  80.7095242  14.7226548  67.6966667  80.5121326  14.7733498
  66.4208412  80.4793262  15.5870903  35.9651183  25.0705458  58.7401581
  35.6966399  25.9496666  59.0071750  35.2168416  24.5149542  58.9583993
  49.4010115  54.5100307  20.6286883  49.3457508  54.7502327  21.5536094
  49.8723507  55.2362299  20.2203870  28.5424089  22.6870084  26.9887781
  28.9679170  22.2764611  26.2360334  27.6160479  22.7224159  26.7503834
  31.8965483  64.5633841   9.2668402  32.5285006  64.8873758   9.9086344
  31.5201044  63.7832308   9.6741259  54.1730833  49.2043877  10.3298271
  53.4171438  48.9350796   9.8080367  54.8684931  49.3475389   9.6878463
  31.5286851  52.0900869  11.8800092  30.9253311  51.4768648  12.2997177
  31.7750812  52.6984024  12.5767684  52.1732378   6.8413782  22.5818563
  52.7018881   7.2684968  21.9078159  51.3832998   6.5569055  22.1221757
  90.5352493  82.4337513  80.2894127  89.9629493  82.2307856  81.0293519
  91.3149734  81.8981631  80.4357338  51.7980242  47.2781229  12.2021711
  51.9560719  46.9675970  13.0937004  51.7554045  46.4804792  11.6747451
 104.1309924  74.1218598  71.8830109 104.3221708  74.6807177  71.1297774
 104.5477910  74.5650489  72.6219916  37.2436261  60.3399038  13.0519736
  37.9659224  60.3804779  13.6787701  36.8752956  59.4639730  13.1673598
  14.9421203  21.1820769   5.5968064  14.3287396  21.8892241   5.7966518
  15.4930329  21.1153245   6.3767242  38.3803773  18.7593532  43.1756926
  38.0023885  19.6252465  43.0221224  37.7098870  18.1478751  42.8711128
  39.4352126  54.5608950  32.8885198  38.7458444  54.0365553  32.4810052
  39.0120673  55.3944349  33.0944133  51.6026306  62.9657745   4.6658519
  51.0887957  63.0499744   5.4690444  51.3300323  62.1269512   4.2939609
  50.7035255  37.0931029  21.1129141  51.0308695  37.3975682  20.2665234
  51.4225006  37.2607875  21.7221689  43.0686522  35.1871252  10.6041336
  43.9980888  34.9595809  10.6286860  42.7232313  34.8739386  11.4400923
  59.9750471  42.8316689   1.6461216  59.4380856  43.5441494   1.9929358
  59.5186996  42.0346642   1.9158594  69.3046856  35.8567715  26.4594746
  69.9138355  35.5425620  27.1276355  69.3538189  36.8107796  26.5201879
  51.0393238  90.7024002  17.0545626  51.6909599  91.2979794  17.4245489
  50.7343960  91.1436081  16.2617326  38.4203506  31.5920925  32.4179792
  38.4964585  32.3075247  31.7866325  39.0547109  30.9405112  32.1192169
  49.2429256  37.8925133  32.1070504  49.4693661  37.9165411  31.1773300
  48.7310362  38.6886907  32.2495437  26.7683053  21.7077065  40.5640984
  25.9092546  22.1121740  40.4429865  26.6113591  20.7712674  40.4429293
  88.4025860  59.6042395  15.2257347  88.1296444  59.1675854  14.4188476
  89.3481064  59.7174644  15.1287591  53.9401007  38.5862827  29.1016841
  53.0294371  38.5219669  29.3894124  54.1129160  39.5269203  29.0621161
  34.2020011  31.6686320  24.3107915  33.6337018  31.8935823  23.5741329
  33.6706758  31.8477011  25.0865865  70.6727266  63.9581442  34.4958091
  71.3151979  64.0097475  35.2034831  70.3354979  64.8501301  34.4129610
  48.1383896  60.7042503  33.8177156  47.4392080  60.0600290  33.9288616
  48.2571220  60.7677603  32.8700352  17.3862433  53.9833593   4.5872065
  17.3119020  54.8066330   4.1045877  18.3132362  53.7527514   4.5260710
  33.7258601   8.3100742  22.1213102  33.8565946   7.4224228  21.7878199
  32.8012919   8.4944028  21.9556928  51.7359352  93.3223152  63.2353830
  51.3617754  94.1305351  63.5861063  51.6789293  93.4245110  62.2853613
  73.3019543  14.9090266  60.1509285  74.0351725  14.9489868  59.5369005
  73.5336876  14.2036927  60.7551098  59.9681139  71.2868023  21.3811731
  59.0190363  71.1626530  21.3725019  60.2720833  70.8658695  20.5770278
  24.6688414  61.1990213  78.9094210  24.3189430  60.7858849  79.6988010
  24.1549087  62.0004845  78.8106394  45.6863832  34.5521832  67.7391195
  46.4381742  34.2278671  67.2432804  46.0702229  34.9713087  68.5093307
  16.5181255  65.6856441   9.6057981  16.4795053  66.0231924  10.5006742
  16.2964833  66.4375162   9.0564358  52.0556402   8.0906820  78.9642763
  51.2432194   8.1604528  79.4656134  52.1432161   8.9395785  78.5307598
  42.0652151  46.2965631  37.8452277  42.7538204  45.6404352  37.9526949
  42.3940468  46.8789196  37.1604156  77.4705458  41.1442614   8.7842298
  78.1803036  41.6802740   8.4304404  77.8497887  40.7237530   9.5559692
  58.7322207 104.5253332  79.2389524  58.4186502 103.8668878  79.8589170
  59.1386075 105.1963718  79.7873914  53.8102198  13.9707875   7.1720761
  53.0150557  14.4348264   6.9101298  53.9140511  14.1788054   8.1006122
  49.6925116  17.7650690  17.9630637  50.0060225  16.8847716  18.1704748
  48.7648821  17.6469719  17.7586412  25.6642127  56.5769339  46.4443302
  25.3871655  56.9292927  47.2900963  26.1919212  55.8096552  46.6657829
  70.9396982  53.7641001  24.4689465  70.2758694  54.2487335  24.9595523
  71.7600012  53.9536047  24.9243808  43.7951565  23.2653666  42.2892570
  42.9515409  22.8406048  42.4445772  43.9012337  23.2466364  41.3381386
  66.6017485  56.9770527  16.5456474  67.3900843  57.3857975  16.9029772
  66.5702009  56.1147690  16.9600189  53.1031990  42.8733444  42.4530888
  53.2782888  42.6985788  43.3777666  53.9704943  42.9515886  42.0557117
  63.6347151  58.7720442  18.6087704  63.1180191  58.9400005  17.8207052
  63.8533497  57.8415298  18.5580218  64.2552757  74.0411282  19.3518066
  63.3855772  74.3991375  19.1738009  64.1683674  73.6131334  20.2035689
  52.0872164  43.9568329  28.0801582  52.6977015  44.1445160  28.7931204
  52.2453403  43.0375862  27.8651905  62.9088402  47.0797491   6.1337322
  63.0924225  47.7949619   6.7428255  63.7430620  46.9213438   5.6919026
  45.3139305  34.7594118  34.2811036  45.3305435  34.3075848  35.1247931
  46.2278080  34.7690845  33.9965534  59.9416304  41.8851757  15.4080486
  59.2576027  41.3443327  15.8027995  60.7523775  41.4035749  15.5723047
  94.1646481  63.2128763  23.7519574  94.7958755  63.5896158  23.1388903
  93.4877205  63.8837337  23.8411880  26.4393616  36.7369366  20.9935308
  26.9449925  36.3876724  20.2596474  26.0798526  35.9627485  21.4266777
  64.3755770  29.4253039  37.4882889  64.8477554  28.5952950  37.5543451
  63.5239697  29.2488742  37.8881264  56.9152641   7.3367739  43.1249237
  57.6369095   6.7954004  43.4448814  56.7174578   7.9265451  43.8524342
  32.5662231  38.4553957   3.2048440  33.2074380  38.0300164   2.6355231
  32.6377010  37.9881191   4.0371752  25.9455681  38.7772059  22.8264594
  26.4884305  38.1401753  22.3619986  26.4221787  39.6032262  22.7442002
  62.3158693  41.2648439  24.2717004  62.5657606  40.3458929  24.3682051
  61.6214800  41.3933611  24.9178720  57.0886564  42.0621920  18.8993502
  57.1410465  43.0064631  19.0471280  57.4129057  41.9410753  18.0069220
  71.0228777  16.1434782   5.0723082  71.5212584  16.9401157   5.2545601
  71.5979338  15.6245983   4.5098987  46.9858742  46.2472248  28.7242627
  47.9129553  46.4798975  28.6730599  46.9770241  45.2905416  28.6941743
  36.7569900  32.9823923  38.0829215  36.2077451  33.4011340  38.7456560
  36.5825486  33.4751678  37.2810650  71.1267996  49.0267134  23.0807662
  71.6936731  48.6866045  23.7730169  70.2459812  48.9920425  23.4538388
  61.5422535  71.6737175   0.0384294  62.1600151  72.0604372   0.6589512
  61.6840553  70.7302427   0.1157884  58.4945440  30.5033231  37.0554972
  58.8428688  31.1344242  37.6852727  58.5450268  29.6610999  37.5075388
  51.6170979  64.1007948  13.0756354  50.9543943  63.4398794  12.8750122
  51.2012100  64.6674585  13.7253773  18.4297799  84.3876320  27.6789927
  19.2023420  84.6108919  27.1598268  18.4283733  83.4308439  27.7070427
  42.1173000  20.1753449  15.2668500  42.7263069  19.9019027  14.5808649
  42.6031446  20.8266950  15.7727432  55.6127834  32.1572781  29.5419717
  54.9332952  31.8731070  28.9306021  55.6678247  31.4499712  30.1845574
  88.2340431  49.8128080  24.5658326  87.9426575  48.9139414  24.7186637
  88.6618328  49.7836781  23.7100410  40.7070923  26.0890388  20.8534932
  39.7850990  25.9181738  20.6612206  41.1865330  25.5734229  20.2050281
  45.2937174  38.4755349  31.1582398  45.0160694  39.0093064  31.9027090
  44.5860481  38.5676575  30.5203128  76.6040659  63.8788795  37.0805740
  76.4950132  64.8252535  37.1739435  77.4808788  63.7741089  36.7111802
  99.4221973  44.1142178  13.0763400  98.6389828  44.3342066  12.5719500
  99.1041756  43.5431862  13.7756383  72.8268385  13.5761678  54.4556856
  72.1644878  13.3567274  53.8004208  73.5544252  13.9371753  53.9492035
   6.1882454  61.0391665  16.8678844   6.0479993  60.8533049  15.9394348
   5.3380597  61.3474655  17.1815205  54.7349787  16.3939631  66.2352562
  55.2106476  16.0320044  65.4876184  55.2839231  17.1157491  66.5417147
  21.5880656  33.8163090  15.4183090  21.0636616  33.9254761  16.2116027
  22.3071337  34.4400644  15.5188131  55.2794504  11.5649450  25.6882739
  55.1057005  12.1308756  24.9361014  54.6406984  10.8566141  25.6076765
  54.6676016   7.8459191  15.0570691  54.3418264   7.5141680  15.8937538
  54.6310139   8.7982380  15.1464128  44.0463591   6.6456044  55.1529837
  44.2159557   7.3941666  54.5810366  43.5741425   7.0160538  55.8986425
  60.5574512  79.6220636   3.4763896  61.1386156  79.0036678   3.9191833
  59.6953344  79.4554615   3.8574812 104.2723890  18.3472945  90.9538086
 103.9562675  18.6440493  90.1004405 103.5248562  18.4643580  91.5400866
  60.3842306  52.5517559  33.4740686  60.5201912  53.2772398  32.8646278
  59.5021868  52.2360659  33.2776761  74.3384504   3.1018505  34.9243617
  73.4456873   3.2196414  34.5998096  74.6055937   2.2473186  34.5857739
  55.0323820  47.6584768  42.0669842  54.5893335  47.7402115  41.2224388
  54.7000694  48.3924341  42.5838089  37.1797371  40.8790874  18.4344578
  37.6053858  40.0338411  18.5780346  37.9014921  41.4857197  18.2692385
  56.4345074  32.8453660   2.6899490  57.0731735  32.2533393   2.2926605
  56.7467308  32.9678082   3.5864735  64.2572260  81.4209938  28.8454366
  64.5193577  82.3136711  29.0704703  64.8828840  80.8637619  29.3083310
  28.4644866  71.6390944  17.2600186  28.6511731  71.7643833  18.1904387
  29.2644238  71.9194603  16.8153536  54.5914698  23.2271886  35.5107856
  53.9480972  23.9326572  35.5787420  55.2128458  23.5325646  34.8498249
  62.2073364  57.0784521   6.9824976  61.4608383  56.9157171   6.4058769
  62.3726797  56.2351274   7.4040395 106.5119405  98.2216890  68.5197735
 106.3173385  99.0862710  68.1580353 106.5181489  98.3545215  69.4676900
  49.8835373  52.7958536  30.9580922  49.7082520  52.3934221  30.1074719
  49.0847492  52.6451445  31.4635205  48.9703941  30.2780986   8.9217365
  49.2048645  29.7994614   8.1266487  48.3189297  29.7239518   9.3515605
  39.4492483  67.0801544  23.3516502  39.3183017  66.1332369  23.3023548
  39.5951676  67.3493004  22.4447346  30.8253717  55.3074837   8.6191702
  30.9590626  54.3755150   8.4465784  30.8608055  55.7185173   7.7554417
 102.5886913 103.6713560  77.5525367 101.6678663 103.6249549  77.8097427
 102.7111383 104.5753438  77.2626352  57.6326323  43.0221653  35.5420136
  57.1630812  43.4077168  36.2816787  56.9453669  42.7850199  34.9193883
  26.3164091  28.8887048  28.4379196  26.6025376  28.4064412  27.6621723
  25.4505205  29.2240953  28.2055759  43.5609293  96.8013668  29.7135544
  43.3890390  97.2846699  30.5217028  44.3917704  97.1545029  29.3953943
  73.2452917  82.8046131  47.9517412  73.5441256  83.2282925  47.1471119
  72.5601292  82.2010994  47.6644278  26.4684367   8.3341646  52.8472567
  26.6690183   7.7927905  52.0837688  26.1878633   9.1722137  52.4795818
  90.1983447  93.7258823  85.6756830  90.7529922  92.9492433  85.6019968
  89.5486970  93.4941537  86.3393801 102.0143414  73.9176750  46.2981987
 102.2080898  72.9817486  46.3505030 102.8729439  74.3373537  46.2442684
  71.0121822  53.1515551  53.4435368  70.7228041  53.0033207  52.5432491
  71.9674635  53.1743097  53.3873892  89.2031574  59.0780210  10.2410686
  89.5518398  58.2359695  10.5336404  89.9464035  59.6783590  10.2995050
  41.3407707  53.6613131  30.6668139  40.7665873  53.4048653  29.9451613
  40.7434654  53.8786554  31.3825107 105.4886627  59.9044847  33.9109278
 104.9369049  59.3574715  33.3518481 105.5147934  60.7517195  33.4662509
  55.6441116  49.8868179   8.2303035  56.0037422  50.7312107   7.9584563
  55.3672838  49.4704294   7.4140805 102.4867578  90.7547219  82.8906327
 102.1957059  91.0839684  83.7409967 103.2647939  91.2735636  82.6864380
  64.5303059  61.2439919  22.6148725  64.8977137  61.5025377  23.4600925
  63.5838461  61.2355280  22.7576327 103.9037557  82.5925524  84.7259146
 103.7966724  82.1925909  83.8628995 103.8977380  81.8538792  85.3346491
  30.0080585  50.9736252  25.9590864  30.9074235  50.9230185  26.2828350
  29.7515869  50.0618362  25.8208966  76.1171055  51.6078472  28.4737110
  75.2747107  51.3920593  28.8737631  76.6799164  51.8416071  29.2118382
  62.1418190  60.5638123  46.6920662  61.3330841  60.8920240  47.0850801
  62.0872021  60.8298254  45.7741976  39.2415261  42.5649405  17.9418862
  39.8114610  43.1439304  18.4480262  39.7852874  42.2734833  17.2100353
  63.9801358   2.0017840  88.6997107  63.2678937   1.3998343  88.9155737
  64.4471597   1.5729119  87.9826403  59.6778727  48.1518269  26.1460781
  59.4737148  49.0436554  26.4275050  60.4735518  48.2423639  25.6217480
  82.3889256  55.5772543  67.4013042  82.2607517  56.5153742  67.5417900
  81.9281006  55.1608372  68.1296349  62.1116447  37.5657463  20.0145340
  62.6248837  38.2976484  20.3567839  62.7524614  37.0113325  19.5693183
  58.2841921  50.8319187  32.5893521  58.5123062  50.0704527  32.0560861
  58.1344843  50.4750347  33.4648275  63.1122875  52.9709673  45.9775543
  62.3581123  53.1036854  46.5518665  62.7553129  53.0449438  45.0924969
  78.0408764  51.9033384  34.0405869  78.9691305  52.0797110  34.1937828
  78.0236435  51.4026213  33.2249784  74.1864872  54.7377777  41.6942692
  74.9635506  55.2967072  41.6956854  74.2801237  54.1954279  42.4774122
  67.2802830  49.3535614   3.1857437  66.3413572  49.1756964   3.1308749
  67.3603630  50.0048256   3.8826436  66.0483932  76.5567541  15.7598698
  65.9963083  77.0313311  14.9302328  66.8112326  75.9868479  15.6623125
  76.8576431  60.0148392  27.7522445  77.0661879  60.3596401  26.8839979
  76.6706276  59.0879774  27.6032972  50.1455355  57.9172850  32.0129180
  49.3216276  58.4040785  31.9919538  50.7606411  58.4664631  31.5268302
  56.4566898  22.9253531   6.3449264  55.6779194  22.9700613   5.7901740
  57.1192074  22.5078368   5.7944900  53.2752132  30.6925035  27.4026608
  54.0063715  30.0971603  27.2377157  53.1390667  31.1415386  26.5683556
  70.2135468  63.0640459  23.7529254  69.3888330  63.1059647  23.2688570
  70.8649015  62.8192520  23.0956221  67.5564718  56.0855484  50.1466942
  67.7955770  55.1652241  50.0368786  67.4462700  56.1932993  51.0914040
 104.7351170  58.5916901  16.8593609 105.6684399  58.6647224  17.0588803
 104.6963406  58.5594940  15.9034884  73.4870052  65.3379202  48.8813639
  73.7634468  65.7093382  48.0435896  74.3025398  65.0725746  49.3064833
  82.5731468  11.8317652  44.5440292  82.6700687  12.7414823  44.2625141
  82.8949738  11.3165486  43.8042927  43.5795498  32.6269698  28.4802604
  43.4968567  33.5049176  28.8525558  42.8472996  32.5565743  27.8678179
  67.5851631  38.2694912  19.9205256  67.0408106  37.9601717  19.1964889
  67.3277473  37.7239799  20.6637526  21.1648583  54.8010349  16.3263774
  21.1253738  54.7485828  15.3714323  20.2686000  54.6257687  16.6131413
  75.4452181  80.9808731  21.2694287  74.8849964  80.2416325  21.5058899
  75.8709383  80.7083702  20.4565740  94.6392918   1.1912650  21.4030981
  94.2166663   0.4606456  20.9516382  95.5321933   0.8875579  21.5665555
  79.0610743  69.1778851  42.9987574  79.9853373  69.2137480  42.7524233
  78.7440348  70.0718403  42.8700352  72.8760290  56.2987614  37.1325660
  73.1613255  55.6836319  37.8081799  72.5888777  55.7427502  36.4082527
  88.2578373  59.3601465  47.8043747  88.9465523  59.8816633  48.2165909
  87.6102638  59.2283773  48.4968519   6.7998408 101.0972221  89.3553337
   7.5829981 100.9180696  88.8349524   6.1003588 101.1955268  88.7093514
  78.3341408  46.4973545  20.7050872  77.8968334  47.3439932  20.6145906
  79.2644119  46.7138052  20.7681108  56.1601686  79.9409962  24.4211602
  55.3557682  80.4587841  24.3884683  56.3808632  79.7831297  23.5032248
  61.4753771  52.9002666  13.8205743  61.7790508  52.0851231  13.4211314
  61.2393522  53.4571409  13.0786753  73.3093643  56.3226843  21.2159491
  73.2790661  57.2100401  20.8582926  74.2180872  56.2073040  21.4936996
  65.5635214  90.2266121  17.2383559  65.4116201  90.0704193  18.1704295
  65.0969505  91.0415745  17.0529199  67.6013327  59.0828562  23.0578685
  66.7444372  58.7725163  23.3505344  67.4034595  59.7255373  22.3766637
  49.5644188  86.1748409  23.0778646  50.3039122  86.7791843  23.1422710
  49.5994997  85.6662178  23.8879919 105.1563263  56.2526560  18.1656241
 105.2011013  56.3176537  19.1195655 105.0451660  57.1559095  17.8689671
  47.3717165  63.8998413  20.9159732  47.9574823  63.3745670  21.4611316
  47.9567909  64.3841696  20.3334403  36.2507439  74.1347456  24.9276948
  36.7607689  74.0042400  25.7271171  36.3260412  75.0714779  24.7457933
  40.3209162  59.9175787  25.1321745  41.0608006  59.4797850  25.5530596
  39.6386266  59.9334002  25.8033395  68.4169340  57.4149799  25.4094934
  68.4219599  58.1931448  25.9668684  68.0791998  57.7245283  24.5690513
  49.7028828  66.7091131  21.9974971  49.1907549  67.4729919  22.2629166
  49.7105598  66.7464638  21.0410571  58.9004707  53.4591532   3.5164419
  59.3825340  53.6891890   4.3107527  58.4576464  54.2687511   3.2620966
  62.9271269  49.6934462  27.6498580  62.8259182  50.0337696  26.7609429
  63.4247971  50.3694057  28.1098986  96.4706516  44.9752855  57.3738670
  95.8523846  44.7161913  58.0571270  96.9672775  45.6961584  57.7610683
  68.2187939  79.3056059  28.0438089  68.4477234  79.4637585  28.9596748
  67.8434610  78.4250784  28.0393529  58.6560488  57.5726461  35.7513809
  59.6033192  57.7098942  35.7429433  58.3137798  58.2967806  36.2755108
  83.6065769  83.0211544  39.1090035  83.1809902  82.5297832  39.8116159
  82.8841686  83.3388233  38.5672927  75.8414936  40.0539351  18.8837898
  75.1285172  39.4793296  19.1625810  75.6709576  40.8821583  19.3323374
  82.4814987  49.5813465  12.8175235  82.0369434  48.9231777  13.3517683
  82.8814411  49.0817451  12.1057057  99.8966026  84.0227413  21.6868973
 100.0390053  84.3379879  20.7943869 100.7754517  83.8411236  22.0198464
  82.9716682  57.1031141  32.0832181  82.8977966  57.2564888  31.1412764
  82.4215698  57.7786779  32.4797511  72.6309204  63.4907150   0.0846071
  72.5642347  64.0577173   0.8529156  72.7644396  64.0933895  -0.6469613
  56.9568777  23.1751442  15.7014096  57.2570658  23.0525446  16.6020143
  56.3107872  22.4816442  15.5677938  61.7586613  65.9824800   9.2192608
  62.6348019  66.2998009   9.0003675  61.1682272  66.6523314   8.8744128
  59.0917540  65.1068306  21.8880057  59.7849178  65.3027010  22.5183892
  59.3100977  64.2365265  21.5546465  75.8190107  53.3736134  56.5991020
  75.8666658  52.4191332  56.5449381  74.8822451  53.5685396  56.5726233
  48.8869429  61.5490770  14.9050617  48.3587217  62.3352909  15.0432026
  49.3285275  61.7009687  14.0694988  71.6414165  73.7523270  64.5082235
  71.3251305  73.9520311  65.3893089  71.2887621  74.4549656  63.9621735
  91.0055351  60.2124929  45.1636076  90.6465340  61.0783911  44.9697542
  90.2445507  59.6318579  45.1619577  87.6906586  65.9980965  19.8007274
  88.0365086  65.9514809  20.6920433  88.4028912  66.3790274  19.2870688
  80.6401634  66.3437366  41.7589760  81.4233685  66.1401272  41.2477303
  80.7474804  67.2622633  42.0060015  96.9867134  59.3556499   8.3364755
  97.2049141  59.3949842   9.2676425  97.2985744  60.1883173   7.9820156
  46.8189430  58.6735582  15.7034874  47.7472878  58.8163185  15.8879566
  46.7633343  58.6639738  14.7479522  52.9063606  71.4689064  22.5538921
  52.2923660  70.7542324  22.7226496  52.9148293  71.5573692  21.6008282
 105.2083015  48.9115953  29.8618984 104.3886948  48.4455347  29.6967626
 105.8397675  48.5027409  29.2700219  68.0314970  44.5187664  22.9357767
  68.1441116  44.8417807  23.8297653  67.9244423  43.5727215  23.0346370
  91.0080147  80.5018139   3.9127997  91.7165279  80.4034519   4.5488498
  91.3118458  80.0253296   3.1402180  76.2971258  43.7672091  24.1474557
  76.9848108  43.2558060  23.7210894  75.5222940  43.2065821  24.1078854
  94.4274139  36.6258192  13.8575530  93.5713959  36.2682748  14.0934062
  94.4186974  37.5174665  14.2055762  15.3851704   9.1434783  20.6418133
  16.2804607   8.8052768  20.6243682  14.8973183   8.5031814  21.1597371
  59.0888880  89.6595366  85.7771200  58.6683177  90.4434807  85.4238808
  58.4601782  88.9563925  85.6142199  70.0658512  55.0264549  10.8545625
  69.6536684  55.8640528  11.0661507  70.9030104  55.0475979  11.3181841
  70.4093552  59.3372917  29.1651583  70.6663132  58.4158325  29.1318011
  71.0976648  59.7594261  29.6792269  55.0102949  38.0165529  48.1544495
  55.5457497  37.8445673  48.9290094  54.6900940  38.9100766  48.2782173
  71.0072613  15.1680541  33.4156227  70.4247570  15.6898808  33.9675450
  70.4541349  14.8788035  32.6899409  85.6328011  63.0042791  32.3328018
  86.3212872  63.5269499  32.7439332  86.0496998  62.6250935  31.5590787
  48.4728336  53.7675047   4.9181652  49.4060659  53.9548349   4.8170698
  48.3755589  53.5252523   5.8390796  83.6665821  61.8624115  21.5355515
  83.8221931  61.1111307  22.1079111  83.0744457  62.4250937  22.0345592
  81.0703468  36.3724303  15.9899831  80.6010246  36.7930794  15.2695501
  81.8617916  36.0173440  15.5853033  74.0253162  48.4518194  20.4494834
  73.6280203  49.2751408  20.1657176  73.4934330  47.7733421  20.0335479
  67.3875761  44.7695303  16.7993724  67.2616768  45.4598475  16.1483395
  68.2252598  44.3697071  16.5655768  94.5108224   4.6699542  29.5608997
  94.6311284   3.7221641  29.6196079  94.2394353   4.8213214  28.6555433
  68.6081886  89.9960327  42.4797773  68.8701963  90.2018356  43.3771229
  69.4312382  89.8170948  42.0250177  45.6992483  83.7972736  20.6326914
  46.3259315  84.5081997  20.7671809  45.6872892  83.3275700  21.4666390
  98.4192657  82.0767784  32.0240045  98.6646557  82.8237152  31.4780116
  97.7485752  82.4212456  32.6137042  52.9472733  50.6805515  31.0908031
  53.8640738  50.8584070  30.8808661  52.6356316  50.1406050  30.3644633
  95.2921295  80.3596210  30.5432892  94.4243717  80.7339668  30.3913379
  95.1402283  79.4159508  30.5947518   2.8693822  41.3295937  29.3944597
   3.4449628  41.8537664  28.8375258   3.1987146  41.4732313  30.2816677
  71.5182638  81.3036442  63.6510754  71.9424868  81.7678642  64.3727112
  72.2225428  81.1421204  63.0232716 102.2329617  29.6956325  10.1737440
 101.9577599  29.1867685   9.4111496 102.9925537  29.2237210  10.5151463
  64.8992443  76.5296745  10.2121580  64.0974379  76.5456295   9.6895891
  64.6076488  76.7186594  11.1040604  86.9507027  71.6792440  27.3199248
  86.8167019  70.7328987  27.3719501  87.8553486  71.7770767  27.0228171
  88.7007809  35.6841779   4.5762208  89.4617176  35.4098344   4.0644065
  88.6415386  35.0397444   5.2815062  61.2746477  29.0289044  44.4612026
  61.0923290  28.0936527  44.5522928  62.0992136  29.0660882  43.9764929
 105.9429260  90.2227266  83.8835824 105.7717557  89.8653014  83.0122727
 105.4872556  89.6286185  84.4799334  45.9996700  46.4846087  15.1479411
  45.8667755  45.6434107  14.7109604  45.9422874  47.1315002  14.4447541
  90.5591679  83.2079124  22.9541373  90.5513573  82.5367165  23.6365342
  89.6433449  83.4726334  22.8680587   6.1957696  65.8350182  16.5924442
   5.7363656  66.5132761  17.0875716   6.5841725  66.3007212  15.8518374
  75.9147358  98.1136608  12.0341408  75.2459764  97.7913475  12.6383865
  76.5782595  97.4238777  12.0211518  61.6359663  85.2859879  28.6326790
  61.4338398  84.4140148  28.2934904  61.7158651  85.8340645  27.8520012
  93.1137658   6.3244456  31.5182281  92.9814339   5.7594317  32.2794652
  93.6348916   5.7949561  30.9146523  77.8644609  59.6540451  18.1501794
  77.5249434  58.7677574  18.2744825  78.2516813  59.6416235  17.2748864
  67.4758911  63.4497118  32.5533867  67.3244238  63.4208679  31.6086888
  68.4279346  63.4942436  32.6420641  60.8932114  76.9047880  26.5528035
  60.9422350  77.2503376  25.6614971  60.4098368  76.0832882  26.4649487
  78.4944677  43.8520527  20.4563284  79.0071678  43.5658550  19.7003770
  78.7265253  44.7739649  20.5679655  48.0675268  38.0254650   1.2177374
  47.4951363  38.5677195   1.7604685  47.6223898  37.1793437   1.1712281
   2.7060984  87.1439178  74.2895722   3.2691859  87.3812468  75.0263488
   2.2372721  86.3644869  74.5877755  82.1138573  54.1602945  31.9565058
  82.9381943  53.7737179  32.2518826  82.1858501  55.0856590  32.1904850
  49.1598749 104.0909672  25.6104612  50.0690365 103.7934399  25.6441307
  48.8294840 103.9523697  26.4980769  72.1797657  44.4182062  16.1821413
  72.6357508  44.6434212  16.9930601  71.8738890  45.2575254  15.8383179
  68.2185984  80.9643078  11.9034696  67.4556160  80.4090786  12.0640874
  67.8628111  81.7414761  11.4725792  60.7084274  77.7619076  17.6166916
  60.2111864  76.9811678  17.3729146  60.0803900  78.3078480  18.0897105
  58.5065889  65.5586386  18.1020081  58.9231968  66.3820410  18.3563149
  57.8032064  65.4390144  18.7401140  88.3143044  41.3715267   2.7486962
  88.5341930  41.5408325   1.8326087  87.3885345  41.1288452   2.7318907
  53.4269905  85.3942490  24.2376852  53.3872747  84.8686600  25.0366902
  52.6301575  85.9241676  24.2597270  83.5972404  45.9000683   4.5113960
  84.1074848  45.6552792   3.7394077  83.0487537  46.6265869   4.2154813
  43.2381248  63.0247164  25.6868553  43.0813217  62.8539944  24.7581482
  44.0987778  63.4429312  25.7115245  25.7211875   4.8264147  67.8304982
  26.3402032   4.0980030  67.8801465  24.8610925   4.4164969  67.9223537
 102.2157383  89.0476608  38.5648036 101.4572906  89.0198803  39.1480827
 101.8644047  89.3562984  37.7296114  75.4564619  55.8946037  22.8302407
  76.1087084  56.5583801  23.0543113  74.8971701  55.8372831  23.6049271
   8.4331089  60.5419874  50.2211094   8.8170147  60.5799770  51.0971260
   7.5122666  60.7674646  50.3531742  60.5008554  64.1362238  26.2384772
  60.8741140  63.2635593  26.1145091  59.5574903  63.9865732  26.3009119
  54.1511726  74.2219019  27.5410771  53.6775017  74.7774601  28.1601262
  54.0931988  74.6887159  26.7074370  75.4099083  73.8900805  53.3047485
  75.9036493  73.5497189  54.0508080  76.0421324  74.4224072  52.8218937
  53.8082027  54.6249485  30.1924324  53.1471682  54.4510174  30.8625197
  53.4003639  55.2708483  29.6156192  99.3651581  48.0281544  13.9316952
  99.8774338  48.5654449  14.5359480  99.7760105  47.1645451  13.9718759
  78.0945539  36.8637943  26.9878650  77.5293255  36.1658192  27.3188996
  77.5350523  37.3632908  26.3931465  67.1468496  72.4618435  33.0563354
  68.0225086  72.8374195  32.9647064  66.8836975  72.2466612  32.1615291
  15.7297897  20.2864291  61.6102743  15.1477098  20.8542658  61.1053276
  16.4036893  20.0180890  60.9857035  85.1476002  78.8443708  43.3107901
  85.0656509  77.8908396  43.3278322  84.5644760  79.1473627  44.0067673
  -0.3000209  71.6137791  29.1407537   0.1827767  71.0363865  29.7321534
   0.2220967  72.4154329  29.1095209  54.4011831  93.7909794  39.3904638
  55.3424644  93.8668728  39.2340636  54.2814016  92.8930950  39.6997809
  83.8070393  81.0719109  32.8216219  83.1284428  80.5357552  32.4114108
  83.3248997  81.7668152  33.2698202  57.4787188  30.1335096  23.0226064
  57.5309753  30.6418014  23.8320136  56.5825987  30.2666354  22.7136135
  77.9377842  76.5157557   7.4766308  78.6102533  75.9004259   7.1844262
  77.4965000  76.7881441   6.6720754  62.5491190  66.3746262  29.8824573
  61.8830585  66.6016150  30.5313540  62.9365206  67.2137117  29.6332812
  45.9271002  70.9348106  55.1508188  45.6666327  70.0322294  54.9671507
  46.0736990  70.9540701  56.0965300  66.4514689  28.3947842   6.9494629
  66.7914920  28.8521760   6.1804390  67.1379523  28.4926407   7.6093102
  90.6998539  62.0120144   9.0363711  90.7542896  62.9352331   9.2832243
  91.5291309  61.6358948   9.3314320  62.1130037  64.6138000  17.9720211
  62.6676798  64.4221687  17.2158182  62.7212906  64.6601343  18.7096334
  81.8208313  61.1982727  28.4854841  82.2610188  61.1603689  27.6363492
  82.2759628  61.8936682  28.9603710 103.1622077   3.2210368  31.8231273
 102.4884797   3.8995189  31.7784691 103.9364959   3.6263007  31.4326572
  47.0964622 104.6104050  44.8172855  46.3349247 104.3826962  45.3506184
  47.8337669 104.1916466  45.2614164  64.1507435  72.4113989  13.7142038
  64.1775370  73.3418560  13.9372694  63.6515999  72.0089865  14.4249427
  11.2529901  58.3760834  31.5347028  12.0196202  58.5758924  30.9975004
  10.7737783  57.7170229  31.0324717 103.5064888  60.3570604  65.5238342
 104.1967010  61.0143471  65.4353762 102.8226471  60.6449699  64.9190998
  26.4833402  24.5796372  90.7918579  27.0819949  23.8519026  90.9599090
  25.9499311  24.6389033  91.5844473  92.7315807  64.3729734  18.0890369
  92.0619678  64.5414305  17.4261057  92.4274158  63.5866594  18.5422802
  96.3870383   6.6585654  30.2154636  95.6201745   6.1296481  29.9954700
  97.1088506   6.0308856  30.2505875  62.3513651  55.3431273  33.3805132
  61.9258165  55.9708023  33.9646077  61.7738295  55.2952576  32.6186776
  74.5199633  63.9675999  41.2857580  73.7785769  63.5370636  41.7114496
  75.1923847  64.0141773  41.9654036  58.5475826  82.3346138   8.9335495
  58.0055952  82.4260139   8.1498855  57.9194641  82.2330666   9.6486652
  20.1929238  47.1985245  40.2883434  20.1858476  46.7714977  41.1449814
  19.6522000  47.9796076  40.4056072  67.2670603  46.5049362  14.6476543
  66.4157248  46.8130970  14.3370271  67.8909159  47.1513414  14.3172026
  86.6690636  55.2610588  28.8158035  86.3544655  56.0734797  29.2123246
  85.9684277  54.6290302  28.9766693  54.1348362  96.6307068  40.0636959
  54.0738440  97.2011852  39.2974949  54.1925859  95.7470226  39.7003675
 103.4560394  75.8735466   6.6395313 103.6002731  76.7599773   6.9706935
 104.3309402  75.4872274   6.6002536  41.1966752  16.6768958  74.3864810
  41.9181489  16.5006329  73.7826264  40.7294797  17.4137856  73.9928484
 104.5733547  50.4340982  26.7642736 103.6626148  50.6551981  26.5695834
 104.9905968  51.2761307  26.9462752  94.2761612  71.7728138  20.3946137
  94.7092915  72.1606445  19.6342075  93.9620018  72.5227833  20.8996701
  88.3246899  60.8476353  31.3784361  87.9882050  61.2906837  30.5995131
  88.5774994  59.9778843  31.0688424  58.3655167  79.5529890  44.2319059
  57.7749062  79.8064613  43.5225677  57.8177786  79.0435123  44.8291111
  67.0793152  66.9094229  13.6321604  66.7878199  67.5343466  12.9682839
  66.4244986  66.2116575  13.6081946  86.6369629  50.4192448  33.7696981
  86.6975403  50.2356529  34.7071695  87.2308826  51.1570263  33.6312509
  66.8358278 100.3739166  39.9399734  66.8966103 100.3125095  38.9866829
  65.9119987 100.2128983  40.1319361  65.0057650  67.5878096  22.6737070
  65.6929827  67.6157379  22.0079851  64.5785666  68.4422350  22.6129436
  83.9791107  60.6194925  47.1926546  83.1080914  60.8087349  47.5415754
  84.2557907  59.8285055  47.6552725  81.1167812  72.1557903   2.7764314
  81.8503857  72.6390076   3.1566468  81.5248775  71.5434551   2.1642783
  15.7477143  32.8343844  37.6887822  14.8281911  32.6348877  37.5129986
  16.1503747  32.8911734  36.8222523 102.9891205  68.1100988  45.7943964
 103.7264252  67.9564571  46.3851643 102.2964478  68.4519291  46.3597155
  20.1861481   8.4316939  46.1076069  20.3750805   9.3414802  45.8777666
  19.3402008   8.4681529  46.5540123 111.4972115  63.2742453  29.6344733
 111.7558002  62.7347946  28.8872385 111.0809898  62.6608562  30.2400684
  60.9287024  66.3545799  41.7258835  60.4337072  66.6112947  42.5039005
  60.6995201  67.0116091  41.0686016  85.5031395  50.0200701  42.3051357
  85.5574799  50.7247829  41.6596413  84.9420071  49.3620920  41.8947220
  89.7664547  60.1573706  58.4255362  89.3913555  59.5159578  57.8221083
  89.0183258  60.4790497  58.9285803  75.7820463  64.1821146  59.4617128
  75.9441710  64.9208641  60.0483942  74.9619007  63.8018751  59.7763777
 110.3536415 104.0967178  35.1914740 110.4708290 104.4044971  36.0902357
 109.8454475 103.2902813  35.2788138 110.2259731  60.2704191  22.9854059
 110.7401180  60.1993036  22.1811461 109.6768284  59.4864225  22.9887366
  96.2376308  77.3331308  36.2253165  96.3673973  76.3848686  36.2115312
  96.7826557  77.6389456  36.9503355  87.5641441  83.6340904  26.1154127
  86.7093372  83.5885715  26.5437436  87.4783421  84.3491936  25.4849410
 106.1511612  79.2581272  39.8195291 105.2042007  79.3977404  39.8220658
 106.5116405  80.0676060  39.4575477  79.1922998  85.9292793  16.5390456
  79.6315384  86.5339088  15.9409368  79.4995308  85.0629044  16.2721646
  80.6699085  56.2492895  71.0477877  80.8173275  55.5929708  70.3668022
  81.4893150  56.7425585  71.0864305  87.7994156  91.1148930  26.4073205
  87.8025150  90.6090832  27.2199559  87.9319286  92.0203018  26.6882515
  56.7270565  63.9302731   9.0175241  57.1179819  63.3206558   9.6434438
  56.2587881  63.3703136   8.3983302  90.2609444  63.0001879  44.4343328
  90.6949043  62.9590321  43.5821533  89.4348240  62.5342846  44.3051720
  78.8519144  97.1345043  36.5169001  78.1766367  96.5353107  36.8350101
  79.4560337  97.2273827  37.2535443  70.4514599  68.6031580  33.6980653
  69.7664213  68.6868048  33.0347729  71.1988258  69.0756416  33.3314180
  78.7512207  92.9770374  33.4286308  79.1748619  93.6030674  34.0158677
  77.9452181  93.4141064  33.1537461  33.5452179   5.9045047  25.5726457
  33.4301285   5.2719802  26.2818074  32.9152302   5.6330890  24.9050474
  49.2294693  79.7905827  57.2771215  49.1908073  79.1758537  58.0098200
  48.8294268  79.3183565  56.5469170   6.1725520 104.8296173  79.1916990
   5.6884860 104.5121391  79.9540102   5.4984663 105.1768453  78.6075163
  22.7912620  11.3238925  47.5575161  22.6338200  11.2685317  48.5000515
  23.6205772  10.8644218  47.4258137  65.0136614  77.3083591  18.1999028
  65.5565739  78.0935717  18.2700348  65.1583338  76.9961309  17.3066986
  72.1103430  58.7948513  18.8234699  72.8500271  58.9281130  18.2307303
  71.5434408  58.1756830  18.3635986  92.4021768  17.4412991  81.6121525
  93.1788301  17.6037337  81.0767460  91.6708230  17.5006558  80.9974730
  94.0000725  40.0607777   8.3348155  94.6129990  39.7689819   7.6599747
  93.2025528  40.2826929   7.8542405  79.6895885  84.2059803  21.0982585
  79.3514776  83.3951950  20.7180762  79.6172237  84.8494720  20.3933311
  86.4553261  45.0810242  19.4131839  86.6673756  44.9123240  20.3312278
  85.5690479  45.4419899  19.4345021  65.2276421  65.2505398  32.7714324
  65.9187508  64.6396017  32.5157952  65.3935051  66.0332727  32.2460270
 104.7011948  80.8385658  43.7804985 105.0724411  80.2816486  44.4647884
 104.1828156  81.4881706  44.2553854  87.1394920  69.0722609   8.5249281
  87.4389267  69.7119904   9.1709298  86.1999702  68.9889526   8.6880112
  80.2735424  83.2393837  48.7798548  80.0376320  82.4347401  49.2415237
  80.3624439  82.9731750  47.8647232  62.3374223  24.2101551  76.3490200
  61.7187547  23.5536982  76.6692626  63.1993913  23.8353659  76.5300667
  88.9612865  74.0734386  12.5046957  88.6948586  74.7396851  13.1382263
  88.4281445  74.2526197  11.7301702  82.8727150  43.6902094  18.8403523
  83.2909679  44.4891787  19.1611886  83.3633041  42.9801846  19.2543733
  87.0343590  89.8901176  14.1361988  87.1454239  90.3895092  14.9452162
  87.9269600  89.7203922  13.8350499  56.8213081  81.3259602   4.4352412
  55.8994246  81.5565872   4.5500156  56.8802071  81.0172749   3.5310984
  77.0123482  84.0886307   8.8928562  76.3921881  84.5746517   8.3493268
  77.2925758  84.7178364   9.5575446  56.3194418  83.9530182  30.0172949
  57.1597862  84.0158367  30.4712844  56.0084724  84.8566532  29.9628687
  15.6234936   0.4589957  24.3044639  16.3387779   0.7852954  24.8504734
  15.3728107   1.2088222  23.7648773  16.4022401  41.8427896  58.0897665
  16.3345483  41.1293316  58.7242937  15.6365255  41.7350101  57.5255871
  80.3294373  78.1310749  20.3953958  80.8119202  78.2144833  21.2178850
  80.9525967  77.7260780  19.7921729  65.7581662  16.5119482  87.3983341
  65.4446172  17.0451952  86.6678834  66.4474439  17.0396925  87.8015888
  81.7178822  52.3813915  29.9509883  81.6759777  52.9244900  30.7380867
  82.1879292  51.5947437  30.2275276  63.7806702  90.6450939  47.0395231
  64.0657568  90.8536720  47.9291582  63.8149643  91.4811993  46.5747929
  84.8207951  66.3153267  33.3166242  85.3741074  65.9620523  32.6200056
  84.4278336  65.5438566  33.7248445  90.8721542  88.9541340  34.2769790
  91.7369366  88.8047409  33.8948035  91.0454178  89.4588661  35.0716233
  83.1919479  93.7656403   1.9511303  83.2737446  94.6630573   1.6283539
  82.4754333  93.8033581   2.5846946  93.1237602  60.8767557  17.3995984
  92.6222610  61.1464930  18.1689966  93.9363956  61.3795280  17.4550462
  97.5635052  58.9322329  11.0539377  97.7929497  59.7368288  11.5189230
  97.8288078  58.2290602  11.6467214   1.4334729  67.7064562  59.5435953
   1.7189935  67.1460533  60.2651691   0.5393174  67.4201107  59.3572903
  78.7414551  74.5850754  30.4211545  78.2178593  73.9741707  30.9396791
  78.1101322  75.0064659  29.8379779  92.2210598  45.7861662  28.0830383
  91.3940811  46.0354853  28.4955764  92.8022003  45.5819416  28.8157010
  62.6242256  70.4611015  67.1357203  62.5280476  70.6801939  68.0625296
  63.5351515  70.6737041  66.9326258  87.5034904  47.5321722  42.8529024
  86.8882179  47.8981924  43.4882784  87.5331974  48.1791830  42.1481180
  97.5456619  86.7522526  35.7035804  98.0191231  85.9426594  35.5121922
  96.6917706  86.6344452  35.2873945  84.0153694  63.6515570  49.0186739
  84.0974712  64.5450354  49.3521166  83.8437271  63.7598372  48.0832338
  88.9182091  55.9069300  27.2564769  88.2299232  55.5250359  27.8011298
  88.6797237  55.6619740  26.3624120 110.9099674  43.1726456  31.5202641
 110.0645638  43.3724594  31.1182618 111.2946510  42.5065947  30.9505105
 111.6641713   5.1844138   1.9336395 111.6009999   5.9993094   2.4318260
 110.7667208   5.0048942   1.6532914 109.6720791  70.7470655  19.5442986
 108.7592506  71.0024977  19.4111454 110.1309490  71.0895491  18.7772465
  80.8955860  53.0139875  34.4954705  81.3565254  53.3519316  33.7276387
  80.5808926  53.7958336  34.9492550  91.6943073  69.7590876  33.3986068
  91.2910271  68.8912106  33.4182024  91.9479847  69.9258709  34.3063879
  26.8623399  12.1077420  86.9242549  26.3457727  11.3801981  87.2707561
  26.3657855  12.4140049  86.1653930 108.6881924  92.8378391  39.3756676
 108.6817169  93.1106281  40.2931499 107.9442215  92.2405815  39.2981148
  92.3745441  65.0071812  38.3743834  92.8538704  64.6228456  37.6403785
  93.0227661  65.0729322  39.0756059  89.8918343  96.2562656  29.4542694
  89.8293400  97.1680450  29.7388506  90.4093075  95.8275414  30.1359153
  80.4381847  96.7193031  49.6490288  79.6179390  96.7731667  49.1586018
  80.5107212  95.7967854  49.8938513  81.6519451  63.5303783  69.0073347
  81.8887520  63.4113598  69.9271107  82.2510433  62.9567146  68.5296059
  22.0766167  10.0277156  50.1157188  22.9860786   9.7317046  50.1541328
  21.5659145   9.2223948  50.0327969  39.6293306   7.8514124  84.4318688
  40.0804090   7.9474856  85.2706343  39.3072080   6.9500424  84.4350153
  82.9140186  92.9960632  44.5133543  83.7150288  93.4865856  44.3289471
  83.2159996  92.1999645  44.9506998  66.1642122  74.5832157   8.7409800
  65.7694674  75.1553631   9.3990481  65.6304789  73.7889385   8.7630099
  66.3231277  67.1667433  50.5387402  66.5962410  67.7424574  51.2530184
  66.2832975  66.2961817  50.9346819  67.7951431  70.2219582  23.3140230
  68.0238008  69.4372082  23.8121367  68.5005331  70.3130198  22.6734233
  86.8595982  64.8172331  14.4983864  86.5544796  65.4219437  15.1747417
  87.6149940  64.3798780  14.8912311  15.5396035  81.7479134  39.5187211
  14.6998647  81.3693905  39.2583656  15.4425576  81.9253635  40.4543066
  98.2812881  92.6215839  53.2664251  98.0512142  92.4337292  54.1763735
  98.2629871  93.5767651  53.2070446  65.0808001  74.3501902  58.2448816
  65.4095411  73.4657097  58.0840969  65.1883984  74.4780493  59.1873837
  96.2743664  65.0800419  37.6796055  97.0849800  64.5795822  37.7727461
  96.5627289  65.9603500  37.4384999  55.9294271  16.5118767  69.5465064
  55.6679582  16.8278576  68.6816216  55.6217908  17.1870495  70.1512599
 105.8202362  84.0722179  24.1083217 105.9293556  84.6809864  23.3777595
 106.5544319  83.4637642  24.0247846  75.3956699  58.2055521  51.1925030
  76.0975695  58.7489128  51.5507317  75.8099174  57.3590946  51.0247612
  37.5210761   3.9764763  78.8461828  38.4188222   4.1693379  78.5758460
  37.3076295   4.6646286  79.4763553  77.9556084  52.6083899  23.6064386
  77.1966314  52.6553059  23.0250740  78.5298491  53.3136749  23.3080244
 105.5534840  92.6400375  42.0687485 104.7932053  93.1957245  41.8972397
 106.1933899  92.8982067  41.4053392  82.9942417  78.4672594  60.6566668
  83.9133453  78.6645508  60.4762650  82.5252819  78.7840366  59.8846817
   3.8425973  95.4173279  36.3439488   3.3521608  94.6871948  35.9663153
   4.7535089  95.2412605  36.1084485  68.2434320  80.6440639  54.2929935
  68.0452585  81.2023544  55.0448418  68.2033682  79.7526550  54.6394253
  81.7277336  82.6838017  45.8910084  81.6115475  83.6335754  45.9167576
  82.6766396  82.5582886  45.8988428  70.3026342  82.8274059  73.7514448
  69.6251106  83.4249592  73.4350157  70.7883930  83.3376503  74.3994570
  51.0634995  48.0513525  16.7826760  50.5406666  48.3310461  16.0312438
  50.9492445  48.7497377  17.4272180  65.8693457  95.1214314  51.1250591
  65.1144886  94.6522903  50.7696295  66.5519094  94.4546223  51.2005997
  66.0561085  67.6665306  34.2485046  66.0267973  67.5504446  33.2988214
  66.8619251  68.1589222  34.4048524  55.4947233  69.4451237  70.1343298
  55.4447889  70.3952360  70.0293350  55.9780407  69.3194675  70.9509325
  97.5277233  86.0363674  49.7097063  97.7459621  85.6247807  50.5458879
  96.6469288  86.3882351  49.8386192  89.1705418  83.9916420  45.0666523
  89.2722416  83.4209347  44.3049526  89.1735172  83.3949566  45.8151054
  79.0349770  88.7875557  50.9957075  78.3459711  88.7154388  50.3351736
  79.8088264  89.0648746  50.5053139  75.9481716  92.4734688  42.8789997
  75.8479500  91.7483139  43.4957218  76.7928219  92.8638363  43.1035185
  87.1642017  61.7817116  14.3938005  86.2382221  61.9333982  14.5829499
  87.3389053  60.9062195  14.7390938  59.7826719  85.0174427  24.1526175
  59.2730570  85.4016209  24.8660111  59.1481733  84.5001602  23.6565614
  84.8797131  86.3716984  15.2981782  84.3193436  86.5716648  14.5483530
  85.2620029  85.5189991  15.0908315  92.2713089  81.2389660  45.7040453
  93.1538200  81.5096474  45.4507828  92.0551014  81.7963505  46.4515829
  71.0640574  39.0593123  21.1089349  70.4978037  39.1019416  21.8795037
  71.5499115  39.8839235  21.1228275  91.4715290  57.5741863  50.5079031
  91.6419601  56.7112684  50.8854818  92.3408127  57.9422998  50.3496170
   1.1862038  95.0483997  81.5015769   0.8343314  95.4723127  80.7188165
   1.8885945  94.4864185  81.1743736  54.9240255  86.2538815  44.8014164
  55.1302624  87.0846367  44.3729830  54.2252970  85.8759689  44.2673874
  91.5552521  73.1713629  36.8466401  91.4811611  73.0319786  35.9025455
  91.3273335  74.0926313  36.9713497 103.9661884  36.8863940  64.4184351
 103.1571388  36.4730668  64.1170645 103.7782860  37.8247166  64.3967104
  66.3713360  57.6603222  33.6160851  66.9542646  58.3926010  33.4155965
  66.6209936  57.3904800  34.4998765   5.0345853  59.3793488   2.1469525
   4.1923574  58.9447021   2.2810046   4.8840860  59.9710846   1.4097783
  75.1194477  88.0178356  41.1436224  74.4942713  87.9467297  40.4222822
  75.5115509  88.8844013  41.0362005 102.5932026  62.0717144  11.2410057
 101.6640091  61.8553638  11.1633921 103.0046177  61.6311693  10.4974413
  64.0630341  74.8243189  14.9328113  63.2483864  74.9138689  15.4273427
  64.7527838  74.8941851  15.5928063  33.6680412  13.8444592  90.9173526
  33.4240817  13.1424118  90.3141548  33.8195276  13.4011723  91.7520879
  13.3803228  33.9748049  41.1704969  14.0188077  33.5485983  41.7422581
  13.8440564  34.0959120  40.3419399  92.3101330  80.3433609  38.7703276
  92.5261879  80.4230499  37.8412437  92.7940559  81.0542870  39.1906047
  81.4219761  59.8616171  40.1267290  80.6962681  60.1332283  39.5647621
  81.0325623  59.7779274  40.9971237  97.1777153  45.8035564  43.1540489
  97.6202488  45.0652981  42.7352762  96.8066978  45.4365349  43.9564705
   2.0368913  90.0886536  13.3979642   2.8394845  90.5292797  13.6771035
   1.3310483  90.6365681  13.7412179  69.3146992  73.6490536  73.5224867
  69.1169930  72.7359772  73.7309074  69.9022627  73.9327812  74.2228460
  71.5116215  64.2768955  31.8771625  72.4083757  64.5991230  31.9679141
  71.2604523  64.0149498  32.7629018  64.4704199  77.3335123  20.8752322
  64.6902800  77.2719622  19.9456608  65.1835632  76.8762255  21.3208151
  63.8108110  85.0205803  43.4389544  63.4654188  84.3862247  42.8108358
  63.0820370  85.6201172  43.5992050  85.3604507  74.3115711  31.6344190
  85.5889893  73.7011909  30.9333968  85.1412678  73.7506294  32.3784161
  78.7571239  47.0247602  57.2850704  78.7678337  47.6193619  58.0351162
  79.6406794  46.6575813  57.2578764  21.2866262  92.6789379  53.0351162
  21.6206029  91.9114017  52.5708199  20.7714704  92.3172569  53.7562418
  97.9379845  81.3410091   9.8936915  97.6272964  80.4405403   9.7995782
  97.5766659  81.6327953  10.7306731  85.6475830  84.1459084  32.3750019
  85.9528160  84.1353416  33.2821703  84.7087860  84.3209362  32.4401951
  56.3917685  56.0521126  21.8317056  56.4364243  56.1314249  22.7845693
  57.0064163  55.3492880  21.6208005   1.2884477  71.3049364  19.0251124
   1.8714193  70.5552197  18.9055085   0.4663423  70.9225225  19.3319476
  10.9601071  44.6739674  52.8665257  10.9126619  44.3750238  51.9584465
  11.3884023  45.5284691  52.8153086  30.7043885  47.2636534  86.3079074
  30.2799510  46.4646078  85.9954846  30.9177970  47.7488543  85.5108678
   2.1230271  62.3087835  13.8062418   2.8490403  62.3582840  13.1844020
   2.2042134  61.4403725  14.2005789  78.7359810  73.2640505   0.2125175
  79.0468311  74.1569805   0.3617720  78.5669231  72.9195738   1.0894370
  78.8625002  38.8994551  56.8258619  78.2735777  38.1569839  56.9605303
  78.2811069  39.6565557  56.7550707  65.1050234  86.7151833  46.9345045
  65.1616621  85.7690525  47.0681477  65.0098228  86.8180561  45.9876204
  75.4525995  18.0370976  81.2037277  74.5555448  17.9893185  81.5342396
  75.5813932  18.9619662  80.9933412  52.1511983  46.8576170  89.1875619
  52.9772519  46.4567591  89.4580805  52.2805261  47.7947070  89.3337589
  85.6635761  96.1682796  40.8125448  85.1781845  96.9917393  40.7623291
  85.4779434  95.7298088  39.9821734  90.8234692  33.7422109  32.8733039
  91.5511703  33.9386773  33.4632945  90.0521278  33.7305403  33.4399843
  63.1902027  93.5941315   6.1084747  64.0935183  93.9105606   6.0970414
  63.2076740  92.8003979   5.5737674 105.7663250  87.0118046   8.0920941
 105.4834557  87.8020382   7.6319361 106.4253139  87.3198509   8.7142414
  76.2657356  70.9185743  58.4645081  75.8249044  70.3607845  59.1054249
  76.3298702  70.3758955  57.6786184  77.5738859  66.9005442  21.7317462
  76.6252899  66.7980719  21.6549110  77.8333473  67.3422432  20.9231591
  95.3872776  69.4066620  46.6682482  95.8670712  70.1797819  46.9654179
  94.5300865  69.4808578  47.0877171  76.4966488  45.6954432  17.3444462
  77.3652601  45.3379631  17.1601737  76.0793591  45.7654142  16.4858413
 106.8168926  53.0417633  26.6532278 105.9915924  53.3398867  27.0356297
 107.4919796  53.5021639  27.1517491   9.4114640  51.5476036  29.3908143
   9.8551419  52.3953009  29.4188571   9.7685102  51.1159468  28.6146569
  92.4217701  84.2457771  27.5697494  92.4082565  83.3635998  27.1985364
  91.4999962  84.4580841  27.7163839  44.7477769  23.4546019  87.3904389
  45.1594304  22.8765656  88.0328178  44.7391748  22.9448105  86.5803316
  25.9663773  73.4425688  45.9522533  25.5688548  73.1279230  46.7641687
  26.8057704  72.9850960  45.9035730  97.9507446 101.5162277  63.1239319
  97.6972389 100.6383514  62.8387785  98.8613033 101.6057873  62.8426933
  60.7867336  28.7458634  14.2675400  60.0196457  28.3949018  13.8151789
  61.5170908  28.5656738  13.6756444  74.5874548 103.6519241  33.8904405
  74.7861814 104.0426254  33.0395055  74.0608978 104.3126965  34.3402791
  86.1454010  52.3147202  58.3286333  86.2139606  53.2694101  58.3184481
  85.9435368  52.0794201  57.4230289  80.6404686  94.8905182  10.8997285
  80.9131336  95.8051395  10.9728467  81.3901711  94.4481850  10.5015790
  71.2063789  81.2105656   8.7268633  71.5426588  80.7516098   7.9571152
  71.0155392  82.0948601   8.4140795 106.4987946 101.1505985   3.3722302
 107.3976326 101.3821411   3.1383362 105.9583473 101.7906475   2.9091129
  95.0805378  62.1000004  39.4610143  95.1379967  61.1527634  39.5861888
  94.6150303  62.4161196  40.2353525   8.2942060  65.6426430  58.5545588
   8.6806443  64.9907780  57.9697800   8.2653859  66.4449167  58.0332518
  57.1848965  43.9318848  38.4216428  58.0499697  44.1783857  38.7489200
  56.6820717  44.7462368  38.4368610  72.8952837  66.2400627  35.6829047
  73.6191416  65.8129597  35.2248168  72.8809214  67.1300650  35.3308821
  60.1246881  46.4152575  33.4954476  60.4033375  45.6005001  33.9134908
  60.1824713  47.0723152  34.1891074  82.6338863  51.9486380  19.4562876
  83.1799984  52.7080441  19.2530668  82.3322678  52.1032000  20.3514838
   8.1258634  72.2167397  57.4358368   7.4416783  72.8662395  57.2737169
   7.7034619  71.5557098  57.9843330  63.2844687  69.4784307  22.5533605
  63.0676603  69.4895315  21.6211033  62.4552536  69.2831135  22.9898000
  18.0457258  58.9888979  90.2589729  17.8725099  58.0831934  90.0022009
  18.6878680  59.3001009  89.6209738  58.2139826  52.5781107  27.4230003
  58.0471087  52.9913902  26.5758991  57.3505449  52.5100231  27.8305173
  88.0887413  74.5687008  39.0875006  87.4469280  75.2688551  39.2062163
  88.8127899  74.9843550  38.6192918 100.1002216  80.3991604  19.9519622
  99.8796654  80.0068760  19.1071534 100.8885288  80.9136868  19.7786117
   9.6217874  55.4775286   2.7416083   8.7344030  55.2928209   2.4339511
   9.6183351  56.4152288   2.9337981  94.6947765  84.7783375  22.7418184
  93.9195347  85.3397179  22.7504301  94.8039055  84.5066643  23.6531472
  70.8890533  79.8854685  30.6908369  70.7861376  79.1414881  31.2842441
  70.0117588  80.2626801  30.6252670  73.0267954  83.4948158  29.0552473
  73.8509750  83.9518547  28.8877082  72.3748302  84.1926479  29.1200995
  78.2803631  56.2116385  34.6546388  79.1861010  56.0443258  34.9151635
  77.7926540  55.4575682  34.9859285  79.1261244  71.8123913  28.1854105
  79.7557354  71.6120052  28.8779855  78.7926865  70.9583330  27.9103947
  50.6055117  64.7626066   6.8113387  50.8133173  65.4411554   6.1689854
  49.7095490  64.9585390   7.0853680  81.1287880  94.5452595  27.6078987
  81.8992043  95.1132584  27.5995922  80.5867863  94.8662567  26.8871856
  78.7022352  57.0639849  44.5170259  79.4140148  56.4252186  44.5567179
  79.1374016  57.8963327  44.3324757  11.0507157  55.4712439  19.1070497
  10.3273824  54.8745155  19.2992508  10.9135869  56.2119007  19.6976888
  59.8490191  96.9201469  40.3241634  58.9556456  96.6220284  40.1531744
  60.3629827  96.1148357  40.3837299  87.6542759  74.4543600  56.0890818
  87.3483467  75.3609276  56.1168957  87.5426483  74.1918325  55.1753807
  96.9604397  99.9905872  17.1859980  96.2710190  99.9191952  16.5258169
  96.8491459 100.8668709  17.5547254  12.7710965  74.7038746  31.5698576
  13.3533624  74.9554729  30.8529902  12.0780328  75.3639984  31.5584230
 100.2383423  94.3757057  44.7775698  99.8998737  94.7585106  45.5869722
 100.1896191  93.4305573  44.9209499  81.9434166  84.1804218  31.4858890
  82.3641968  84.9898052  31.1959076  81.7086029  83.7288094  30.6752491
 100.3646374  53.7862206  28.5900116 101.0142136  54.2933750  28.1031036
 100.7891941  52.9432297  28.7492108  75.9803343  85.4196358  40.5105305
  75.9685230  86.3528728  40.7230377  76.8873978  85.2421379  40.2616024
  72.8069829  68.7788893  89.7292639  72.0192575  68.2617976  89.5609291
  72.5805425  69.3212630  90.4847665  71.6978359  81.4164925  14.2130303
  71.2897968  81.4708996  13.3488679  72.4445915  82.0132542  14.1632962
 100.0237751  92.1634293  24.6111083  99.4833660  91.5674210  24.0924811
 100.4583549  91.5982533  25.2498150  81.1293888  72.7166224  23.6032343
  81.6267109  72.6330280  22.7896500  80.2994728  72.2750187  23.4230947
 102.3280525  89.1977882  19.3024611 102.7538395  90.0231838  19.5341229
 103.0514526  88.5976028  19.1216266  79.5383167  80.0123215  31.3928580
  78.8701153  80.0360584  32.0778227  79.0478659  79.8607111  30.5849576
   3.8100056   4.5747203  24.5517588   3.7718443   5.4861754  24.8416185
   2.8952316   4.2945689  24.5213318  66.6930008  42.1965456  23.3955169
  66.5501928  41.3906240  22.8992057  66.4599514  41.9681501  24.2953801
  98.4451771  79.8360872  30.4585791  97.7344608  79.2377186  30.6889510
  98.3986282  80.5283833  31.1179686  65.3166199  47.3058319  18.3305752
  64.5748997  47.6784992  18.8072336  65.9734917  48.0020618  18.3274126
  61.4198971  60.8401537  22.3758650  61.1869383  59.9948359  22.7597904
  60.7111216  61.4267111  22.6401091  70.8948898  92.1165562  52.0254946
  71.6709471  92.0564270  52.5825834  70.5200005  92.9735279  52.2287035
   0.5986932 104.5020103  57.6523638   0.9930184 104.5175076  56.7802954
   0.7333329 103.6057186  57.9602098 107.3869133 101.0131359  39.6986198
 108.2100105 100.9493542  40.1830530 106.8793201 100.2549458  39.9879813
  91.8058395 104.2575359  34.5236206  91.9990349 103.3201218  34.5107460
  92.6644802 104.6794796  34.4931078 110.5468559  99.7621632  32.3702145
 110.4624462  99.0658665  31.7188406 110.4974079  99.3096828  33.2122660
  76.4398575  68.0228567  27.2989893  75.5846214  67.7211237  26.9927835
  77.0643520  67.6342058  26.6864634 111.8586445  64.8743486  50.7313299
 111.2504959  65.6115484  50.7853794 111.4222908  64.2455292  50.1565170
  92.5645161  86.4263821  41.4296627  92.9676914  85.8564949  42.0845795
  92.7370644  85.9912300  40.5947351 106.0363960  88.5673428  27.8794479
 105.1227856  88.6961842  27.6245856 106.5360355  88.7627411  27.0867205
 110.8610344 103.1981373  49.7639227 111.2445927 103.2237053  48.8873053
 110.5819893 104.0986443  49.9296236 107.0385838  88.0790806  16.0261405
 107.3937035  88.5270977  15.2584100 107.7969360  87.9371166  16.5926909
  71.5259600  98.4889603  20.1479888  71.2244177  99.3786049  19.9640441
  72.4660015  98.5818672  20.3026605  85.8062458  86.2831211  21.5727592
  85.5066681  85.5547523  22.1167850  86.5065670  85.9100151  21.0374427
  73.3268356  65.1203585  56.8511629  73.0118513  64.3930864  57.3879051
  72.6267624  65.7716227  56.8956518  91.0471535  90.2891445  36.8304944
  90.3579140  90.1904583  37.4873376  91.8068600  89.8497772  37.2126245
  13.1047109  47.5469065  36.2745547  12.9944852  47.9813671  35.4287839
  13.8452485  46.9544649  36.1447883   8.5349420 104.7412777  13.6600077
   8.0918649 104.2335415  12.9802096   7.8334764 105.0116062  14.2525434
  74.2200851  71.5598249  34.8385596  74.7035694  71.5203762  35.6637359
  73.8963223  72.4594784  34.7934341   2.0748094  90.5511475  29.3075824
   1.4374402  90.8400249  28.6544824   2.8118184  90.2213573  28.7934923
  10.0459198  20.3553599  41.3526630  10.4091457  19.6179408  41.8430758
  10.8055118  20.7651443  40.9387493 103.4444809  96.5701389  21.2377357
 103.4741592  97.5158310  21.3827491 103.2491493  96.2017250  22.0993304
  50.2615646   3.0616492  33.2454157  50.2808956   3.9435882  33.6169553
  49.3350414   2.8212661  33.2471776 103.4236622  48.5837841  20.5900288
 102.7965260  48.9896822  21.1885023 102.8819466  48.1921721  19.9048889
   9.0971044  93.0257034  19.7323084   8.5023549  93.0013084  20.4819131
   8.5547403  92.7656746  18.9876854  31.9450287   1.4339370  16.0792685
  32.8247455   1.1535567  15.8268523  31.4169601   1.3038749  15.2915752
   2.7935365  64.9588394  35.5961752   2.3016599  64.7583294  34.7998762
   3.5813573  65.4047537  35.2851653 102.0705700  57.4302816  17.5659359
 101.7986965  56.6642189  17.0604992 102.9358387  57.6502371  17.2207260
   8.8652328   5.3009337  39.3746948   8.1918529   4.7215575  39.0181613
   8.9219097   6.0188216  38.7440944 102.4618244  64.7521305  42.1392393
 102.9953384  65.5270004  42.3157930 102.9306126  64.2921495  41.4428997
  87.4034119  63.1155157  46.3919020  87.4091816  62.7807903  45.4951525
  87.4545860  62.3325396  46.9401455 111.0362483  15.6795424  54.0199995
 111.5985299  16.2195033  53.4645557 111.3350201  14.7836036  53.8642454
  85.1918507  78.3217144  26.0528970  85.0798798  77.7443361  26.8080997
  84.4948101  78.9715433  26.1427927  17.5271229  17.9053229  63.5687685
  17.8523449  18.7732142  63.3295298  18.2209400  17.3055953  63.2945919
 111.8418789  85.7894325  51.7769575 111.5672493  86.5608311  51.2812138
 111.4695835  85.0504589  51.2957716  89.6069050  52.3713589  51.6839075
  89.4485664  52.8711700  50.8830690  89.6683025  53.0342007  52.3717308
  76.0768461  28.3252074  90.5327108  76.5381669  28.3020712  89.6943358
  75.2222394  27.9362799  90.3466459 101.0245609  90.2784634  -0.1619454
 100.9132385  91.2112713  -0.3455734 100.3918076  90.0938129   0.5321424
 103.9001465  91.3571548  21.0343313 104.4381809  91.4591789  20.2492523
 104.2783833  90.6037140  21.4876556  78.9227104  67.6121283   5.7836920
  79.3133307  66.7669964   6.0059518  78.4220409  67.8566790   6.5619969
  61.1134911  78.5056305  12.7363348  60.5768490  77.7399111  12.9410887
  61.5700436  78.7037134  13.5539889  91.9488907 100.1379490   9.6444482
  92.3294258 100.6806278  10.3350472  91.8770885 100.7243061   8.8912767
  75.6813812  98.8772011  31.9194746  75.4512501  98.3507442  31.1538911
  76.6341829  98.8082695  31.9799232 101.1741257  78.3946991  63.6865616
 101.2906742  77.4839354  63.4160852 100.9417820  78.8560152  62.8806829
  92.1223640  85.5319786  52.2179651  93.0557442  85.4700565  52.0149946
  91.7437840  84.7334576  51.8501759 104.6122933   5.5537814  31.5431428
 105.4172183   5.8068484  31.0911608 104.6198989   6.0668391  32.3511910
  20.7701591  28.2470435  39.0281606  19.8246483  28.3427829  38.9138508
  20.8631805  27.7132529  39.8172379  88.8623524  57.9751348  18.5523009
  89.7951984  58.1655455  18.4534049  88.6673641  58.1990290  19.4622898
  96.3265228  83.1624603  52.2515440  96.4269066  82.2282410  52.4342918
  96.9056320  83.5931015  52.8803587  11.4071420  62.9325676   0.4037679
  10.6895211  63.2491016   0.9524444  11.6001275  62.0584059   0.7426450
  22.4205831 104.6723175  14.7996283  22.8308442 104.2810917  15.5709028
  22.9070523 105.4839420  14.6552980  51.9156503  30.0866820  87.9282475
  51.6361093  30.9604765  88.2013443  51.7212152  30.0548674  86.9915435
  70.1846313  83.6668777  36.7396808  70.8563995  83.7122059  36.0593057
  69.4175053  84.0834427  36.3469720  -0.0742289 100.9075546  51.7289257
  -0.2385756 101.5463543  51.0352659   0.8187059 100.6029415  51.5673494
 105.1501846  69.0273094  74.0437603 104.9730492  69.7255659  73.4134483
 106.0081863  69.2452908  74.4078445   3.0492547  97.9253387  36.6967320
   3.4956315  98.4084511  36.0013223   3.3252099  97.0172119  36.5726519
  73.8791417   7.6312138  91.2617346  73.1283616   7.2583558  91.7238473
  73.8728379   7.1997858  90.4072962 108.4467793  86.3694191  28.2098508
 108.0770683  85.7150936  28.8026309 108.4200287  87.1862888  28.7080956
  81.2994385  64.7282934  23.2814622  80.7260036  64.7044897  22.5154066
  81.3197803  65.6505728  23.5368490  57.4527553   6.8849105  21.5834284
  58.3196644   6.5277118  21.3908148  57.5902561   7.8305549  21.6389132
  73.3498143  42.1769453  88.6245307  74.0851163  42.6821162  88.2775956
  73.6267328  41.9250800  89.5055050 102.4820518  59.4275713  28.4670806
 103.4032536  59.1959572  28.5853100 102.5032139  60.2672720  28.0080771
  88.6753464  78.2554579  47.3814726  88.2790661  78.4731865  46.5377998
  89.4845009  78.7662840  47.4049711  12.2669080  94.6471405  38.6281538
  13.1238797  95.0726891  38.6552668  11.8280652  94.9412727  39.4263625
  98.8090324 104.3415642  32.9521585  98.8287354 103.9723015  33.8350463
  98.7082958 103.5828018  32.3773885  78.1206942  91.8347359  51.3059521
  78.5926294  91.0667706  50.9838772  77.3128414  91.8520260  50.7928085
  99.0687466  51.0597277   1.5103787  99.1767883  51.7476034   0.8535792
  99.1170788  50.2435684   1.0126074  78.7767744  74.2841101  55.9258175
  78.7348175  75.0810623  56.4543486  78.8289261  74.5979071  55.0230217
  80.2629852  89.1375923  24.4782615  80.9866333  89.5105839  24.9816966
  80.1421642  88.2618809  24.8453450  45.1615190  50.3089739  77.2849393
  44.8078393  49.5327498  77.7192390  45.4826402  50.8581664  78.0001354
  60.2232746  27.0400256  46.7993307  61.1139873  26.7091769  46.6836309
  60.2851871  27.6396483  47.5428724  10.0847581  59.8793268  33.5621881
  10.4255250  59.1882086  32.9943252  10.6737760  60.6199360  33.4180140
  82.6837301  61.0999419  84.8722935  82.0835160  61.7034174  85.3102309
  82.1750497  60.7421805  84.1446310  69.0042210  91.5217590  23.2055211
  68.5313988  90.7109547  23.3933282  69.7696066  91.2418747  22.7034354
 110.2992821  67.6060295  27.5739002 110.7010937  67.9782057  28.3589220
 110.3959846  68.2878780  26.9090986 111.3144875  56.6383839   9.7849596
 111.3203430  56.4856672  10.7298803 112.2367096  56.7515564   9.5549095
   9.3001179   4.4379539  35.4011178   9.7119907   4.5147342  36.2617564
   9.6084885   3.5975856  35.0621295  18.1694520 105.1505661  30.1466489
  18.1204128 104.2722034  29.7694087  17.8509128 105.7275009  29.4524527
 109.7354174   8.2162494  41.0321903 109.4462252   8.0411929  40.1366711
 109.2050505   7.6317328  41.5737391  78.8503313  61.7088413  56.0207272
  77.9690170  61.8691254  56.3581085  79.1461611  62.5637150  55.7078266
  57.6962284  20.0461787  64.3805122  57.5094608  20.9237498  64.7140217
  57.1253876  19.9533099  63.6177874  94.5121002  72.4307299  35.3398609
  94.7345161  72.8865290  36.1516547  93.9689541  71.6939878  35.6199241
  82.7917862  66.3531876  10.0617659  82.2835064  66.9352627  10.6266403
  82.3794174  65.4959488  10.1681995  68.8773823  76.3997889  52.4028301
  69.1792631  76.4233971  51.4947844  68.7506390  75.4694605  52.5889826
  96.8074894 105.2535820  29.1545916  96.4886951 105.2797413  30.0567675
  96.0295391 105.0610924  28.6311603 106.4894772  79.5914459  72.0658398
 107.0088673  80.2891922  71.6663218 105.8238506  80.0512791  72.5774240
   7.3446229  49.8883057  26.6080999   7.6292947  49.1745472  27.1788383
   7.4346212  49.5370483  25.7222390 105.4521656 101.4017963  73.0787945
 105.6665039 102.1558475  73.6280727 106.2842464 101.1555576  72.6747704
  15.8385518 104.9874115  17.5365615  16.5431264 105.5836201  17.7902210
  15.9352925 104.8916626  16.5890884  76.6045761  95.9678173  31.5586662
  77.4317932  95.9066963  31.0809565  76.4624119  95.0869179  31.9051242
  95.6471252  93.4273911  41.6079998  95.4766846  93.3024502  40.6744194
  96.2768078  94.1475010  41.6422415 108.1226635 105.2341843  43.4638023
 109.0520954 105.2581787  43.2361555 107.6692295 105.2465248  42.6209116
   2.4202684  70.4497766  44.0464449   2.1514848  69.5524645  44.2434692
   1.6051343  70.9514809  44.0557384 101.5469837  70.3017664  31.5993357
 101.0742188  70.2414083  30.7692289 102.4246883  69.9764061  31.3993025
  12.7105477  50.9389877  14.6146417  12.8009847  51.0744858  15.5578768
  12.3868898  51.7762756  14.2823374  95.6573200  93.8635826  33.5114861
  96.1804390  93.1689930  33.1113434  95.9736061  94.6683502  33.1009436
  96.6332912  76.1835289  49.3658018  95.9354019  76.2951517  48.7202597
  97.3819065  75.8711815  48.8576174  90.1671696 101.9409943  23.2081366
  89.2345142 101.8937588  23.4182525  90.2772522 101.3407230  22.4707127
  34.0902662  32.4241091  50.4576731  34.0182924  31.5568568  50.0590372
  35.0054788  32.6723982  50.3273916  98.0981827  95.4970932  26.0578275
  98.2121277  96.2809753  25.5204511  97.2555828  95.1371956  25.7808065
  91.0031700  72.7814341  15.5005121  91.5680504  73.5121918  15.7517660
  91.5916538  72.0277596  15.4570079  95.9122944  97.6069164  83.6141205
  96.3843441  98.3518600  83.2420349  96.6002941  97.0050144  83.8980484
 111.3395405  64.8424864  20.3312516 110.6894112  65.2922964  20.8709121
 111.4311886  63.9798546  20.7358479  50.8093643  66.2159491  14.8948646
  49.8662329  66.3069963  15.0306499  51.1445570  65.9120607  15.7383871
   8.6737779  81.9406414  37.8467894   8.9737180  81.1060047  37.4867058
   9.4536927  82.3214436  38.2504511  97.9666996  89.6777058  35.0049281
  97.4574471  89.9670601  34.2478490  97.7320766  88.7560654  35.1133227
  88.9898109  58.4044027  39.7664094  89.8675442  58.7392616  39.9499536
  88.6893177  58.0489445  40.6028223  80.9632492  83.4540558  16.3599658
  81.7888832  83.2694530  16.8077159  81.1915398  84.1032410  15.6946325
  36.8674922  83.8401031  46.5966368  36.2672329  84.0810776  45.8910513
  36.3589692  83.9671707  47.3975658 100.2678871  68.9255238   9.2534345
 100.9404850  68.9504862   9.9340373 100.1651382  67.9953671   9.0522403
  23.3165268   1.7119903  37.2368670  24.0993790   1.8767566  37.7624345
  23.6075596   1.8243045  36.3319278  90.2884483  69.7177505  23.4876394
  89.4975853  70.2279043  23.6623240  90.6101704  69.4702625  24.3545198
  81.4583015  98.0508041  14.4635427  80.7876015  97.9501534  13.7880671
  81.4716721  98.9896107  14.6497917 102.2404289  63.2221317  32.4224639
 102.0839882  62.2778559  32.4325466 101.3654518  63.6100292  32.4357748
  94.7671890  39.4322348  45.7142687  94.0115738  39.0257978  45.2898979
  94.3974876  40.1567221  46.2189198  82.8039265  75.0768757  41.2004614
  82.2773838  75.8541965  41.0139847  83.2950401  75.3040266  41.9900370
   1.6681150  71.9383955   6.2534165   2.2670129  71.6133165   6.9256401
   1.2164262  72.6724672   6.6697669  88.5044384  89.8481178  22.7276659
  87.8233242  90.4865551  22.5162077  88.0244923  89.0489483  22.9449320
  71.5044216  11.3011569  26.9578266  70.9243683  11.3459224  27.7179384
  71.3460926  10.4332465  26.5864968  77.0444393  99.9073982  29.3217564
  76.3820505 100.1679516  28.6817741  76.8241739 100.4037094  30.1100349
  38.1076435   5.9918612  36.9045711  37.9791645   6.1225909  35.9650850
  37.8000168   5.1000327  37.0665693 109.1428852  99.6400928  47.0129013
 108.6292648 100.2807713  47.5047970 108.5356903  99.3000793  46.3556814
  84.0313100  33.6370970  88.1258804  84.6124410  34.3974711  88.1444991
  83.7468290  33.5753371  87.2140214  68.1686687  73.2104349  44.3500233
  67.4733019  72.8815413  44.9196911  67.9932356  74.1484213  44.2749739
 111.1133099  94.2054176  34.2193317 110.5496693  94.3777561  34.9735522
 110.6674767  93.5056305  33.7420917  17.4251751   0.3168887  36.8769431
  17.2072224  -0.0063401  36.0027289  16.7757515   0.9987182  37.0489979
  37.3458385  24.6283175  88.6542970  36.6533279  24.6937157  89.3118539
  37.1548557  23.8160445  88.1852868  16.4365724  44.4431257  32.3896599
  16.9826749  45.1725817  32.0965791  16.8682626  44.1240597  33.1821656
   8.7406067   9.5169086  34.2466497   9.6082405   9.9206275  34.2253113
   8.9034752   8.6133307  34.5173049  92.3226166  49.7286463  17.7372706
  92.6912785  49.6614599  18.6180687  91.4176178  49.4319582  17.8331387
  69.1573477  95.3691578  13.9986897  70.0318146  95.5027580  13.6330557
  68.7146902  96.2086105  13.8737679  23.5824112   3.0107993  52.9918289
  22.6774792   2.9078883  52.6973248  23.6826424   3.9521522  53.1333733
  86.4618206  60.3718758  17.3693800  86.8461323  60.7535267  18.1586051
  87.1962452  59.9461126  16.9271445   1.5737966 103.1065178  26.2322927
   2.2532609 102.4557400  26.4085078   0.7512143 102.6285362  26.3377810
  73.8980246 100.7957458  22.0191264  73.9585018  99.8682022  21.7905617
  73.9464712 100.8105278  22.9749846   9.9022439 104.1682434  49.4583797
   9.2610791 104.8771286  49.5096493  10.5161622 104.3486214  50.1702785
  90.0467777 103.2197380  41.8720579  90.4052544 104.0221310  41.4927387
  90.7045650 102.9413986  42.5093126  94.6646881  96.3657761   9.4050157
  94.6589756  96.6422176  10.3214085  93.7420750  96.2274075   9.1908276
   5.1078752  53.0027056  33.6741495   5.5379537  52.2571564  34.0929866
   4.9411443  53.6160851  34.3898249  96.1756611  51.9103813  23.5925555
  96.9032288  52.5323677  23.5902715  95.8171844  51.9578648  22.7062869
  38.6015891  48.1715609  86.4821735  37.7161550  48.4714629  86.2764877
  38.6700582  47.3171069  86.0562128  99.2900753  65.1297951  47.1778679
  99.4795990  64.2692614  47.5517559  99.7819614  65.1478624  46.3569260
  97.8564835  87.0408821  26.3475323  98.3789635  87.3950768  25.6279516
  96.9584370  87.3006535  26.1419487  90.3956032  71.1486006  38.4765029
  89.4889641  71.4310312  38.5967660  90.8177090  71.8822432  38.0294752
  15.8396676  80.1753426  43.7339067  16.6706708  80.4226112  43.3282900
  15.2221254  80.1265430  43.0041838  14.8583940  92.4532509  45.4771614
  14.5805028  92.2912884  44.5756197  14.9743035  93.4021950  45.5252552
  54.4958257  26.1915041  90.3993174  53.9924382  26.8561627  89.9291439
  54.0725660  25.3640582  90.1703805 110.3426838  78.8878584  20.5113673
 109.8210812  78.9054918  19.7089660 111.1966515  78.5555887  20.2346587
  97.1660043  17.8992862   5.5226189  97.8195430  17.2404307   5.2880329
  97.6787329  18.6438006   5.8373183  92.0459175  95.8190632   8.2982826
  92.2008705  95.1442432   7.6373529  91.3421822  95.4648113   8.8418704
 109.1509914  87.0204258   2.9302984 109.9301815  86.5495396   2.6347125
 108.7461185  87.3427963   2.1250768 106.5142250  62.6806498  48.1452417
 107.2504425  62.0691299  48.1610489 106.2035370  62.6581144  47.2401476
  43.6540508  99.8151112  45.9299660  44.2553425 100.4458237  45.5338955
  44.2244816  99.1531563  46.3206816  81.3322353  76.5682411  18.2385600
  81.4251423  77.2780991  17.6031852  81.4681816  75.7702446  17.7277255
  74.9994612  67.7304125  33.9406157  75.0735521  66.7868137  34.0833306
  75.5961514  68.1171465  34.5814204  69.3499231  72.2444963  57.1301937
  69.4405317  73.0639172  56.6438055  69.6890640  71.5747309  56.5363646
  81.3414574  83.6097813  37.6308227  80.7131100  82.9280376  37.8688145
  80.8076382  84.3018436  37.2405505 103.3946991  79.6520376  24.7307134
 103.1313610  79.4781494  25.6343985 103.2303047  80.5871296  24.6090436
  82.6783276  70.0821590  37.2363305  83.3654308  70.7328415  37.0923400
  82.9346371  69.3384647  36.6909385  99.3481636  95.7836151  18.0201054
  99.1854954  96.7123604  18.1850255 100.0009727  95.5348969  18.6744905
 111.4239025  79.3915653  51.5369511 110.6031418  79.7808218  51.2351894
 112.0570946  79.6067953  50.8521271  91.9095039  75.9665489  29.2128515
  91.4442158  76.0291910  30.0470066  91.2925243  76.3123560  28.5678864
  70.7069206  86.9901752   7.9467082  70.3889322  87.0013237   8.8494766
  69.9839211  87.3511028   7.4336356 103.1423331   4.1431922  26.7245841
 102.9348994   3.4011859  27.2925830 103.6620904   3.7642402  26.0157275
  33.0620908  35.5675341  51.7133737  32.7752923  35.3382613  50.8293962
  32.5235748  35.0239016  52.2884369 107.0652676  65.2921772  48.7435484
 107.5838280  65.7189512  48.0614996 106.5609837  64.6245718  48.2785416
 108.3093929  62.9833364  20.5757666 108.4902000  63.6933422  21.1917448
 108.6374569  62.1975660  21.0129952  63.9281225  89.1372013  26.2730312
  64.6351242  89.7237968  26.0041738  63.2814693  89.7128773  26.6812849
  67.9588318  69.6791601  33.9977217  67.8177118  70.2626514  33.2521629
  68.8415432  69.8892307  34.3025470  78.8852835  82.2417736  38.5140085
  78.2552767  81.7306137  38.0060291  79.2118168  81.6311073  39.1748381
 104.1402149  41.5459108  22.4635267 104.6599388  40.7532263  22.3302293
 104.4973469  41.9350576  23.2618046   1.8277505  96.3084793  19.6090126
   1.0478929  95.8211422  19.8746228   1.5084317  96.9370079  18.9615333
   9.3782905   4.8424644  51.4226770  10.2285580   4.4478148  51.2289429
   9.1171364   5.2629107  50.6033754  66.3952874  50.1876189  80.8667862
  65.5637979  50.1216532  81.3363695  66.1838483  49.9334837  79.9684858
 102.6092434  76.8128109  30.0322366 102.7401161  75.9011793  30.2930665
 102.5592899  77.2935200  30.8584642 105.1426411  59.0950680  39.4160295
 106.0000896  58.9637566  39.8207092 104.7613335  59.8302317  39.8959923
   5.1267580   2.5591964   7.8600544   4.3283752   3.0363006   7.6338094
   5.0020126   1.6896361   7.4798787  85.5980015  64.0817833  28.2450390
  85.8233738  64.9971819  28.4108114  85.2514362  64.0782356  27.3527861
 109.1176891  95.0637722  36.0785222 109.2697144  95.5076504  36.9128442
 108.6044407  95.6877708  35.5652738  35.6157211  13.8045711  49.7988129
  35.5322555  14.2940444  50.6171513  36.3599781  13.2204074  49.9439716
  15.7520679  53.8822383  58.8798285  15.1925758  54.1716117  59.6005678
  16.6287807  53.8352984  59.2611504  61.2021399  73.5245132  45.3347778
  61.4776373  73.8709688  44.4860697  61.7335272  74.0016031  45.9721518
   7.9208711  99.5439243  45.0745964   7.0125344  99.5564175  44.7729445
   8.1180242 100.4580784  45.2787924   6.6397241  82.2043514  26.3959169
   6.9026330  83.0154705  26.8308949   5.9758523  82.4766350  25.7623768
  41.8599942  97.2443581  57.9273176  41.3532212  97.9798603  57.5831366
  41.4830545  97.0771599  58.7911415  19.3191532  20.0589770  54.3116951
  19.8602966  20.2997703  53.5597515  19.6546177  19.2050094  54.5845413
  90.0947952 105.4070663  12.0639014  89.8480129 104.6266270  11.5676844
  90.9183693 105.6921005  11.6680253  34.9855236  21.6692847  15.0934577
  34.8720364  20.7671660  15.3926873  34.8407463  22.2011966  15.8759785
   6.4295296  18.7002582  45.5838776   7.1059421  18.4514445  46.2137938
   5.9274105  19.3830222  46.0287905 100.4823208  64.3480396  40.2374649
 101.1904812  64.4751310  40.8688021 100.7604885  63.5968018  39.7135425
  29.0182690  28.6189860  24.3083453  29.4847969  28.2802505  23.5442495
  28.3026890  29.1381091  23.9413476  27.4865296  76.7727470  29.4100094
  27.4975732  77.7042913  29.1901398  28.4069493  76.5477800  29.5458221
 108.6745834  94.9925709  26.9781804 108.6679077  94.9535942  27.9345632
 109.3745708  95.6108761  26.7685461  98.1676197  98.1694794   7.9631937
  98.9720249  98.5564995   7.6176822  98.3276558  98.0834675   8.9029920
  57.6098541   9.4654006  20.7177663  56.7565540   9.5495910  20.2922845
  58.2390312   9.4737262  19.9964476 102.2112942  96.4851761  30.1817322
 102.8702259  96.7255020  29.5303583 101.4153576  96.9318962  29.8933434
  40.7821278  19.7927779  50.0257158  40.3990463  19.0709991  50.5242252
  40.1488785  19.9652881  49.3289614  87.8965664  56.8957281  41.7110682
  88.2081318  56.6116333  42.5703955  86.9873333  57.1553421  41.8597698
   5.7944158 101.4179230  53.1592321   5.0952485 101.5011311  53.8076735
   5.4653504 101.8845558  52.3909855  54.2693619  10.9142226  42.3954582
  55.0087551  10.3477592  42.6160097  53.8805679  11.1404246  43.2403803
  34.5198730  14.3598384  25.8441329  34.2945007  15.2865333  25.7623625
  33.9244465  14.0268821  26.5155768  95.7709980  96.9890404   7.2353208
  96.5196991  97.5617790   7.4016076  95.2666283  97.0119667   8.0485344
   7.8299287  87.2316456  31.5150499   8.5343698  87.8221035  31.7821550
   7.4399236  87.6547050  30.7500982  39.0982155  15.5978316  23.6098504
  38.7133411  14.7382754  23.4387875  39.8337368  15.4186458  24.1956282
  94.7168350  89.1504002  87.2900391  95.6315708  89.4202995  87.3715019
  94.6391487  88.8361168  86.3892555  88.5515499  99.6013832  36.4318180
  88.3473969 100.5339336  36.5018511  89.1989040  99.5500660  35.7285881
  21.1211113  14.4520110  61.3978291  20.4531578  15.1068038  61.6010952
  20.6649021  13.8026256  60.8626604   0.5527642  90.4458141  47.5831413
   0.0842240  91.1600971  47.1512890   1.0405210  90.0189590  46.8787861
  65.4634146  48.9292519  11.2287521  65.0312953  48.0800717  11.1371517
  65.5083804  49.2726128  10.3363895   9.7079900  86.5868568  68.5963917
   9.5230535  85.8752918  69.2093372  10.5140641  86.3192940  68.1549406
   1.2607339  72.9707909  55.4840755   1.1427358  73.9179182  55.4115725
   0.8600381  72.6179886  54.6895981   5.5346493  36.3901538  26.3956642
   4.8206524  36.0511226  26.9355655   6.2107853  36.6433066  27.0241547
 109.5169830 100.3029251  10.4125881 109.5930767  99.8106289  11.2299502
 110.1893520  99.9280548   9.8437124   3.5714677  82.5399303   3.9767948
   4.2151120  82.0811749   3.4368926   3.0927518  83.0937862   3.3601099
   1.8294194  98.0829525  81.9048786   0.9321263  98.0486107  82.2364330
   1.7317155  98.2322788  80.9644604  90.6526089  65.5321932  13.4385657
  90.2790928  65.8690643  12.6241720  90.2761364  64.6569729  13.5307097
  45.7521156   8.8247794  63.9904737  45.1173309   9.2231673  64.5859241
  45.2561478   8.1483478  63.5292864 111.2591934 103.0724239  53.9870930
 111.1724758 102.4021721  54.6649361 111.6022205 102.6018238  53.2274199
  98.6352921  84.5856094  60.8390141  98.9530754  83.7214851  60.5772209
  99.1478062  84.8035431  61.6175175  83.5253906  69.2722034  15.8414030
  82.6598358  69.6479177  15.6805158  83.4813404  68.3962917  15.4578972
   7.3352292  59.7078323  28.0190325   7.0569661  60.6054878  27.8373361
   8.0709890  59.5602322  27.4248075  86.3736248 101.4233208  16.0068965
  87.1309090 102.0061493  15.9515011  86.5937138 100.6894684  15.4330897
   0.3877834  11.1590213  33.7898874   0.0853876  11.9695682  33.3802414
   0.9714559  11.4483756  34.4911981  99.8652554  75.2776957  45.6814051
 100.5697346  74.6924067  45.9595966  99.8889351  75.2433586  44.7251129
  78.6938381  98.5342312  64.0114307  79.5981264  98.7553596  63.7887287
  78.7628126  97.7240276  64.5164585  67.9747581  90.8060646  78.0626678
  67.2580099  90.7601070  78.6954308  68.5093403  91.5425491  78.3593893
  16.3680509  90.4929352  51.6072655  16.6353372  91.3350201  51.2389231
  17.0664075  90.2679157  52.2219992  22.5102142   5.6414145  23.9597249
  23.2798675   5.0725574  23.9436698  21.9215492   5.2301330  24.5926094
 108.2480193   4.1131133   6.1448491 107.4602986   4.6374911   6.0008103
 108.1144477   3.7110251   7.0031720  97.8353596  80.2775097  21.4018869
  98.6692047  80.4439449  20.9622979  97.5868416  81.1242867  21.7726183
  68.8506173  63.6982466  89.9287345  69.2254686  64.0243937  89.1106011
  67.9177713  63.5952784  89.7404975  12.7688030   8.7305278  33.4116220
  12.6661972   7.8717059  33.8216639  13.5162929   8.6270160  32.8227496
  39.6825242  22.0978832  34.2522883  38.8032341  22.1882248  33.8849783
  40.2687645  22.2766566  33.5170388  13.0029439  96.9652730  49.4452667
  12.3339223  96.8719786  50.1234579  12.5080632  97.1129113  48.6393356
  47.2249746  41.0411930  16.8044007  46.5310287  40.6574345  17.3404968
  47.2672701  41.9551373  17.0857394   9.2083453  94.9134892  14.4053590
  10.0073289  94.4069093  14.2596483   8.5824012  94.2786103  14.7537243
  33.2029271  27.9864240   5.9928626  32.8807807  28.3743310   5.1792407
  32.6310086  27.2335219   6.1421275  68.1099653   5.9135884  14.9134266
  68.2597494   5.1744956  15.5029488  67.5133371   5.5717349  14.2475414
  81.1548229  40.0181217  71.9426060  81.3777347  40.9210486  71.7161846
  81.0596080  40.0265510  72.8950214  27.0427704  10.3124642  27.7868128
  27.7288532   9.7965300  28.2102919  26.2611294   9.7627193  27.8420162
  82.8852935  52.7552144  82.1376234  82.8950925  53.6231030  82.5412387
  83.6403652  52.7561231  81.5493226  71.0191603  43.5069860  89.1822188
  71.9244380  43.1977470  89.1494273  70.6167074  43.1543584  88.3885461
 110.1908442 104.6775514  17.6877654 110.4233190 103.7527582  17.6044309
 111.0163613 105.1445936  17.5588393 104.7368903  47.7835990  88.5961875
 105.2241941  48.1154035  87.8420842 105.1144071  48.2429997  89.3462953
  20.2433872  94.9823719  38.2734799  20.2739286  95.9222281  38.0946803
  19.3896770  94.8442358  38.6837602  60.8649607  85.0910528  75.8162558
  61.6309018  84.7632487  76.2875402  61.0313411  84.8639138  74.9014020
 103.3022499  10.2338541  42.8926897 102.9395390  10.4666686  42.0380163
 103.1349754  11.0005629  43.4407806  92.6549335  73.9941604  82.0937890
  93.3670087  73.7116630  81.5198779  91.8963619  73.4893758  81.8005383
  44.1045761  14.0087128  49.1717625  43.3486319  13.7273276  49.6871233
  44.6201992  13.2117951  49.0481186  45.6351805  28.9073038  17.4863625
  44.9602652  28.4710383  18.0063558  46.4447975  28.4491897  17.7119422
  34.9393271  87.3609979  71.1605096  35.8356856  87.4753339  71.4762485
  34.6906088  86.4856775  71.4574683  50.1446342  18.8305449  60.7455826
  50.8356619  19.4886446  60.8205366  49.5656681  19.0056133  61.4874649
  40.4448080  18.2630551  29.6348858  39.9214315  17.6072741  29.1741705
  40.6515408  18.9168596  28.9670277   3.3048295  86.2720078  31.9295359
   3.7665176  85.6435650  32.4846363   2.5698590  85.7770675  31.5674806
 102.7188488 101.1653593  35.3219700 102.9310390 100.2883738  35.6415081
 103.3175226 101.7437851  35.7944608  50.9735059 100.7403061  17.2674525
  51.0474824 100.9972268  16.3483489  51.0177182  99.7842341  17.2531962
  32.3701262   6.8409854   5.7843566  31.4305139   6.7388254   5.6329441
  32.4284577   7.3540348   6.5903407  39.0061998   2.3497322   8.8234335
  38.9798069   2.8173608   7.9886526  39.2711949   3.0126500   9.4610453
  63.0072308   1.0741952  55.0962973  62.7495432   0.2798147  55.5640459
  63.0437374   1.7497015  55.7734919  43.4380293  38.0388355  25.4432297
  42.6177120  37.6687193  25.7693028  44.0297413  38.0091667  26.1950469
  17.4386024  86.3778788  65.6054497  16.7553090  87.0419937  65.6965351
  17.1822070  85.8748823  64.8324776  30.3537297  18.2244873  28.9542150
  31.0710144  18.4725785  28.3709621  30.4975510  18.7440550  29.7451615
  45.4991292  86.5534812  29.0918541  45.1936006  87.3988813  29.4207644
  46.2768506  86.7643684  28.5752201  51.2112999  25.9401131  12.8266191
  50.6772137  25.8813047  12.0344555  52.0944262  25.7102633  12.5376761
  14.1901968  33.2617981  75.1155961  13.6444567  33.7463493  75.7349586
  13.9606665  33.6240084  74.2598212  29.5339322  33.1541181  29.3682241
  28.8070822  32.5404096  29.2620015  29.1484189  34.0136504  29.1984749
  16.8874633   3.0541196  73.4486818  16.1579072   3.6165357  73.7088108
  16.8827152   3.0828473  72.4919224  68.9623642  67.6431847  24.2077541
  69.5395327  66.9952917  24.6119070  68.5136318  67.1631336  23.5117531
  24.3673730  15.7872438   8.3904147  24.5103812  16.7232370   8.2500720
  23.6951828  15.5492604   7.7518570 103.1471010  95.4254079  23.6116576
 103.3030745  95.6778443  24.5217013 103.6729523  94.6350747  23.4888387
  57.1306086   9.9234903  26.6697073  57.6794720   9.7977936  25.8956385
  56.4680147  10.5565608  26.3932610  54.9353456  13.2890069  49.2133665
  54.1916037  13.4083986  48.6227608  54.7097921  12.5147963  49.7290754
  44.0731907  28.7756944  45.3753471  44.9781466  28.6085629  45.6386900
  44.0864658  29.6660662  45.0242186  85.5852170  77.6671703  88.4588522
  86.0701318  77.2673924  89.1808394  85.0470682  76.9568570  88.1094426
  66.5357971  16.5666687  10.7973349  67.3318052  16.9916832  10.4780138
  66.7088318  16.3992035  11.7237508  81.8774223   3.3240733  75.8942986
  81.1101532   3.4170881  76.4589977  82.6076984   3.2011914  76.5007830
  23.4178161 104.0609455  22.5797534  23.5240602 104.9159600  22.9967594
  23.3003282 103.4518599  23.3087540 106.8881702   5.7356405  12.1940303
 107.8260612   5.8391142  12.3549509 106.6639805   4.9036837  12.6109445
  46.4744282   0.3243895  26.7376828  46.0974932   1.1146047  27.1246076
  47.0936918   0.0076672  27.3952770  28.8843488  87.4680441  63.2450771
  28.4643840  86.9017762  62.5976181  28.3781194  88.2799548  63.2174301
  40.8545064  70.7942682  11.8783379  41.2869310  71.3971334  11.2735295
  40.5496263  71.3512498  12.5946140  33.8764476  96.5650606  67.9124260
  33.3295345  97.0948529  68.4924650  34.7221040  97.0134306  67.9050064
  48.3216142  93.8386255  48.6833096  47.8213262  94.5835560  49.0165138
  47.6736211  93.1416410  48.5805607  43.8326978  88.7437314  46.9021797
  42.9573774  88.9711278  46.5885878  44.2045736  88.2044905  46.2042141
  40.0182342 104.1334365   1.3016218  40.1028346 105.0273941   1.6331552
  39.1126537 104.0756689   0.9969583  51.4957619  12.1184456   4.9866772
  51.0900450  11.5442204   4.3371463  51.8888998  11.5206647   5.6225497
  64.7981930   6.7471164  19.1230154  64.4116116   6.6881841  18.2493377
  65.6718302   7.1089447  18.9744520  38.1094932  95.8345568  20.1728630
  37.3301458  96.0379547  20.6900454  38.5281991  96.6828572  20.0269103
  10.3458499  80.6782514  36.2452340  11.1603307  81.1266166  36.4728737
  10.4637241  80.4163915  35.3321266  36.9877385 103.6010244  23.0126667
  37.4373054 102.7690428  22.8645825  36.1211347 103.4772235  22.6254916
  58.2672930  10.2462828  41.8479061  57.9231787   9.8926169  42.6681089
  57.5163555  10.6763077  41.4387560  78.0771494  12.2774220  51.3488865
  77.1610355  12.0274436  51.2285757  78.5680866  11.4707959  51.1921549
  74.1413493  62.1904642  84.1351581  73.6522670  62.0319052  83.3277619
  75.0199766  62.4294181  83.8399518  60.7736635  19.9919772  45.4679775
  60.1337004  19.2873192  45.5686522  60.2852345  20.7011986  45.0500298
  19.6205806  72.5556189  13.6364865  19.6382570  71.6396337  13.9137793
  19.4419812  72.5180083  12.6968491  68.3768463  11.9118309  18.3195341
  68.2353830  11.7795038  19.2569292  68.0907774  12.8110170  18.1587243
  94.7608848  43.0137051  78.3900702  95.1140876  42.5472767  77.6324904
  93.8241191  43.0902280  78.2088387  25.3198814  82.8078061  21.6292930
  25.2893447  83.5573965  22.2237802  25.3653526  82.0458013  22.2067952
  14.3991136  91.8862957  17.3681748  14.2457198  91.4870089  18.2244885
  13.6197376  92.4187416  17.2091019  80.8017006  54.5708829  25.9157586
  80.8945080  55.2719956  25.2707267  80.1611229  54.9059134  26.5431714
  93.1685925  20.5489993  15.1324213  92.5302792  20.1460624  15.7210004
  93.8855267  19.9163771  15.0873303  45.7925797  20.0129414  44.7317314
  45.1624918  19.2934549  44.7712421  45.2877378  20.7873368  44.9800777
  73.6903286  23.1827903   7.3778498  73.4555101  24.1013169   7.5097674
  72.9596758  22.8181314   6.8784434  69.7800875  13.4374654  39.9091196
  70.6209898  13.5380292  40.3552103  69.4477463  12.5925052  40.2121449
  36.0394478  16.4710927   9.5935804  36.6728878  15.7537401   9.5737958
  36.0040951  16.7843962   8.6897975  19.4162369  12.2456491  34.3767262
  18.7565231  11.8476021  33.8087749  19.2798007  11.8317401  35.2289557
  72.8573608  50.1306915   0.6646285  72.3385096  50.4739714   1.3920793
  73.1282473  49.2593718   0.9538527 102.9470106  69.1378171  83.8130516
 103.2930513  68.5464091  83.1446779 103.2571454  70.0043101  83.5499185
  54.6337843  33.3244252  13.1118488  54.2283106  32.6558876  12.5596893
  53.9586401  33.9958334  13.2099247  62.8164244  18.2594669  37.2436666
  62.5158262  18.9275157  37.8597689  63.7279701  18.4908462  37.0654106
  53.8234615   7.9012161  20.4329729  54.1266155   7.3514336  19.7104311
  53.7135315   8.7688637  20.0439548  61.0375214  12.0148206  28.5925150
  60.5648756  12.3337471  27.8236699  61.3573408  12.8076899  29.0229869
  63.8697863   1.9866255   5.1693487  64.7926521   1.9899042   4.9153030
  63.8374519   1.4296535   5.9471458  75.4436493  39.5791173  15.4384410
  74.9451971  40.0027466  16.1372387  74.9197578  38.8141990  15.2003825
  35.0860166  97.0893103   0.5419661  35.2818155  96.2039274   0.8485454
  34.4852542  96.9611972  -0.1921350  40.6980658  39.8605704  23.1389403
  40.5960131  39.8409247  22.1873975  41.6363716  39.9904728  23.2765627
  28.8871050   6.8041897  25.0516343  29.5996404   6.4629889  25.5921030
  28.6968660   7.6659632  25.4222918  47.9938745 103.3520117  15.3636086
  48.7733220 102.8539327  15.6098247  47.7019548 103.7587550  16.1794329
 104.0068245   4.7125882  52.6858902 104.3630028   4.8054048  51.8022871
 104.0235996   5.5995959  53.0452871  14.8472022  92.8491932  13.1665385
  15.3044843  92.3949772  13.8742185  15.4636764  92.8339499  12.4344444
  74.3052387  64.3536901  31.0967755  74.8252201  63.5506010  31.1267972
  73.9988613  64.4069529  30.1914978  55.3972483  12.7703047   5.3320354
  55.0183868  13.3881080   4.7067222  54.8486090  12.8523159   6.1120999
  18.6205576  31.8487460  74.5478702  18.3579730  32.5204379  73.9184988
  19.4695853  32.1459348  74.8750818  98.3594915 102.4867442  14.4287729
  98.5676619 103.3915663  14.1959774  99.1018602 102.1993214  14.9602878
  12.2081661  90.1488453  37.9292703  11.8583345  89.3495685  38.3229780
  12.7518319  89.8405963  37.2042584  25.5473088  66.4901453  21.8042016
  25.1336526  65.6562811  21.5810657  26.2484836  66.5895730  21.1602306
  42.9087209 100.1475805  38.4527230  42.5880098 101.0462343  38.5288668
  42.1584033  99.6042740  38.6937141  81.4436054  15.2640963  18.3152425
  80.5013657  15.2970767  18.4805238  81.6029358  15.9751534  17.6945615
  59.1831350  19.9144673  12.5476861  59.8370790  19.4261563  12.0475483
  58.7182140  20.4334998  11.8914211  53.4683609  66.8597507  13.7309706
  52.5688219  66.6899157  14.0106475  54.0069723  66.3413906  14.3288279
  47.7336168  97.5287711  43.3125114  48.0843019  97.0312124  44.0512133
  47.2405195  96.8856734  42.8030825 109.4576760  87.5381952  34.2322111
 110.0578877  86.7927080  34.2171097 108.9667436  87.4670475  33.4135818
  14.4092559   1.3990046  62.0690107  14.7411346   0.5060889  61.9752789
  14.9975108   1.9306876  61.5328217  50.7573605  17.9148960  47.7807331
  50.3071356  18.7005889  47.4705458  50.2053356  17.5870550  48.4906721
 105.9475274  61.1224319  80.9415746 106.1163040  61.5814472  80.1187444
 106.6033359  60.4256166  80.9659994   2.0945739 100.9034025  33.8357377
   1.5815639 101.4088696  33.2052183   2.7514362 100.4535863  33.3042979
  56.5773869  30.2050138  26.4458466  57.2287464  29.8203826  27.0323753
  56.7482901  31.1461258  26.4823341  73.7479639  19.7061908  32.1968675
  73.2319498  18.9430869  32.4569416  74.6110201  19.5542622  32.5819421
  89.0255260   9.0147841   1.1489289  88.6930466   8.6631161   1.9747750
  89.5794010   8.3176994   0.7974688  59.6784544  12.1365678  17.9992425
  59.8438406  12.4816108  17.1218455  60.0503826  12.7926803  18.5886657
  62.7806330  12.4006867  18.8445342  62.9484797  13.1356919  19.4343007
  63.6097145  11.9232154  18.8148999  12.3930453  70.3933711  72.6924932
  12.9714011  70.6925816  73.3940697  11.8831538  69.6861977  73.0876482
  26.7075299  99.0044504   5.6445229  26.5582084  99.2581099   4.7337034
  26.4812516  98.0748623   5.6744403  27.5628281  21.3025188  32.7458572
  28.0043840  21.7551398  33.4644651  26.6648221  21.6329885  32.7704668
  89.2828460  94.1394431  75.9827054  89.9218841  94.5174367  76.5868449
  88.5791154  94.7870309  75.9424222  56.4535666   9.2892188  12.0847738
  55.6383371   8.8483608  12.3241103  56.3666391  10.1690912  12.4515152
  87.3943615  17.3280394   3.9145476  86.8786812  16.6515005   3.4756932
  87.9813862  17.6600754   3.2352909  87.4684238  10.0866210  28.4095097
  87.7461910   9.5355189  29.1411948  87.8349590   9.6594560  27.6352906
  70.9246635  25.9280229  26.1386347  70.6855059  26.6138315  25.5151749
  71.2179947  26.4029241  26.9162321  44.4630432  16.1490571  12.8927267
  44.8918104  16.9881451  13.0610132  45.1834345  15.5240488  12.8112817
  64.7032690   2.8834093  14.0144539  64.2688131   2.4885042  13.2584584
  65.4916191   2.3553455  14.1405046  48.7139606  18.5786557  29.2392325
  49.3915319  18.8213015  28.6081624  48.2116270  19.3825197  29.3722582
  90.5434513   9.4399673  21.3030720  91.0664463  10.0082839  21.8685198
  90.4511833   8.6270744  21.7999840  42.3352861  91.7973202  14.9359238
  41.5695571  91.7826026  15.5101001  43.0811834  91.8564051  15.5328906
  51.7422485  24.2224455   0.4244280  51.6632175  25.1738834   0.4933520
  51.5364456  24.0306664  -0.4905015  97.9125786  10.6036651  38.3765841
  98.1647396  11.4367402  37.9782939  97.4258041  10.8515930  39.1625929
  47.8997993   2.2629264  22.7598381  48.0606985   1.4033875  23.1491160
  47.6639223   2.0741495  21.8515682  23.8112878 101.9109329  15.9932983
  23.1214332 101.4675179  16.4869726  24.4427966 102.1856367  16.6581035
  63.8476419  10.0455534  28.7707281  63.7311697   9.0955687  28.7567687
  62.9635811  10.3968346  28.6645746  32.5257230  11.0728765  24.3446660
  33.3137155  11.6008592  24.2160749  32.6984978  10.5754817  25.1440263
 110.6146594 103.0897568  39.9887586 111.2931772 103.5290147  39.4760203
 110.8043619 102.1569875  39.8878264  57.7002716  57.0676851  27.3523021
  58.5423279  57.0478392  26.8975711  57.1630621  57.6681328  26.8354821
  27.5058436  31.0610986  24.6235371  28.1701088  31.2113047  25.2961588
  27.9395247  31.2935472  23.8024879  28.0623006  80.2659851   6.9661099
  28.8061046  80.8595234   6.8626684  27.8313350  80.0133759   6.0722005
  78.8360739  28.1099796  24.7817707  78.6577129  27.2360969  25.1292586
  79.4970512  27.9679751  24.1041493  90.6116052  72.4639900  66.4630032
  90.9668489  73.3528025  66.4563060  91.1591955  71.9825132  65.8428764
  63.7925481  87.8347486   9.9944329  64.2090654  86.9751626  10.0565231
  63.2506131  87.7819961   9.2071867  51.9463682   8.1892520   4.0961447
  52.5748348   7.5994414   4.5125398  52.3359203   9.0586448   4.1890708
  71.5116692  43.4044409  13.3928847  71.5524149  43.7912703  14.2674911
  70.9703207  42.6225805  13.5017812   4.8809002  90.8662708  80.5672610
   4.7519492  91.0135229  81.5042359   4.0226124  90.5872686  80.2483070
  58.5245752  28.9709091  10.9941077  58.1440401  29.1954803  10.1449931
  59.0822172  29.7178364  11.2117445  57.0258331  15.8007741  12.4131656
  56.4953566  15.6016731  13.1846499  57.1241188  14.9598706  11.9665635
  44.2455864  12.1388173  34.2919302  43.9796209  11.4700651  33.6608481
  44.5037889  12.8869760  33.7535787 106.3691898  68.4676677  13.7280667
 105.9699389  69.2342955  14.1392982 106.1322375  67.7380925  14.3006098
  74.3688965  50.2579927   6.4075249  73.6607170  50.7304907   6.8450868
  75.1679420  50.5956984   6.8121415 110.8546968  35.8759065  89.1668332
 110.4588552  36.7418022  89.0680031 110.3915305  35.4838998  89.9071306
  37.2187400  37.4731231  52.3728752  37.8803921  37.0795727  51.8040466
  37.6881671  38.1593609  52.8471613  87.8980732  12.8109980  45.8498001
  87.9932785  11.8707395  46.0017204  87.5388336  13.1508672  46.6693592
  56.6581964  29.4114232  33.3916998  57.5755024  29.6847677  33.3838987
  56.1640406  30.2295327  33.3394003  54.8224068  24.9514937  40.5246830
  55.7049179  24.9748945  40.8946228  54.2436409  24.9323964  41.2868500
 103.5689445  58.9087642  73.0244184 104.1224714  59.5974560  72.6562512
 104.1856380  58.2432295  73.3293509  73.7528181  21.7614532  14.4278777
  73.0370378  21.1559892  14.6210194  74.5408154  21.3001513  14.7150898
  60.4704762  38.7495375  14.6479177  61.1252499  38.6254787  15.3350210
  59.8111010  39.3183446  15.0453043  26.4805411  90.3510077  83.0070657
  26.6994380  90.4753621  82.0835668  27.3060416  90.0910575  83.4159827
  34.5318222   7.2059834  35.6224275  34.3024278   8.1273502  35.7436419
  34.9706054   7.1782619  34.7721720  71.0392570   6.3112092   8.0483478
  71.3849163   5.5702186   8.5460234  71.2112904   6.0866797   7.1338952
 104.0177722  70.4201145  89.6730009 104.2479463  70.6651373  90.5692244
 104.8400016  70.4875619  89.1875863  58.2160473  40.4140091  10.8793116
  57.3041821  40.1725578  11.0418856  58.3154964  41.2693739  11.2972701
  66.3705587  19.6745431  25.5749345  65.4324770  19.7106135  25.3880095
  66.4838076  20.2364826  26.3415027  53.4223700  17.0266688  48.8109827
  52.7508831  17.6102388  48.4577370  52.9299641  16.3287854  49.2430973
  70.3773832   6.5270793  54.7642279  69.4849110   6.8211842  54.9465132
  70.3390980   6.1849403  53.8710833  26.5621852  81.4953404  30.3479958
  27.1154451  82.0131594  30.9328032  26.6532134  81.9191605  29.4945788
  55.5649137  46.4611053  22.8049684  55.8951330  46.9713736  23.5444379
  56.3453150  46.0579062  22.4246597  47.9442644  43.8758087  33.7694383
  48.1482506  43.1078863  33.2356620  47.8299618  44.5842838  33.1360126
  28.3367776   6.8651558  89.6310097  28.2724809   6.9530417  88.6800236
  28.2876491   7.7632786  89.9584082   1.2239411   1.0642363  58.1474686
   1.0540059   1.3291594  57.2434950   1.0689691   0.1196830  58.1534004
  55.9011841  15.9439123  15.0731385  55.6996346  16.0386157  16.0040724
  56.5618229  16.6150105  14.9016285  22.4569034  84.9419456  68.8515902
  23.0903434  84.5948106  69.4796705  21.6172456  84.8978811  69.3090439
  19.7245336  59.5230055   8.2990307  20.4302049  59.2035532   8.8613576
  19.3142760  60.2245712   8.8047212  71.5084739  60.6579132  87.1934512
  70.9961315  59.9049981  87.4881652  72.2984953  60.2753742  86.8116596
  20.8464908 103.1436205  26.0775828  20.3781986 102.4855298  26.5912461
  21.2954997 102.6416021  25.3974342  42.0204020  39.0864015  43.8345480
  41.5791512  39.6955514  43.2425451  42.8513813  39.5137286  44.0421391
  28.0295181  53.1607056  17.1324039  27.8855038  53.5115385  16.2535369
  27.9280829  52.2141981  17.0320523  34.4399595   5.7620217  89.3667626
  33.7624263   6.3805462  89.6399033  34.0544318   4.8999716  89.5231968
  55.1607227  22.9541111  11.4067090  54.7221041  22.2171664  11.8318677
  55.2523041  22.6836205  10.4931009  95.0313950  21.4267516  43.8515329
  95.7372665  20.9047341  43.4701109  95.3872967  21.7394638  44.6832609
  68.1872082  20.2632403  54.6882486  69.1410446  20.2066946  54.7451115
  67.9793835  21.1391401  55.0135803  52.7365017   4.4902939  51.9507456
  53.4656811   3.9437640  51.6577673  52.2897053   3.9599580  52.6105547
  52.2562981   6.4026976  36.6772389  51.8639851   7.2005916  37.0317650
  53.1650591   6.6426647  36.4961171  81.1128139  21.1361790  45.8093691
  80.2271080  21.0591245  45.4546642  81.6091919  21.5778279  45.1203203
  90.5954361  17.0144868  16.0714233  89.7787762  16.5341341  16.2076819
  91.2692356  16.4563382  16.4596176  27.1654797  44.7499084  49.4327784
  26.5546441  45.3399801  48.9912701  26.6885400  43.9233351  49.5071983
 100.0944562 102.3797805  82.7526027 100.4711051 103.2504041  82.6246077
  99.5236392 102.4754817  83.5149920  55.9130669  15.8860254  49.6961784
  55.2457905  16.1292267  49.0544415  55.6277418  15.0344849  50.0273943
  99.4341131  57.3234216  90.2259712  99.4143577  57.8955300  90.9931307
 100.1084466  56.6748626  90.4281552  71.2054110  30.6302595  15.1568496
  70.8697128  30.8919501  14.2994964  70.4633617  30.2025867  15.5842698
  39.5440793  16.4144051  37.1593714  39.5155048  16.9415534  37.9578257
  39.1816092  16.9855845  36.4821696   5.3029918 100.1855451  16.8857610
   6.1759185  99.9862790  17.2241735   5.0141668 100.9407878  17.3980296
  27.9690075  62.8903055  31.3235331  28.0262208  61.9882965  31.0083389
  27.9049873  62.8079224  32.2750282  42.3938084  26.8685675  28.9516807
  41.8376112  27.5512052  28.5763407  42.1181297  26.8111205  29.8665214
  67.5489187  26.8599796  19.3879187  68.2830858  26.4554048  18.9258075
  66.8118715  26.2701631  19.2294502  83.4236526  12.6849186  20.8775234
  83.4391212  11.8825769  20.3557563  84.3027401  13.0509162  20.7801771
  78.6988068  13.4635627  25.5788279  79.5860863  13.1423271  25.4182982
  78.7981272  14.4123530  25.6573415  87.2303867  30.8051825  19.5451510
  87.5212669  31.7165637  19.5768642  86.6703892  30.7593226  18.7702096
  75.2816629   7.9328865  31.3475800  75.8310461   8.3780980  30.7024431
  75.4090023   7.0012569  31.1684608   7.5215338  43.1113119  90.0261161
   7.1454905  43.5776360  90.7726879   6.9008635  43.2609476  89.3129447
  82.1336885  78.5143335  87.0110184  82.5358148  78.5964305  86.1462718
  81.5663572  77.7467115  86.9394389  51.7876577   0.8518218   8.5321510
  51.1083555   0.4351826   9.0624291  52.6040792   0.4514080   8.8310683
  44.0757227  40.3527784  24.1446161  44.9840021  40.1241541  23.9471364
  43.7226343  39.5768261  24.5798826  92.1801038  84.7547443  79.5583749
  92.9657646  84.8255618  80.1005542  91.5798755  84.2175515  80.0754642
  24.4870353  20.5499816  29.4746566  24.7568822  21.2186027  30.1042271
  25.0845838  19.8187304  29.6309900  96.4866924   2.0402066   0.0403013
  96.4560413   2.7118847   0.7215805  97.4140358   1.9714230  -0.1866832
  32.1965932 100.3525632  43.7642002  31.6802310 100.9642970  43.2394314
  32.1783399  99.5352584  43.2662916  31.5096951  57.9568005   8.6558276
  30.5743217  58.1327820   8.7574977  31.6663027  57.1779537   9.1897726
  36.9113493  22.4359107   5.6843507  36.3501120  23.1501245   5.3824502
  37.2482324  22.0399165   4.8806536  17.9743861 102.9362343  37.5622964
  17.8639220 103.3285121  36.6961861  17.3120689 103.3638674  38.1051540
  51.6785669  15.3591681  52.0446253  52.3108482  15.8165014  52.5989723
  50.9174347  15.2255034  52.6094675  91.9893646  19.1565955  17.0207286
  91.3442898  18.4986424  16.7614877  92.7300358  18.6484993  17.3516047
  38.3319139   0.7304820  51.9072008  38.7083721   0.9049205  52.7698040
  38.8391209  -0.0076354  51.5693331  56.7251015  11.1192453  29.2621279
  56.7062950  12.0645869  29.1131020  57.0373821  10.7525408  28.4349394
  64.7700500  21.5222168  40.5897999  65.3716946  22.0393157  40.0542068
  65.2140856  21.4359641  41.4333773  68.0159807  25.2362967  26.0952878
  67.3854113  25.3512311  26.8062043  68.8702583  25.2627158  26.5262604
   7.6264381 104.0717527  17.5203967   6.8551110 103.5738034  17.7912068
   7.3289489 104.5840941  16.7685735  81.5861988  25.9304309  40.8855009
  82.0498943  25.1797009  41.2564754  81.5994358  26.5877652  41.5811777
  71.2244272  63.2478380  14.8299694  71.4088345  64.0947294  14.4237638
  70.2866077  63.2724953  15.0200164  29.9422789  22.7593422   7.9296446
  30.4267526  22.0370054   8.3293301  29.3576741  23.0677319   8.6220056
  67.9112053  11.7233133   7.7812105  68.0975819  12.6045275   7.4572420
  68.7723255  11.3504720   7.9701269  58.7058783  21.8939662  29.5485306
  58.9818954  22.1191502  30.4369783  57.9129219  22.4107766  29.4058418
 106.0309167  93.8248069  78.4749329 106.9704910  93.9531429  78.3447027
 105.9548135  92.9290016  78.8035309  91.2471242  66.6901548  72.8503525
  90.7067867  66.3243289  72.1500397  91.1166139  66.0955496  73.5890281
  48.1406403  16.7470813   4.6790251  48.1773758  17.6808846   4.8861331
  48.4190512  16.3118935   5.4848355 104.0670681  33.9452481  10.9180045
 103.3611870  33.3589959  11.1905360 104.6602249  33.3879280  10.4142332
  71.4081383   9.0558618   5.7407504  71.4055872   8.1081760   5.6061482
  72.3274469   9.2733991   5.8949673  24.7182798  20.9725714   7.0561147
  24.2367601  21.5202928   7.6760924  24.6067619  20.0813532   7.3870629
  70.2717447  75.7485562   7.7094948  69.5985364  76.4106184   7.5523400
  70.1752614  75.5238300   8.6349243  37.7850342   4.9435303   0.3611669
  38.4316778   4.2410505   0.4290245  37.2861481   4.8893955   1.1762833
  61.5780926   3.8331658  24.1636109  62.3883009   4.1513100  23.7653828
  61.7180777   3.9345071  25.1050806  92.7169800  18.9090693   9.0006763
  93.4883404  18.4944618   8.6142343  91.9845772  18.5919988   8.4722012
  86.5997696  21.9115162  35.4144549  85.7579708  22.1540689  35.0287485
  86.6239738  22.3784733  36.2496758  86.7789268   9.3521047  12.0417106
  87.4454021   9.6665239  11.4308202  87.2764206   9.0223634  12.7900434
  57.8813028  12.5799596   9.8189235  58.0096579  11.6316271   9.7983688
  58.4358406  12.9120684   9.1129315  40.9041929 102.2668597  24.8876047
  40.6094503 101.8621006  24.0718055  41.2250280 101.5356755  25.4154944
  70.6208754  33.2356405  23.6517835  69.9074745  32.7265644  24.0366602
  71.3989258  32.6932216  23.7808299  82.0950890  14.9088764  22.3753262
  81.2264252  14.7298980  22.0153046  82.6810360  14.3322647  21.8849969
  69.5182943  96.8477553  11.3031328  69.2276906  96.0154795  10.9301722
  68.7243699  97.3806369  11.3473022  53.3285570  38.8293195  34.2938399
  53.1058264  37.9094005  34.4365644  53.8564968  38.8268375  33.4953976
  52.9465246  23.2930946  13.5513616  52.5823402  23.4927797  12.6889646
  53.7353706  23.8322020  13.6089087 107.6326890  34.5752580  84.0803593
 108.5246940  34.4052107  83.7776446 107.6471420  34.3453796  85.0094330
  70.0481939  15.3104210   1.7855844  69.2073250  15.1250243   2.2036771
  70.6896353  14.8415649   2.3193976 109.1799016  81.9964559  75.9961605
 109.1410156  81.3747342  76.7229211 109.5763727  82.7816636  76.3736403
  18.6419486  99.3139934  21.6996264  18.0563735  99.0879327  20.9769726
  18.1791114  99.0195185  22.4840355   2.3536443  89.8237270  10.6786954
   1.5477466  89.7294050  10.1708937   2.0553159  89.9742049  11.5756834
  42.3421097  16.5134943  46.2952852  41.7943001  16.5494740  47.0794010
  41.8773508  15.9199238  45.7054472  54.8259449  19.1086185  17.6584017
  54.4832277  18.2150733  17.6772022  54.1975975  19.5949638  17.1246600
 110.4751869  71.0800321  81.8068993 109.6000619  70.6926579  81.7887938
 110.5361457  71.4939136  82.6678395  28.0640840  80.2092010  34.6406102
  27.7287244  80.9404832  35.1592541  28.9874362  80.4187685  34.5001388
  79.9739122  22.4348927  28.2545567  79.1300917  22.2002721  28.6407614
  80.5874157  22.4145460  28.9890170  27.1723151   5.3497612  52.7137566
  26.2182689   5.4097962  52.6645136  27.4079680   4.7183406  52.0340490
  37.6806307  27.4780798  41.3015079  37.3048639  27.2210860  40.4594946
  38.5882759  27.7051711  41.0994148  57.0957661   1.3862437  44.4690275
  56.9320297   0.4437943  44.5038462  58.0412197   1.4604539  44.3392658
  49.1360331   3.9822829  19.3877423  49.6090651   4.6456122  18.8852811
  48.6447191   4.4813147  20.0402856  74.2595787  89.2872460  85.9277964
  73.7473603  89.8378665  86.5199795  74.2197581  88.4141214  86.3180539
  91.4523836  58.6174531  77.8022861  91.8611808  58.5295321  76.9412494
  92.0188947  59.2270262  78.2752705  45.0867510  22.0667934  30.5779409
  45.5608749  21.3555741  30.1471257  44.1697502  21.7935228  30.5520415
   4.8758172  64.6905453  79.7976172   5.2881335  65.0503046  80.5829835
   5.5914305  64.2659361  79.3245065  93.7833977  -0.1054266  26.4453483
  94.4685459   0.5249969  26.6675353  93.7250328  -0.0691668  25.4906178
 103.2296701  38.6265249  78.8864171 102.4039026  38.1430776  78.9113510
 103.6042924  38.5058648  79.7589600  53.1806134  16.3183047  87.3125705
  52.8844117  16.0970570  88.1954899  52.3821973  16.5689351  86.8478644
  74.3368483  11.2535584  56.6183424  73.7758160  10.9221160  57.3194981
  73.8169384  11.9395757  56.1996460  99.7360420  15.2885985  21.7667270
  99.0071774  14.8632002  22.2184157 100.0542164  15.9428561  22.3887730
  86.3999653  48.2427168   5.8062977  86.8556881  48.6575031   6.5387625
  86.6848564  47.3292971   5.8333111  90.0920291  49.3377901  89.2146930
  90.8333965  49.9266882  89.3554199  89.3220945  49.9032588  89.2753708
  75.6873512  19.9445426   3.7081069  75.0413609  20.6483245   3.7682986
  76.3767672  20.1991367   4.3213910  57.4313211  37.2241688  31.8624806
  57.6222897  37.1446347  32.7970600  56.5648222  36.8303990  31.7607141
   6.8037699  95.6084115  84.7586596   7.6934050  95.2712448  84.6533185
   6.4364813  95.0945623  85.4778916  61.7638159  21.6167688  21.6820788
  61.0053921  21.1646628  22.0517087  61.3882017  22.2947097  21.1203456
  37.3101329 104.8134088   6.9088691  37.8793096 104.0487045   6.9954604
  37.6074218 105.4120722   7.5940353  53.7488937  48.8612938  17.3047841
  54.1194582  48.7191725  16.4337409  52.8019619  48.8157845  17.1725643
  36.4559865  12.3363328  26.4843106  36.9200230  12.3336685  25.6471157
  35.7849598  13.0115402  26.3840699   7.3656892  95.2792006  72.4942493
   6.4660644  94.9624473  72.4131870   7.2926568  96.0759246  73.0197287
  69.3737125  21.8307781  22.2812152  68.9811659  22.0746136  23.1194782
  69.3049335  22.6211166  21.7456174  84.5990892  92.5335796  85.5214328
  84.9295087  92.1821935  86.3482255  85.3842779  92.8029926  85.0448555
  47.1693850  44.4803476  17.8436029  46.2217474  44.4640493  17.7096581
  47.3824120  45.4090405  17.9351246  63.3514023   7.8651261  52.0641708
  62.9989624   8.5711503  51.5223646  62.7525997   7.8131783  52.8091335
  84.9325657  56.3203144  33.8572168  84.3047047  56.4569807  33.1477475
  84.6990204  56.9768047  34.5134997  67.7072430  29.9562073  30.0353885
  67.3524904  30.7925439  30.3369260  67.2505569  29.2990255  30.5605364
  86.3310337  59.8736238   5.7926184  85.9965897  59.2339182   6.4212334
  87.2219849  60.0582838   6.0898376  41.9560003  42.8368092  46.8806267
  41.8631744  43.6844826  46.4458132  41.1177206  42.3988962  46.7331266
  40.2154398   4.4050148  10.3411150  40.3811264   4.7103199  11.2330627
  40.1352167   5.2068442   9.8245245  78.2893324  55.3339863  16.3289726
  78.7759161  54.5100975  16.3548064  77.6010370  55.1854181  15.6805825
   0.9068058  77.8326781  88.1716463   0.3374718  78.2417900  88.8233499
   0.3323220  77.2348983  87.6932493  89.3960857  20.1853633  19.2269123
  90.0467396  20.8109713  18.9083314  89.9094296  19.4273746  19.5064867
  73.6275101   6.3346428  38.7720919  73.9759731   6.0700488  39.6234393
  73.9752674   5.6868887  38.1591415  20.6287694  56.3965607  43.6049032
  20.3914142  56.2912035  44.5262051  20.6333232  57.3435497  43.4655285
  80.3119946  74.0340042  14.1630232  80.2492142  74.5341825  13.3493221
  79.7124147  73.2982731  14.0387881  21.1991647   7.7686423  12.3330235
  20.6644300   8.5579133  12.4186945  21.6297200   7.6776117  13.1830609
  47.7116394  29.0105247  27.4788690  48.1155348  28.7671161  28.3118463
  48.3540773  29.5828223  27.0593691  84.7941017  15.6495345   5.6790876
  85.7083702  15.9161544   5.7752472  84.4248772  15.7388794   6.5576816
  89.3775845  51.0154247  10.3196931  89.1298771  51.5970182   9.6009326
  90.0827789  51.4793634  10.7710278  66.5536451  26.9453073  68.3602238
  67.1387720  26.6374230  67.6680756  66.1634350  26.1472034  68.7165976
  62.9630184  52.8090620   4.5629060  63.7298393  53.1780767   4.1246742
  63.2116985  52.7676296   5.4863089  55.3437901  26.6484332   4.7461200
  55.8930159  27.2262955   4.2163485  54.5150852  26.6022062   4.2693135
  89.7980213  58.7695837  29.8743153  90.2646828  59.3428898  29.2662168
  90.2038956  57.9111576  29.7534895  76.0138988   5.6307006  47.6170158
  75.5126143   6.3839793  47.9292917  75.3528023   5.0263125  47.2795343
  53.8212252  13.6923969  12.3549986  53.3583355  14.3714237  12.8458011
  54.1008472  14.1275382  11.5495825  69.7858524  27.8718066  13.5789895
  69.9847269  28.7842226  13.3687973  69.1966438  27.5879574  12.8800631
  50.4933453  13.3083832  41.7954063  50.6959772  13.3727169  40.8621120
  50.4441357  12.3677087  41.9655275  85.7749557  45.0920343  12.0286500
  86.2869167  45.2425432  11.2339950  86.4256191  44.8675013  12.6938212
  40.6435442  20.8050942  17.4308479  41.0059643  20.6574440  16.5573025
  39.6953988  20.7596564  17.3076034  86.4194202  28.0967951   4.2410424
  87.1288776  27.4578309   4.1731074  85.6244087  27.5667810   4.2983463
  83.7752533  45.9994650  20.1752925  83.6554337  46.0438108  21.1239266
  82.9870987  46.4060020  19.8150587  45.1642942   3.6351395  23.4312582
  45.5048418   3.5978130  22.5374651  45.0022221   2.7209684  23.6641860
  91.2657356   9.2989624  13.3777297  92.0920277   9.6642405  13.6940217
  90.6793880  10.0528669  13.3140194  45.4779482  53.6761189  25.1200294
  45.6551552  53.3594275  24.2342901  45.2953863  54.6091366  25.0087428
  70.7757807  55.4066038  22.3084521  71.0522413  54.7983313  22.9938769
  71.5934992  55.7561445  21.9543457  57.2409344  10.9709668  17.1439719
  58.0452967  11.4321327  17.3817873  56.5922308  11.6651809  17.0278430
  42.8540325  43.2979155  42.6650906  42.1978283  42.8756380  43.2194471
  43.1560421  44.0466213  43.1793451  78.5535097  22.9953885  31.1467123
  78.5901928  23.8273835  31.6185904  78.4597731  22.3347330  31.8329906
  61.3784981  39.2583680  12.1212065  60.8419895  38.9435577  11.3936853
  60.8501101  39.0860820  12.9005384 106.4828534  97.9062993  82.7316624
 106.4583440  98.5111101  83.4731710 107.0466848  97.1905334  83.0249274
  72.8671928  67.1003766  86.4349434  73.2017799  67.4574394  87.2576159
  73.5796972  66.5536613  86.1037743  67.2457790  46.4234686   3.0689314
  67.6174068  47.3039055   3.0145013  67.8242493  45.8854914   2.5283933
  28.8264227  24.1455698   2.3524520  29.2313910  23.7098527   3.1023738
  29.5254135  24.1997576   1.7007574  92.0540810  36.8995404  36.0606790
  92.4935246  37.6887417  36.3773489  91.5536213  36.5855241  36.8137836
  54.1573906   5.1680553  43.9664984  53.2080078   5.1255524  44.0809488
  54.2770958   5.5647147  43.1036186  81.3750458  36.5834022   6.1831123
  81.3529682  36.8995833   5.2799106  81.3183880  35.6310821   6.1049509
  49.9065971  68.4593630  27.2456908  49.2283154  67.9840899  26.7658114
  49.4301367  69.1359425  27.7267957  33.8222788  81.5044958  75.5110562
  33.1061362  81.8986995  75.0130939  34.4282626  81.1814554  74.8442256
  44.0724134  43.4005880  40.1331615  43.6122417  43.3892393  40.9724140
  44.4287014  42.5167179  40.0433922  65.2458954  34.8682642  21.0045600
  66.0061836  34.4530487  20.5973816  64.7281075  35.1941943  20.2684236
  73.3068562  30.2083850  13.3354330  72.7783155  30.4874420  14.0830994
  73.7224865  29.3964434  13.6256623  81.4210510   8.8455874  58.5705423
  81.0424900   7.9664278  58.5720205  80.9241390   9.3214452  59.2360306
  64.8831511  52.0094824  33.4447503  64.8409224  52.9133368  33.7569952
  65.7552528  51.9300938  33.0582690  81.3423443  26.2596536  15.7958353
  81.0280228  26.0958862  16.6850019  81.2544632  27.2058940  15.6812108
  67.9778528  63.7759447  21.9496322  67.4287176  64.3911648  22.4356222
  68.5990143  64.3305779  21.4776492  81.9390483  56.7813502  84.5844090
  81.3573642  56.7192269  85.3420454  82.6881595  57.2877426  84.8984712
  12.2876738  63.6261184  79.2580104  12.5721739  63.9808888  78.4157312
  12.8204821  62.8401894  79.3791282  62.0699835   8.5685158  18.3840382
  62.1645737   9.3507499  17.8405356  62.4183750   7.8585869  17.8447270
  34.5678043  24.4940972  31.5732980  34.9256563  23.7242794  31.1310816
  35.1012206  25.2225184  31.2553382 106.1789556  35.5895812  89.6112448
 106.7319818  35.4941196  88.8358241 105.5088849  34.9132366  89.5122746
  74.2603302  34.2452192  29.0453243  73.7764645  34.0696740  29.8523498
  74.2078018  33.4267855  28.5517240  40.8158016   7.1623242   5.9053212
  40.1655483   7.2262150   5.2058095  41.6514015   7.3368210   5.4722422
  68.5295486  59.3922806  27.1226239  68.7958479  59.9688053  26.4064288
  69.1075420  59.6287918  27.8480339  50.1539803  52.7583933  16.9480121
  50.6220627  53.5801697  16.8003058  49.6851444  52.5992155  16.1288130
  71.6116142  18.4696364   6.7065555  72.4586344  18.7563944   7.0479572
  71.4505672  17.6310050   7.1389848  55.0018358  99.2655992  15.0004208
  54.2735910  99.8702007  14.8577440  54.7384500  98.4629440  14.5503020
  53.9479876  49.5536804   1.1961211  53.5393286  49.1457081   1.9595239
  54.8647499  49.2821646   1.2414610  91.3249393  91.8336136  88.2382402
  90.6213422  91.1847145  88.2279849  91.8649669  91.5894921  88.9899096
  84.2959690  39.1880822  15.6966889  83.5558605  39.1739058  15.0898325
  84.6466827  38.2979250  15.6675410  97.0053196   3.1902954  40.8926964
  97.3413849   2.8455737  40.0653744  96.9997215   4.1398251  40.7718945
  92.4353886  45.8335543  16.0088778  92.2548866  46.5419197  15.3909254
  92.0820713  45.0509167  15.5859423 108.0856510  50.5499202  70.3955507
 107.5463720  51.3068948  70.6244612 107.4600597  49.8951287  70.0855255
  73.6800051  24.5340419  20.9804034  72.9532957  24.2083120  21.5114641
  74.1791534  23.7501812  20.7509589  59.3651295   6.5157205  51.7589808
  59.2481041   5.7583696  52.3325300  58.4931374   6.6819966  51.4008999
  42.9592800  26.6290975  34.9173474  42.2057486  26.0869670  34.6838641
  43.1923199  27.0780563  34.1047215  81.4504142  80.5222947  64.6863532
  80.8541627  80.8872349  64.0324926  81.3690610  79.5742805  64.5820427
  94.4087029  67.3930550   3.9843550  93.8287067  67.5254726   3.2344866
  94.0620613  66.6148520   4.4207838  33.0968094  44.5009756   9.0778446
  33.9056873  44.3481398   8.5893869  32.6223993  43.6715508   9.0211076
  57.0038271  69.7107220  18.7116992  57.4140024  70.2671337  19.3738139
  56.0650635  69.8649073  18.8174307  52.0572948  47.3499537   1.7631955
  52.4106598  46.8449879   2.4955741  52.4609947  46.9611025   0.9872742
 111.3606496 101.2562282  81.7904842 110.7729478 101.2049777  82.5442851
 111.3653512 100.3696258  81.4297301  33.4297824  76.3269377  25.9960842
  33.3073568  75.5680180  26.5664220  32.7911758  76.9674683  26.3093472
 100.5530071  18.5632396  32.2174859 100.1224041  18.7575531  33.0499840
 100.9547901  17.7046585  32.3503160  74.8119688  33.6361647  25.7709002
  74.5855951  32.7178335  25.9180403  74.1098022  33.9693856  25.2121902
  40.3782225  39.8384070   3.0876702  39.8216963  39.5904279   3.8259238
  40.7298040  39.0091777   2.7636275  25.7666587   8.5067727  84.4208360
  26.5903711   8.0191971  84.4204342  25.3763437   8.3182742  83.5674012
  83.7932968  27.1512413  18.6152005  83.9506912  27.9247570  18.0737853
  83.4594154  26.4948177  18.0037546  25.7144737  94.7496694  33.0580139
  26.4579295  95.2193123  33.4360933  25.1875877  95.4313385  32.6409411
  80.9942913  26.3654256  21.6009879  80.8738995  26.4432049  20.6545782
  81.4983654  25.5594349  21.7128730  57.6472282  38.0406570  17.9642141
  57.0690680  37.3126960  17.7361012  57.3963261  38.2748675  18.8577592
 101.2303829  15.2124703  47.5203896 101.1029243  16.0765147  47.9120684
 102.1531200  15.0121021  47.6773643  67.3195219  29.4481969  40.1058817
  67.8145981  29.5769167  40.9149313  67.9886484  29.3223238  39.4330812
  57.2301674  43.0161190  15.8998168  56.5547752  42.5069523  15.4516792
  58.0370998  42.8120613  15.4271102  44.6114635  62.5058508  28.9098167
  43.7856245  62.9890919  28.9362264  44.3516064  61.5853310  28.9466047
  92.8877163  43.4303427  39.2199469  93.4121895  44.1664362  39.5351148
  92.5656223  43.0075359  40.0160122  15.9434938  94.0978735  18.3476400
  16.7333841  94.2309767  17.8236234  15.3305196  93.6672407  17.7517819
 107.1576352  91.5057428  57.4655151 106.3792272  91.9446213  57.8085923
 107.6738925  91.2915666  58.2425880  34.8960710  57.3560143   5.6023788
  34.5940495  57.6752043   6.4527500  34.1929722  57.5883818   4.9958405
  55.8771610  26.2197661  38.2270718  55.7869768  25.6438541  38.9862990
  55.8377075  27.1041059  38.5912371  46.2702131  17.7678276  74.9666393
  46.5923070  18.6690642  74.9506140  46.3506746  17.5009657  75.8823597
   4.1265773   6.8761612  83.9544213   3.5141849   7.5558926  83.6730438
   4.8916673   6.9952275  83.3916688  80.4766560  38.3656883  26.9295239
  80.4655361  38.6858249  26.0275149  79.7842550  37.7053785  26.9578743
  27.8723191  29.8405291  72.5340807  27.4588632  29.3476607  71.8253016
  28.6838197  29.3659235  72.7142000  69.0699959   0.8467519  44.0190935
  69.6839762   0.9680779  44.7433472  69.6199799   0.5879552  43.2796526
  51.3324881  54.5216465  10.9178627  50.4066515  54.6935606  10.7460880
  51.5908623  53.8998032  10.2375782  63.7717438  51.2457514   1.1887811
  62.9670095  51.7146158   1.4096868  64.1167927  51.7087030   0.4253367
  82.6104546  25.2731252  30.6340408  82.5691414  24.3210673  30.7240963
  83.4914017  25.4442000  30.3010201   3.3087252 101.7703206  48.8077068
   2.4713944 101.4000900  48.5283470   3.2147978 101.8887956  49.7528934
  66.3299561  50.8712959   7.4677062  65.5467224  50.8274174   8.0162036
  66.6165066  49.9616432   7.3861372  86.1609745  32.9313302  22.4583960
  86.4461613  32.7289748  23.3494353  85.3758049  33.4664845  22.5739336
  51.3923883  30.4356837  29.1246104  52.0377064  30.6569195  28.4531546
  50.8708429  31.2317491  29.2270970  93.8191795  34.0148473   2.3868474
  93.3675003  33.7252879   3.1795484  93.6227036  34.9497628   2.3271866
  58.3251619  57.8028250   7.3357928  57.7049398  58.5283661   7.2640467
  58.0639601  57.3424149   8.1333065  18.6851119 104.1440971  88.6028269
  18.5696600 104.8540599  89.2343736  17.8077410 103.9901550  88.2524702
  86.4680767  16.8805540  54.7930145  86.9267178  17.1759605  54.0064955
  86.6873646  15.9514773  54.8634291  86.9069576  66.3102627   3.7858135
  87.0433331  66.7613745   4.6189594  87.2234821  65.4202890   3.9407146
  63.6759329  36.3190031   3.5152486  62.7960730  36.2340617   3.1480128
  63.5392427  36.7170405   4.3749651  90.0731321  89.4347865  90.3376282
  90.7857318  89.3249781  89.7080436  89.2877670  89.1692431  89.8591700
   7.8002833  83.0682332  80.0348651   6.9571589  83.0506856  80.4877090
   8.2561587  83.8233454  80.4066360  62.2984505  30.6919122  31.7183542
  62.3231554  31.2981510  30.9780192  63.0401754  30.9511423  32.2650504
  43.3274937  15.0717139  17.4618280  42.8728533  14.3449950  17.8877521
  44.1682053  15.1274574  17.9160666  48.4608173  27.8076601   7.5403732
  47.8199244  28.4504676   7.2365838  48.8343906  27.4440670   6.7375815
  83.4336281  63.8367414  24.6995306  82.7260303  64.0693712  24.0983438
  83.3764839  64.4869041  25.3997135  98.5230350   1.3376434   8.2660955
  98.4869385   1.8967032   9.0422273  98.5486698   1.9499771   7.5308257
  66.7606068  48.7729836  25.1381159  66.9400597  49.2361641  24.3198895
  66.4050055  47.9282284  24.8621225  76.7448759  62.1154404  19.3641591
  76.9541454  62.6605177  18.6056554  77.1658611  61.2759113  19.1792572
  70.3959608  40.1159239   8.2409918  70.4167366  40.8011675   8.9090037
  70.9426689  39.4162607   8.5984993  47.6844930  89.4493299  48.1103182
  48.2414579  88.7385827  47.7927351  47.6816701  90.0881821  47.3975086
  59.4422817  50.1287079  27.8671336  59.0035057  50.9789324  27.8383255
  60.1776361  50.2588463  28.4659243  82.8861141   4.9378830  43.3118916
  83.0138397   5.8309239  43.6318874  83.4592342   4.8729137  42.5479889
  62.7916336  42.6407194   7.1415067  62.8416157  41.8301821   6.6347879
  62.0890760  43.1403065   6.7255139  72.1916580   4.9448392  45.3329706
  73.0818939   4.9471968  44.9812508  71.9122505   5.8590263  45.2837229
   9.1358756  82.0799763  65.0954032   9.1295908  82.5784595  65.9125376
   9.5266722  81.2385828  65.3311229  66.5089293  55.7181622  90.5099277
  66.3661523  55.1736672  89.7357367  65.8371778  55.4340018  91.1297949
  84.9338670  89.2524702  87.9167745  84.2719312  89.1783912  87.2293267
  84.5498367  88.8014347  88.6686522  61.6990089  23.0222106  48.3793354
  61.2561607  22.2597599  48.7518787  60.9991598  23.5269022  47.9649305
  64.0677738  56.7657232   2.2914864  64.0064240  55.8824492   2.6552001
  63.4209824  56.7797089   1.5860105  94.5729446  26.1331153   9.5166832
  95.4054165  25.9518480   9.9529886  94.0155602  25.3894091   9.7457242
  42.0126390  46.9469690  44.0177107  42.6078987  46.2558603  44.3079948
  41.6306496  46.6094017  43.2075500  45.4968834  12.2770095  45.2824450
  45.5840492  13.1345057  44.8661137  44.6676826  12.3249340  45.7582188
  88.0910683  23.9008665  15.8466768  88.2243443  23.9038849  16.7945480
  88.3632565  23.0260992  15.5693197  28.4656619 101.6577497  15.8720887
  27.7237605 102.1384501  16.2391579  28.2862853 100.7418045  16.0844576
  63.4573507   5.8587778  11.6372240  63.8313580   6.7002082  11.8986571
  63.9974594   5.2072728  12.0845032  44.3257809  38.3833838   4.9084234
  44.1571093  39.3252444   4.8824057  45.2802277  38.3108640   4.9072778
  79.6379514  87.3883803  87.9721802  79.1604658  87.4152977  87.1430162
  79.6809764  86.4581592  88.1937027  85.3665257  57.6631260  18.0389655
  85.9195518  58.3668900  17.6996994  84.5386124  57.7612305  17.5686777
   9.9146651  81.3369186  80.5638051   9.1709517  81.9224388  80.4214239
   9.5932578  80.6897790  81.1916089  59.6606731  12.6569080  26.2632799
  58.7447596  12.7980065  26.5029168  59.6464300  11.8735695  25.7133627
  93.8500214  60.5666447   6.3805562  94.4650745  60.5207157   5.6485569
  93.3072090  59.7838259   6.2867743  65.4815006  36.5971017  25.5843520
  64.9408865  36.4903212  26.3670182  65.5155325  35.7230234  25.1956844
  75.0959969  58.9205027  25.2419257  74.3530703  58.4023857  24.9323249
  75.8240128  58.6547995  24.6801186  67.5282717   8.4916008  16.2155342
  66.6225195   8.7096339  15.9957278  67.7223873   7.7159727  15.6892729
  47.4863672   9.1442096  16.7562604  47.2638798   9.7740293  17.4418688
  47.4526215   8.2930356  17.1928334  64.6810627  29.3970394  41.0187626
  65.6118250  29.6037197  40.9339571  64.4800186  28.8745546  40.2423477
  95.9514089  67.1808751  80.0211775  96.2389417  67.2211249  80.9332836
  95.1134487  67.6434762  80.0135696  20.1181792  97.6482875  78.0326664
  20.5135249  97.4050577  78.8697886  19.9423407  98.5856588  78.1142008
  62.8962374  34.4944715  11.3666487  62.7583122  34.7662711  10.4592717
  62.2250748  34.9639702  11.8619692  30.2095460 104.9700718  11.2014365
  29.7472047 105.3956371  10.4793799  31.0903882 104.8120101  10.8617747
  59.2581272  45.0013876  39.5921683  60.0134277  44.5514917  39.9707818
  59.1902208  45.8160353  40.0901318  96.6158390  48.8881445   9.8803926
  96.1204624  49.3250036  10.5732083  97.5316334  49.0764570  10.0855410
  82.4000168  13.3037210  40.9979105  83.1964397  13.6287045  41.4178228
  81.7172050  13.4173501  41.6590357  90.3227806  37.2105241  19.7393405
  90.8531094  37.6967335  20.3706765  90.9615707  36.7706156  19.1783988
  29.8131490  24.6180630  13.0441165  29.0829659  24.8933482  13.5984468
  30.4853296  24.3272018  13.6603987  66.4213562  22.2571468  33.2997727
  66.0883617  22.0860219  34.1807175  65.6908607  22.6762223  32.8448129
  24.8441457   1.6091324  81.0928595  25.6824111   1.7292239  81.5390861
  24.9336337   2.1032978  80.2779818  85.6087685  30.7727218  44.8610449
  84.6973610  30.6253839  45.1137257  86.0638523  30.9318542  45.6879759
  57.6704550  38.3257985   7.6598316  56.7163849  38.3288264   7.7371192
  57.8972292  39.2334342   7.4573427  60.4166317  54.8374319  20.2960324
  60.5620432  55.6840706  19.8737836  60.8262682  54.2029667  19.7079134
   8.5717630  32.8595377  86.6980419   8.6790370  32.0867754  87.2526342
   8.4027051  33.5737349  87.3125070  73.1521082  72.3043966  31.5647388
  73.1716156  73.2045889  31.2399173  74.0031242  71.9422579  31.3180447
  88.4442230  84.9976547  80.5646956  87.7686067  85.6716473  80.4904675
  88.7988181  84.9154503  79.6794057  91.6585445  15.3185630  36.5646195
  91.1625195  15.1407957  35.7655025  92.5448799  15.5108452  36.2585735
   1.3305047  19.2288625  21.8775749   1.6705182  19.4555545  21.0119915
   1.8111756  18.4387350  22.1243215  21.2296389  92.4190266  86.5733722
  21.9925593  91.8410284  86.5632302  21.2015627  92.7629478  87.4662113
 111.0489082  48.8453293   4.4275773 111.5451050  48.0723333   4.6968138
 111.6012001  49.2671871   3.7693691  53.8071156  20.7443309  12.7616966
  53.1479073  21.3578033  13.0862403  53.4342480  19.8794866  12.9327130
  43.2201862  64.9004269  22.7210283  42.3535156  65.0721073  22.3527312
  43.1255770  65.0899458  23.6544967  66.6488743  22.0187712  57.7490282
  66.6382408  21.0755920  57.5861359  65.7479572  22.2296596  57.9941893
  71.0578346  38.0401850  10.6378102  70.3071117  37.4861097  10.8514619
  71.7564678  37.4232721  10.4197299  14.6141528  80.8467562  88.4626752
  14.3872164  81.5000207  87.8008759  15.1430129  81.3258440  89.1006523
  58.6221027   4.0172341  50.3409100  57.9636621   4.6558362  50.0672722
  59.4094753   4.2616680  49.8545742  79.6289968  19.7124958  36.1557245
  80.4918861  20.1006317  36.0108113  79.6776581  19.3427813  37.0372987
  70.8528328  71.5215206   8.6417168  70.9680271  71.3719654   7.7033156
  71.3603163  70.8255529   9.0592384  68.6565399   9.4506621  45.0271797
  68.4439802   9.2772591  44.1101265  68.5150003  10.3915095  45.1320839
   1.9622038  70.3149016  71.3641763   2.1975850  70.0188930  70.4848552
   1.1219119  70.7589884  71.2504697  69.4446421  22.4729848  41.1306334
  69.3622828  21.5650368  40.8389473  69.3273830  22.9917884  40.3348160
  48.5354948  35.5437779  26.2332082  48.9170837  36.4067340  26.3942242
  47.7104855  35.5523705  26.7185068  73.0018663  38.8488054   8.5208762
  72.8557301  38.0331469   9.0000224  73.3814812  39.4424415   9.1687328
  81.1171436  13.3245850  32.7751303  80.6661987  14.0662134  33.1787014
  80.6200981  12.5579405  33.0604959  46.2705421  17.1051133  10.4031539
  46.2571907  16.4328885  11.0844529  45.5052233  16.9124007   9.8615068
  85.3607655  59.3422747  25.0974441  85.9763622  58.6115694  25.1552701
  85.2506733  59.6348715  26.0021520  82.4234295  12.9520965  16.8271363
  82.3856258  12.0428419  17.1238852  82.0556736  13.4563804  17.5528646
  71.7728567 102.7717686  10.8508503  71.2835741 101.9538879  10.7618690
  72.6676226 102.5442886  10.5980992  67.4758434   7.5383317  18.7254691
  68.3507538   7.2817290  19.0168774  67.5929213   7.7909154  17.8096485
 102.0286274  38.8586307  25.8158731 101.3554573  38.3715749  26.2911105
 101.8116856  38.7284160  24.8927188  48.4455538  23.0165029  13.1298363
  48.4026670  23.3491206  12.2333109  49.0379858  23.6183047  13.5804904
  84.0291214  41.8232822  13.5821915  83.1379604  42.1581888  13.4826517
  84.2755890  42.0602942  14.4762337  88.8239193  63.3787966  16.6552019
  88.4917450  63.4690046  17.5483739  88.8492012  62.4340582  16.5033400
 103.3865257  14.8268391  91.3071608 104.2510553  14.9408747  90.9124238
 103.0755087  13.9888550  90.9646980  75.1948166  12.7738297  11.0646605
  75.9832096  13.2359362  11.3494921  75.1512003  12.0032012  11.6307533
  91.8907261  28.4733009  36.5632629  91.0155392  28.8522959  36.4817595
  92.0232487  28.3772278  37.5063634  63.5722637  44.1052532   4.3569469
  63.1219053  44.0480709   5.1996428  64.0786171  44.9157906   4.4104987
  64.1653538  25.5454755  22.6006627  64.4090176  24.8814917  21.9556928
  64.6434307  25.2975321  23.3919883  48.5742521  82.3295689  41.8825150
  47.7236938  82.7171612  42.0888281  48.6279440  81.5566826  42.4446440
  21.3180254  65.0677414  83.7186551  21.9958781  65.6947429  83.9708757
  20.7919310  64.9525351  84.5099753  52.5364160 103.5806028  23.0342317
  53.4544706 103.6731711  23.2888675  52.3039197 104.4316007  22.6627803
  68.3243561  59.6185207  33.5566878  68.8926554  60.2689123  33.1440639
  68.0215502  60.0406551  34.3606400  68.6984777  47.2883940  22.3202872
  68.5130215  46.3503170  22.2772646  68.7049723  47.4885750  23.2562971
  40.4235887  10.2445628  90.7646313  40.9098195  10.5492045  89.9984685
  40.7903432  10.7430817  91.4948378  88.8402939  52.4087143  60.1942205
  87.8919697  52.4793577  60.0850439  88.9661598  51.5873909  60.6694221
  74.2745876  61.9106293  24.3316841  74.8264599  61.2243748  24.7068167
  73.4957457  61.4487410  24.0213585  25.5889033  98.2450874  51.3988328
  26.4499186  98.4498985  51.7634463  25.3274249  97.4374969  51.8411684
  76.8824911  78.1047487  38.6007261  77.0734882  77.2111607  38.8857722
  76.0542822  78.3209562  39.0291643  61.4937735  72.8090191  17.0762575
  61.9559526  73.6465931  17.0432651  61.1557007  72.7570629  17.9702604
  61.7707968  50.8279467  10.3116751  61.3169432  50.0123644  10.5239928
  61.1188984  51.3500881   9.8440951  83.1003189  50.6417465   5.8645803
  83.2801247  49.8486805   6.3695049  83.7467194  51.2754679   6.1757058
  86.7559242  66.6404629  25.0897861  86.6458511  65.7681465  24.7113991
  87.3206329  66.5021849  25.8501911 104.4608593  30.1472497  26.5338731
 104.2559910  30.3293395  27.4509907 103.9140320  29.3937945  26.3113379
  46.1499929  54.8029375  30.7436013  46.2648106  54.4130421  29.8769808
  45.2244377  55.0447798  30.7767177  53.7423085  18.9399411  85.5796975
  53.4204149  18.5204865  84.7817802  53.2690000  19.7709013  85.6211442
  38.9417742 104.9531228  74.0424752  38.1328391 104.4678886  74.2049813
  39.3812178 104.4608028  73.3491182  57.9731512  62.2958088  18.1470454
  57.6812887  62.5278664  19.0286338  58.9211130  62.4270439  18.1662846
  87.2168827  50.7852221  12.6425946  87.1393204  49.8330927  12.7031457
  88.0781364  50.9309578  12.2511518  66.4998627  79.3003750  10.2765512
  67.3992157  79.2810917   9.9494064  66.1807394  78.4064722  10.1527345
  34.7388744   4.0345599  85.8818817  35.4322242   4.2574145  86.5030330
  34.4389104   4.8787142  85.5447525   6.8096446  74.5469243  85.1386929
   5.8651827  74.3989046  85.0906414   7.1737765  73.9977748  84.4443756
   4.9373339  93.6900575  72.7312160   4.3061303  94.3373687  73.0455434
   4.7944020  93.6558063  71.7853677  75.8623123  80.6139278  47.2614956
  76.7029381  80.4600239  46.8303394  75.9881544  81.4287663  47.7477360
  55.1101971  45.1096296  36.2966776  55.3923178  45.6911659  37.0026922
  55.1335096  45.6570005  35.5117750  91.7642021  62.2268438  19.4995511
  92.3744965  61.8569613  20.1374793  90.9008598  62.1016645  19.8935258
   5.3060006  99.0662391  74.2581987   4.3878888  99.1993720  74.4939423
   5.7723711  99.7746570  74.7019076  90.5103016  71.8440676  10.0368416
  91.4421749  71.7021704  10.2032948  90.0657368  71.2526703  10.6441700
  51.6285419  22.9153180  27.8378201  51.8802214  23.6297488  28.4230351
  50.7439709  23.1414795  27.5503850  71.3337517  62.7251530  49.1833639
  71.2639284  63.6356831  49.4702244  72.2558117  62.6175976  48.9499712
  11.7425060   4.9547316  88.9169402  12.6935004   5.0069453  89.0124349
  11.4680337   5.8574845  88.7559018  75.5894089  55.0801945  18.1775355
  75.3572893  54.2720222  18.6349261  75.5376434  54.8532677  17.2490656
  78.5330915  52.2722340  11.5013802  79.2668962  52.5984287  12.0223069
  78.8698292  51.4798307  11.0831237  76.7100430   7.4627173   5.5623043
  77.2150850   8.0524474   5.0024962  77.3370552   7.1609223   6.2195796
  83.3242989  62.6929569  30.1588058  83.9822483  63.0728865  29.5765781
  83.1722546  63.3673668  30.8208346  82.5028324  44.5378923   2.0763345
  82.4055386  44.9014139   1.1962097  83.3081818  44.9325705   2.4108070
  24.7460555  10.3919245  87.6217598  24.4131088   9.6143652  88.0698451
  24.6711301  10.1823641  86.6907912  39.5202661  65.9542370  32.1213174
  38.8551331  65.9519958  32.8096652  39.1605234  66.5252304  31.4425063
  17.8893946  97.7029474  81.5030879  17.1012209  98.2125671  81.3152027
  17.7453421  97.3546750  82.3829669   1.3855413  59.4558001  10.9487450
   1.1261037  60.1813030  10.3807938   1.3762525  58.6885262  10.3765273
  26.3446116  38.2557178  30.6953335  25.7200980  37.5399327  30.5775809
  25.8734274  39.0354300  30.4016256  84.6401691  77.1023417  13.5295022
  84.1262436  77.0692873  12.7226412  84.5399570  78.0020094  13.8406098
  73.8765240  49.8160315  29.0094781  73.1271124  49.2438841  29.1745949
  73.9039707  49.9058771  28.0569005  91.2128925   6.8355656   9.2388469
  90.8177376   6.7808503   8.3687377  91.1779022   5.9398460   9.5745462
  94.7498989  52.9823637  10.0107741  94.9012661  53.8751554  10.3210020
  95.5109310  52.4897718  10.3180456  50.6239652  22.6551033  80.4718125
  50.3437948  23.5359026  80.2229619  51.1659192  22.3604227  79.7399127
 110.8164640  98.6513955  81.2788296 110.9667201  98.2372672  80.4290342
 109.9231763  98.3998020  81.5132743  11.8910311  92.6165969  80.6874120
  12.2659300  91.7425973  80.5787385  12.6465605  93.2042272  80.6774437
  62.6679993  69.5158386  37.3867226  62.1227217  68.8537884  37.8116870
  62.8209925  69.1713428  36.5068650  91.6022778  54.9592447   8.1876409
  91.1622906  55.8069944   8.1247169  92.4335384  55.0862980   7.7303588
  89.2041874  35.0821090  23.6333942  89.2969418  34.1457319  23.8089657
  89.6253586  35.2092695  22.7832890  53.1077528  16.6689849  29.8966241
  53.6276627  17.2284806  30.4735899  52.2552204  16.6071725  30.3274345
  17.4335478  79.2876394  79.7782767  17.6354311  78.4010417  79.4792438
  17.3072051  79.7891266  78.9728069   6.1262320  80.9845168  87.0693088
   5.8491419  80.0922043  86.8613815   7.0071600  81.0536392  86.7013228
  53.3385324   3.8093830  85.4269606  53.4393644   3.2624413  86.2060112
  53.9170217   4.5560624  85.5820203  23.3936214  10.5853201  78.8270307
  23.5792112  11.5206934  78.9098608  22.5865697  10.5457903  78.3138692
 100.1404138  93.8963373  83.4511751  99.4124790  94.4334895  83.7639171
 100.5395122  94.4164426  82.7537227  71.6026115  70.8757877   6.0961747
  72.2637653  70.7509851   5.4153448  71.5488386  71.8250656   6.2066847
   3.7484454  71.6511149  80.0508428   4.1046093  72.4549599  80.4292822
   4.4053505  70.9828777  80.2462125  52.6665831  24.7013998  23.1917048
  53.4364033  24.9676204  23.6944294  52.9278040  24.8113608  22.2774267
  74.5774937  12.7760148  17.2180736  74.1773796  11.9893467  17.5886059
  75.0265455  13.1869912  17.9567766  62.5587510  22.6791359  79.5894992
  61.8553876  22.6220061  78.9427745  62.2911119  23.3897377  80.1722944
  64.2944956  50.8475304  18.4699774  64.0301752  50.4870987  19.3164134
  65.2485943  50.9047794  18.5214412  82.8648567  65.5328274  20.1600075
  82.8363800  65.1535797  21.0384107  82.4224281  64.8891068  19.6067393
  19.0587476  35.1562047  12.1504915  18.1951287  34.8824883  11.8414927
  19.2350629  35.9701490  11.6786468  48.9752626  21.4380289  89.3791825
  48.1180619  21.4283921  88.9533383  49.4281720  20.6736065  89.0231508
   1.2857297  67.8658295  23.6569166   1.2302354  67.2688055  24.4030499
   2.2074655  68.1216955  23.6229372  72.4747944  76.6424274   2.0325375
  72.7724981  75.7769489   2.3128043  72.9547548  77.2534466   2.5915802
 100.8822727  47.4827003  20.4180551 100.6340981  47.9992723  19.6513772
 100.1398849  46.8958521  20.5619836  58.4548187  50.2099609   5.8984500
  59.1673851  50.5996132   5.3918391  57.9711390  50.9589434   6.2467480
  94.4178481  85.8737738  63.1445122  93.7883373  85.7512696  62.4339199
  93.9482637  85.5960567  63.9310217  89.7620773  69.1107655   6.3143969
  90.6961155  69.0842342   6.1067855  89.4654560  68.2079601   6.1995441
  68.7649965  19.4861507  13.1695127  68.2295513  19.5706201  12.3805928
  69.6394968  19.2731321  12.8437757  89.7212029  29.4953561  24.1622329
  89.6225929  29.7474122  23.2440948  90.6674004  29.4803548  24.3061948
  82.7536774  53.7724829  27.8999186  82.0306396  53.9433050  27.2963715
  82.3470211  53.3198404  28.6388254  86.8955421  27.5940990  13.2436621
  87.0905781  26.6570330  13.2536542  87.0387363  27.8781867  14.1464472
  84.1309834  49.0564060  33.4815979  83.8887501  49.0273905  34.4071841
  84.7486496  49.7849178  33.4183979  12.1144961  75.1680334  77.8077614
  11.7902182  75.8171184  77.1834493  12.8044795  75.6235034  78.2901442
  64.6171236  72.0687580  50.6143093  64.2510605  72.9480362  50.5189133
  64.5254087  71.8709612  51.5463495  36.1522174  24.5816064  28.4818363
  36.6187382  24.6914124  27.6532626  35.3679824  25.1224613  28.3886480
  64.1509151  18.7008429  16.2042356  63.1952715  18.7074375  16.2583411
  64.3721914  19.5270658  15.7745564  57.6686764  55.9174013  33.8007450
  58.1800461  56.1470747  33.0248713  57.8664970  56.6096449  34.4315338
  85.5043697  76.7472506  19.7621894  85.7359409  76.9649458  18.8592958
  86.2642002  77.0196486  20.2766657   0.6367516   0.2902295  86.4947742
  -0.3097201   0.2026106  86.6076756   0.8368682   1.1671139  86.8222743
 103.7338543  87.7426720  11.9789159 103.2674599  86.9489861  11.7166674
 103.2716942  88.0447292  12.7608395  54.5354176  57.9003191   7.4548674
  53.7532902  57.5929976   7.9131961  54.5238161  57.4314260   6.6204596
  90.2891636  24.0539408  12.7884912  90.4952240  24.9475741  13.0627012
  90.3345203  23.5396123  13.5944951  19.9311636  66.7304225  82.1529311
  20.4903220  66.1345799  82.6514786  19.1027544  66.7389603  82.6323998
  74.5207882  61.9870424  21.2352967  74.8661041  62.3765182  22.0385981
  75.2010489  62.1452951  20.5807471  96.5436840  26.5974522  15.6681263
  96.3509655  27.4301171  15.2371275  96.3733482  26.7626858  16.5954423
 111.3053985  91.8649728  68.1028891 111.8972965  92.5642378  67.8255510
 110.7632394  91.6908700  67.3334837 107.7912851  92.9333122  86.8097901
 108.0162902  93.4951312  87.5513887 108.5489745  92.3574979  86.7069829
  98.3400440  56.2683058  34.0979338  99.0876484  56.2742758  33.5001969
  97.7460194  55.6129932  33.7319708  48.2563639  82.2791672  17.3739254
  47.5225306  82.8205013  17.0829368  48.6605167  82.7831841  18.0802214
  83.5503769  54.1087294   2.6856631  83.5447884  54.9588633   3.1255180
  83.5955524  53.4708405   3.3979046  97.1238041  44.9137306   3.9516616
  96.2035275  45.0340128   4.1858557  97.3716545  44.0892935   4.3701237
  77.8364563  10.5770504  26.9007325  78.3410740   9.8139036  26.6193080
  77.5599670  10.9953260  26.0853601  76.8183851  51.1542702   7.6522160
  77.3820210  51.0411453   8.4175563  76.5734339  52.0794344   7.6698071
  71.0702229  54.8363924  48.0470657  70.7418251  54.1663313  47.4475670
  71.9722700  54.9885511  47.7652931  18.4339713  85.5278284  90.2163067
  19.2452429  85.7291229  89.7498982  17.9809092  84.9029953  89.6501300
   4.7637323  35.6368637  46.6994190   5.1162484  34.8567653  47.1276808
   3.8236669  35.4693508  46.6327572   5.9192370  70.8870215  90.4043739
   5.7339953  70.3510923  89.6332079   5.8505438  70.2791686  91.1405993
  75.9691811  70.2923203   2.8142846  76.6109276  71.0004711   2.7603012
  76.2359428  69.6749115   2.1331963  68.1880903  10.8300616  58.9862800
  68.1256246  11.1335637  59.8919392  67.9199838  11.5845658  58.4617996
  43.4603930  49.5777082  19.0574884  43.4583330  50.0428343  18.2208979
  43.9648533  48.7820911  18.8879406  63.8771725  50.3818846  36.7276454
  64.8306751  50.4389763  36.6659307  63.5580492  51.0865355  36.1638594
  85.5142307  66.7465591  21.8768859  85.6625748  66.3798428  22.7485204
  86.3487148  66.6298485  21.4227343  13.5043524  75.9925444  83.7436253
  13.7568186  75.1532919  83.3587229  14.3227099  76.4857705  83.8005894
  73.8171959  66.0821915  11.5892529  74.3654728  65.4691887  12.0789993
  74.4175482  66.4996815  10.9715915  73.1065750  57.8155041  23.8825583
  73.4689808  58.2655478  23.1194353  72.4243021  57.2477961  23.5241747
  53.3013630  29.7673941   0.0158095  53.4873772  30.5008698   0.6020209
  54.0858841  29.6897626  -0.5270872 101.8671227  51.1337566  13.6203349
 102.7516937  50.8801699  13.8838792 101.3963890  51.2530422  14.4452035
  86.9013500  41.1490202  20.1405835  87.3596954  40.4047489  20.5307221
  87.5639153  41.5835857  19.6035659  57.4161768  83.5768700  24.0540957
  56.5963602  83.9261818  23.7046456  57.2360706  83.4261703  24.9820423
  96.9239616  44.6814537  30.8330059  97.7347660  44.6191931  31.3379335
  97.0755577  44.1275263  30.0672269  43.5107994  46.6786718  26.6846538
  42.7999830  46.3887310  26.1128926  44.1885805  46.9903946  26.0849285
  53.6075211  51.6658974   6.9015616  53.2202625  51.3589096   6.0817939
  54.0774822  52.4641180   6.6602939  49.3802786  59.2345524  16.5114534
  49.8927784  58.7766743  15.8451736  49.0792513  60.0320196  16.0759604
  49.3978643  26.4025856  84.7426182  49.4254064  25.8133198  83.9888000
  50.3026151  26.4365221  85.0532782  82.4225616  46.4022064  15.0276899
  81.6037655  46.8470383  15.2466238  82.9556274  46.4785433  15.8190453
 103.4272480  70.1630735  13.8994527 104.0898705  70.5951929  13.3605337
 102.9840946  69.5634508  13.2991970  42.0021867  11.0565735  81.2390029
  41.8168020  11.9914032  81.1498022  41.3154840  10.6265236  80.7293725
  66.8201923  57.4633980   1.5391809  67.0140982  58.3975077   1.4612383
  65.8879614  57.4293852   1.7537136  76.0778284  83.1827831   0.2176823
  76.3916731  82.6525879  -0.5148683  76.4349604  82.7528954   0.9947837
 109.8696899  26.4699006  26.2962580 109.5460224  26.0809112  25.4837561
 109.9550247  27.4024415  26.0979700  74.2362452  67.0550728  28.9275026
  73.9028883  67.6582050  29.5918345  75.1877356  67.1476555  28.9757991
  59.0899372  33.9277244  37.5139976  59.7013044  33.3034444  37.9048109
  58.8213396  33.5173368  36.6920042  85.8723164  43.5856152  22.5977135
  85.4043961  42.9321861  22.0777965  86.6220093  43.1124258  22.9586601
  37.9937530  21.9813776   8.0364418  37.6417017  22.0318246   7.1477652
  38.3643675  21.1009598   8.0976224  59.0944386  50.5712223  13.3151734
  58.8940525  49.6358538  13.3493066  60.0455523  50.6088781  13.2141900
  68.0595160  27.8001785  15.7663703  68.6678791  27.6910973  15.0354648
  68.1057119  28.7322283  15.9793925   4.8862413  26.2502027  11.7986143
   4.0809396  25.9636784  11.3677740   4.8226693  27.2051573  11.8144906
 104.1731548  47.7451468  26.4326930 103.2645702  47.8798819  26.1633515
 104.4753647  48.6135197  26.6988277  83.1444168  37.6112008  27.4017739
  82.3857784  37.8721356  26.8796492  82.8219604  36.8982220  27.9530644
  85.6117916  51.1080694  15.7911098  85.1022339  51.2901402  15.0015342
  86.4877701  50.8976698  15.4676354   5.3888796  88.9768393  89.1321564
   4.6645974  88.3554132  89.0581359   6.1708449  88.4276683  89.1884436
 103.9782047  66.9531727   3.8232094 103.0530357  67.1780825   3.7246227
 104.0059090  66.0020685   3.7189525  43.5969448  31.0294223  24.5049763
  43.3752155  30.0986814  24.5330858  44.2287922  31.1466455  25.2143836
  55.7954693  48.9720154   5.5375910  56.6820288  49.3034124   5.6805044
  55.9195137  48.0567741   5.2862340  90.2053642  53.4271049   6.6102797
  90.8235741  52.7595186   6.9075584  90.6129932  54.2575216   6.8562084
   6.7880872  50.2853441  30.3671312   6.1193708  49.6005201  30.3590488
   7.5715974  49.8591375  30.0197077  92.1848774  15.6013155  20.5584240
  92.6709557  14.7769022  20.5411053  91.6759300  15.5623114  21.3681674
  94.9150753  57.0692825   3.6222497  94.1697025  57.3633957   4.1458380
  95.5023003  57.8247309   3.5959896  79.6859121  59.5187092  42.4942398
  79.6467257  59.7774935  43.4149599  78.8178587  59.7280741  42.1494484
  97.9391479  42.8640223  56.0750914  97.4281216  43.4045410  56.6775227
  97.5448418  43.0229425  55.2174759  71.8149948  72.0574570   2.6830459
  71.6736794  71.8781757   1.7534661  70.9647083  71.8928909   3.0906749
  61.8288660  26.5647411   6.7217672  61.0336161  26.8196845   7.1895409
  62.1166563  25.7627964   7.1579933  98.6047745  46.9717884  39.1490817
  98.5341644  46.9024086  38.1970143  99.1471386  46.2254238  39.4040513
  99.5457077  48.5262394  41.2198973  99.1907501  48.1391907  40.4196262
  98.7945747  48.9510918  41.6340590  91.1655998  59.8035669  15.1419628
  91.4580631  58.9098263  14.9632871  91.9535446  60.2584791  15.4393291
  70.3050232  37.9264951   3.2059485  70.6065941  37.8358340   4.1098660
  70.0611734  38.8486695   3.1261650  95.5384254  50.5219555  27.4440765
  96.3405609  50.7880688  27.8935194  95.7907581  50.4552364  26.5231466
   9.5302199 104.1095502  79.1223001   9.4904612 105.0237281  78.8413501
   8.6899565 103.9548595  79.5538890  63.8728666  46.6608238  10.6299233
  63.0622959  46.9446659  11.0525811  63.7336588  45.7321978  10.4441571
 111.6466232  82.9963691  87.9614547 111.7943473  83.5451944  87.1912587
 111.4584203  82.1283800  87.6045141  98.2371660  98.5065420  68.2031965
  97.5391622  98.6126096  68.8495517  97.9702325  97.7474220  67.6848149
  80.3955936  28.1323981  55.6210709  79.4653034  28.3540726  55.5802965
  80.8395100  28.8916683  55.2433443  24.9766444  79.5586522  90.3933233
  24.8781966  78.6118085  90.2931803  25.7908724  79.7646816  89.9341802
  68.3014870  62.0104647   5.7550073  67.8915215  61.6976213   6.5614098
  68.2552958  61.2639856   5.1576233 101.2118721  49.0551567   9.3299901
 100.4820442  48.4552383   9.4838780 101.1905670  49.6545792  10.0759590
  23.7504958  98.4760625  76.3577318  24.3195437  99.1531379  76.7237711
  23.0898951  98.9604003  75.8624995  47.7245808  28.6414480  11.2040365
  47.1938086  28.7236953  11.9963419  48.6189651  28.5279298  11.5256202
  38.2727432   1.6289641  88.8309599  37.8724527   1.5879513  87.9624450
  37.6891994   1.1139895  89.3881953  15.9956549  81.3626273  80.5813634
  16.5695189  80.6221325  80.3849471  16.0095309  81.4297325  81.5361083
  46.7570686  45.8733559   6.1417353  46.7268419  45.3628445   6.9508660
  46.3091946  45.3262806   5.4964864  45.1524209   7.7554871  67.7689362
  45.1984548   7.1297337  68.4918118  44.7842454   7.2542311  67.0413232
 107.3752975  70.2602625  36.4284682 106.4857101  70.2735996  36.0753608
 107.9187679  69.9661589  35.6974578  75.9672976  55.2143860  44.6502447
  76.8623304  54.8781538  44.6960163  75.4313517  54.4439411  44.4620609
  73.8523531  22.3421025  17.6477635  73.4370756  21.4871573  17.7611232
  73.3117914  22.7862048  16.9944620  22.7508544   7.2894455  82.2129172
  22.8387594   8.1308819  82.6606780  22.2352933   7.4869419  81.4309812
  65.4884911  71.3276720  23.1136823  66.2587643  70.7642794  23.1878471
  64.7872066  70.7390499  22.8344893  49.4029474  14.4883181  59.2303061
  50.0087308  15.1104046  58.8274789  48.7185334  15.0356127  59.6153712
  71.6727829  46.8157005  14.5143652  72.3179483  46.5739679  13.8498628
  70.8846235  47.0311785  14.0157664  68.5392904  37.4715352  14.4630861
  67.9533625  38.2275152  14.4254637  68.8714552  37.4703956  15.3608036
  14.3910502 105.0010164  81.1781192  14.2313670 104.4545371  80.4086447
  13.7132071 105.6756408  81.1376131  50.6969213  26.7329718  71.3850629
  51.0278558  27.5763346  71.6940296  51.1937951  26.5590264  70.5856323
  37.3034857  77.8731282  65.8165526  37.0748423  77.3478825  66.5834117
  36.4858244  78.3053143  65.5698204  69.8774815   7.6756161  13.6353981
  69.3643045   8.4481722  13.3986771  69.2238569   7.0002443  13.8167250
  30.6209707   7.9797770  80.4233491  30.2441406   8.6845948  79.8966002
  30.5579900   7.2042109  79.8658907 110.4799080  47.4434662  30.9421396
 109.9251556  48.2183504  31.0317898 111.3414574  47.7910662  30.7116604
 107.6825137  84.9491603  88.8295467 107.3525234  85.3992493  89.6072079
 108.5411306  84.6168454  89.0914163  96.6883278  67.5338173   1.1875539
  97.1635532  68.3148623   0.9040686  95.8726788  67.8710270   1.5580115
  45.3031968   0.5708195  65.3444624  45.3568506   1.5105940  65.1707268
  46.1973809   0.2527834  65.2198696  60.4261732  49.9867773  16.6743624
  59.5697880  49.5918989  16.5103412  60.9871578  49.2500544  16.9167817
  97.6215692  88.6104209  71.5881896  97.7516742  88.4710319  72.5262070
  96.7630573  89.0289862  71.5250552  63.8770627   2.5042845  79.5312786
  64.4353151   3.2607104  79.3512428  63.5420560   2.2442032  78.6731672
  58.3645533  98.7093933  86.6525060  59.2395781  98.9552314  86.9527283
  58.1952857  97.8661735  87.0726913  72.8356123  90.9172249  41.1988783
  72.0707178  90.3428745  41.1628771  72.9724741  91.1909676  40.2919245
  96.8135452  64.9662018  18.5416150  96.0861969  65.5141068  18.2466698
  96.8171883  65.0651121  19.4936836  91.4044189  45.0184870  20.7732582
  91.2123871  45.6526947  21.4640093  91.8827629  45.5205107  20.1134181
  81.5615082  68.8343239  42.1941423  82.3845577  69.0521431  42.6316023
  81.7955112  68.7548208  41.2693977  78.3475446  30.5104567  86.1418021
  77.6790475  30.3422095  85.4776990  78.5503530  31.4411189  86.0470897
  73.7004995  20.0008799  68.1471491  72.9995202  19.4761731  68.5338545
  73.7145471  19.7403218  67.2262025  73.4811020  59.4548702  21.3015151
  72.8818130  59.5855522  20.5666661  73.8837910  60.3125143  21.4376140
  81.5437222  99.5085526   5.4761153  81.1500549  99.2142200   4.6547589
  81.9844532  98.7324810   5.8220983  54.9605226  29.0506388  83.5823035
  55.4674291  28.8356615  84.3652880  55.3500413  28.5159136  82.8905123
  94.7731018  75.5682755   0.8975035  94.0166759  74.9824572   0.9270163
  95.1329231  75.4507208   0.0183347  80.0484562  31.3838458  32.4808145
  80.4902744  30.8709931  31.8040466  79.9027634  32.2390771  32.0763636
 107.9063606  90.8343792   4.7180536 108.6414242  90.2900410   4.4359002
 107.3912907  90.2641582   5.2888262  89.1021729  78.9628553  27.8514624
  89.2600155  79.8603773  28.1443214  88.7506199  78.5176659  28.6224675
  68.4086800  63.1909037  35.8189893  67.7939939  63.9109421  35.6777930
  69.0504265  63.2822371  35.1146793  35.9616708  14.7168709  44.7435236
  35.4722356  14.4775797  45.5305576  36.8476962  14.8967434  45.0579071
  74.7747421  86.3316059  24.0291786  74.9237299  87.1736431  23.5990620
  74.3706226  86.5586281  24.8666644  81.6891003  28.8647723  13.1085348
  81.7053413  28.5488176  14.0119398  80.9627342  29.4877410  13.0856895
  74.3269539  82.7372742  24.9214029  75.0005436  82.4672031  25.5455542
  73.8764095  81.9253445  24.6889925   6.4771703  69.9390364  11.4499891
   5.6095365  69.7861814  11.8242490   6.9264749  69.0981913  11.5356171
  99.7070408  40.3319168   2.4038471  99.8139954  41.1039829   1.8482313
  98.8862038  40.4853868   2.8717166  68.6795712  52.3069334  33.5574245
  68.3678436  52.3678732  34.4603872  69.4823933  51.7889357  33.6156392
  66.8496370  59.2955875  19.4714439  67.7073812  58.8709450  19.4579148
  67.0052767  60.1361370  19.9021196  90.9043026  68.1163216  14.2690992
  91.7874241  68.1304646  13.9001346  90.6026840  67.2179699  14.1340911
  14.4840005  71.5687227  14.8356652  15.2808145  71.0419846  14.8978102
  14.3987897  71.9767284  15.6973517  82.4741173  49.7784090  21.7739582
  81.6782570  50.2764750  21.9604230  82.2689247  48.8859320  22.0525575
  73.7527657  99.8774624  51.2175274  72.9151440  99.4849205  50.9714842
  74.4065475  99.3635654  50.7434988  19.0347193  97.5034101  87.1238568
  18.7900160  96.5809162  87.1970651  19.5135687  97.5592859  86.2969261
  29.3796634  32.2073485  74.6625137  29.0709399  32.9551531  75.1740992
  28.6052703  31.6552855  74.5540261  18.9021496   5.1154632  27.2472763
  19.2871860   5.8612365  26.7870569  18.4740452   5.5008430  28.0117655
  79.2598295  48.7743235  17.8935266  78.4049845  48.9521170  17.5012791
  79.4952488  49.5904255  18.3348703  91.5578651  95.7246780  14.6075404
  91.1646080  95.9805489  13.7732077  91.0995770  94.9205875  14.8517358
  92.4299145  69.5371199  29.6551609  93.1608105  70.1468706  29.5540333
  91.8243027  69.9850225  30.2457929  11.7875245  84.2398071  32.2600079
  10.9146550  84.3989754  32.6191664  12.1762994  83.5958099  32.8519177
  39.5750713  54.5160723  11.5897930  38.9885592  53.7804031  11.4136291
  39.5841646  55.0159216  10.7735217  77.7862072  64.1928911   5.9445250
  78.7365961  64.2108679   6.0570866  77.5460052  63.2766008   6.0821766
  21.1104201 101.2768943  84.6595091  21.6875075 101.7217739  85.2802241
  20.2425097 101.3288696  85.0598234  85.8002853  79.4461250  58.5547352
  86.7207718  79.3461466  58.3119631  85.7758522  79.2433834  59.4898987
   6.1198762  62.0637894  52.2652817   5.5346540  62.2501135  51.5310955
   5.6287339  61.4521360  52.8138113 107.5318714 102.5653560  80.1852560
 107.2474380 102.0696123  80.9530866 106.7401977 102.6623828  79.6560454
  91.5492821  43.7992382  14.2152238  91.3909817  42.8849602  14.4503069
  91.0016155  43.9465427  13.4441209  81.4935780  41.1942244  10.8360422
  82.2082806  41.2197590  10.1998210  81.7756939  41.7819548  11.5369046
  33.1745528 105.4117019  79.3682075  32.4202441 104.8234470  79.4029117
  33.9140032 104.8694522  79.6428323  19.2593526  25.8328129  78.4146631
  19.1060161  26.5768029  77.8322601  20.1983785  25.8617379  78.5980332
 105.5649467 104.1591747  74.2757475 106.2572809 104.7905548  74.0801585
 104.7834392 104.6950014  74.4112825   6.2520026  86.5602310  78.9569712
   6.3437937  87.2495396  78.2992041   6.3889121  87.0067150  79.7925186
  64.3881607  78.8808107  14.4886374  64.8985672  79.3086290  15.1761627
  64.1970348  79.5791531  13.8625205  47.5780439  11.7145516  67.6028204
  47.9183435  12.2249199  68.3376336  48.3400964  11.2444664  67.2644067
  94.5320034  68.0595875  34.7706914  93.8063812  67.4355268  34.7866249
  95.0090790  67.8929996  35.5836344 102.1262646  37.4794412  58.0842161
 101.7517185  36.6040277  58.1821918 101.9152737  37.7309728  57.1850777
  17.4854806 103.3622456   8.7234151  17.6350930 102.4646187   9.0202397
  17.4877694 103.3021355   7.7681071  70.4045010  80.5080891  33.8951063
  71.0536432  79.8775625  33.5831976  70.8685112  81.3452625  33.9034772
 110.4716206  71.7171907  12.9303992 109.9971008  72.4830246  13.2537556
 109.8463345  71.2718010  12.3586631  96.9749546  58.5049105   2.0620143
  97.7081966  59.1056919   1.9291539  97.3076725  57.6540613   1.7763868
  40.0987339  63.1688786  10.2841747  41.0477352  63.2595205  10.1981044
  39.9425745  63.1712914  11.2285471 102.1111012  56.1189032  53.6268282
 101.8445873  55.6066704  54.3902493 102.3042679  56.9884109  53.9773703
  92.8008366  20.9969234   0.6133215  92.9298401  21.5920138   1.3518722
  91.8868351  21.1248779   0.3594452  94.6060848  65.5865097  40.0227070
  95.2371120  65.8463621  40.6939125  95.1447105  65.3277540  39.2749381
  58.3551264  33.3828044  15.5122828  57.6482630  33.9238715  15.8641577
  59.1536236  33.8697577  15.7160306  23.0586146 102.8797824  76.4362395
  22.5662898 103.2708032  77.1580112  22.9993914 103.5229308  75.7297814
  73.5097646   5.2796055  85.7709438  74.3180417   5.4452349  85.2856719
  73.5780954   4.3650319  86.0450238  85.4004192  57.6564837  28.9798689
  85.6463623  58.3433867  28.3602643  85.7988358  57.9264307  29.8072910
 103.7401581  83.2102299  39.1221905 102.9949284  83.1726170  39.7217298
 104.0799713  84.0999413  39.2180061 103.8564110  49.1366100  64.5995998
 103.7412167  49.7799873  63.9002943 104.6324348  49.4348621  65.0740051
  55.0995064  65.6619024  27.0856142  55.8801985  65.1171207  27.1854091
  54.3685293  65.0476646  27.1535778  79.3575287  24.1059351  23.3763170
  80.1238918  24.6537566  23.2065868  78.7165689  24.3809938  22.7207685
  43.4540990  51.8225765  11.6401505  42.8586057  52.4461365  12.0558357
  43.9024881  52.3327446  10.9656811 108.5291862  44.4598007  19.7445321
 108.3924198  44.9767971  18.9506555 108.1272316  44.9792385  20.4408407
 106.6536999  80.0768661   7.5779176 106.4574337  81.0044098   7.4460876
 106.0857964  79.6212101   6.9565517  81.8907261  78.0360126  40.8757257
  81.8555164  78.5308790  41.6943264  80.9797955  77.8017235  40.6981182
  65.1985598  53.5682487  12.0062435  65.3522301  53.0136871  12.7711475
  64.2493916  53.5498714  11.8838882   3.3840612  35.5745101  19.4949722
   2.5524858  35.1021361  19.4552565   3.1775811  36.3840699  19.9621022
  61.0524271 101.8362625  78.0144691  60.8548354 102.2758777  77.1874702
  61.3517569 102.5376375  78.5930085 104.9446297  70.1425076  35.0912476
 104.4900513  69.9480581  34.2716289 104.3928051  70.7952023  35.5221796
 102.7072239  42.7174282  39.1769719 101.8881702  43.2070684  39.1018772
 102.6629734  42.0675993  38.4755516  99.7731018  36.2806177   6.6287869
  99.4688797  35.4879880   7.0708436  99.6702480  36.0894132   5.6965357
  95.4229832  94.9211502  24.3277979  94.5897293  95.3911781  24.2962575
  95.1770401  93.9962387  24.3109131  77.3445940  70.5605841  40.5102921
  76.4593649  70.7960558  40.2325296  77.3112202  70.5893946  41.4664745
  78.7197304  96.8782043  40.3019238  79.3235111  97.3314190  40.8903742
  79.1925049  96.0901451  40.0341892  93.2315254 102.1049786  30.7921290
  92.6258278 102.5639153  30.2101135  93.0977917 101.1780357  30.5942893
  74.0559340  82.0564365  17.9416060  74.9263287  82.3223591  18.2381439
  73.4655094  82.7111721  18.3143640  91.9489384  79.1349792   1.8734582
  91.8640900  78.9939642   0.9305120  92.8042793  78.7666464   2.0947129
  47.2086000   4.1446520  66.8544579  47.4743699   3.4888674  66.2098312
  46.3925313   4.5048071  66.5072632  90.8068180  76.6333103   5.3435427
  91.3384438  76.1010361   4.7516868  90.0166988  76.8330908   4.8415193
  63.9955758  13.3679940  71.9644129  64.9509763  13.3172680  71.9941103
  63.6997174  12.5549628  72.3738933 109.1541672  68.2856131  10.3040528
 108.7981319  67.6215029   9.7137755 110.0964260  68.2751226  10.1359189
  66.6132688  33.5276820  87.4155980  67.3707151  34.0362383  87.7052137
  66.9099473  33.0891348  86.6181672  89.7580528  65.7201767  10.9262800
  88.9797592  65.3975487  10.4719579  90.3208160  66.0557938  10.2285075
  40.2963018  91.5673256  32.5263977  39.5653319  91.5598202  31.9084501
  40.3429270  92.4734879  32.8312445  83.5817814  72.9674053  21.7713261
  84.3451214  73.2488632  22.2756338  83.3694363  73.7193823  21.2184501
  82.5822353  90.1255131  34.2577267  83.4626198  90.1613140  33.8837290
  82.6075172  90.7423306  34.9892569  95.3828239  43.5750771   0.1064108
  95.4165554  43.0201626   0.8856159  96.1274529  43.2898951  -0.4231422
  60.9230851  26.7186953  59.0240264  61.0500001  25.9542872  58.4620643
  61.7053174  27.2520758  58.8831305   1.2681344  61.8000603  19.7733974
   1.8537286  62.2363091  19.1545343   1.6346124  62.0033884  20.6339669
 107.5745296  73.6741209  31.9580197 108.5193157  73.7842226  32.0652580
 107.4062538  73.9214849  31.0487747  75.5880165  75.8252668  35.7429338
  76.2685156  75.7468748  35.0743508  74.8402929  75.3500938  35.3805065
  62.0205021  76.7760229  32.9395676  62.3984480  77.6454878  32.8075886
  62.6610756  76.3162661  33.4822607  10.9290746  83.4712029  22.1098256
  11.5734819  83.7220001  22.7716970  11.0510781  84.1061878  21.4040399
  97.2931480  33.2736254   1.3844477  96.9223213  34.1551900   1.4239044
  96.5378952  32.6919866   1.4711757  86.2079811  83.9815617   5.4123157
  87.1394348  84.1980743   5.3705639  85.9194183  83.9881039   4.4996706
  54.0920830  70.5578661  18.8812566  54.1567850  71.4430428  19.2397285
  53.1688261  70.3258562  18.9812553  12.3530296  10.9689635  37.1448064
  12.9139618  11.1734027  36.3966155  12.4050335  10.0169868  37.2300887
   0.2186826 101.9518852  10.7913911   0.8010438 102.5545311  10.3288829
  -0.6461284 102.1199131  10.4171026  73.2067156  76.1993599   6.7124087
  72.3733950  75.9710407   7.1243310  73.2045937  77.1560717   6.6818327
  86.0949230  60.2149343  28.0168509  86.8859863  60.7052231  27.7930975
  85.6777382  60.7341671  28.7043023 103.4914494  69.8453951  25.2632689
 103.2532501  69.2486715  24.5537543 102.6700974  70.2763510  25.4996896
  89.0439129  50.2925253   6.7960721  89.0051556  49.5916271   7.4468184
  88.2969952  50.8539057   7.0039326  57.6027822  72.9475021  16.8756616
  56.9338942  72.3636770  16.5179300  58.4325743  72.5229454  16.6578746
 103.9857769  94.7557259  34.0001750 103.7031841  94.9054050  34.9023747
 104.5244312  93.9657879  34.0458441  92.6572037  58.0343819   5.6547230
  92.7713776  57.1488714   5.9997898  91.7087555  58.1450272   5.5880994
  82.2929955  72.9724264   5.6561035  82.9824448  72.5263453   6.1479342
  82.4310493  73.9017296   5.8393103  60.7397699  19.7714116  81.2504804
  60.2041959  19.4215657  81.9625211  60.1250314  20.2674033  80.7098138
  64.8156595  77.3037577  26.0867739  64.3488693  77.0305824  26.8765306
  65.7052183  76.9715309  26.2073469  76.7975235  61.6775703   6.5321046
  77.3291445  61.3571978   7.2607857  75.9364986  61.8404341   6.9172585
 111.7168093  12.4295253  44.9191999 111.8108893  11.6224498  45.4251766
 110.7943679  12.4461574  44.6641445  13.4744981  75.6474113  10.1195526
  13.7627175  74.7409296  10.0125468  14.0112355  75.9864235  10.8359361
  78.6056042  65.6816483   9.7661364  79.1178608  66.4532089   9.5242250
  78.2188797  65.3831768   8.9429796  66.6197062  93.4537983  22.6287270
  67.2263336  92.7250862  22.4975300  66.5164900  93.5114670  23.5785961
  90.5342622  81.0653384  76.4785767  90.8293386  81.9435365  76.7192626
  90.0341792  80.7643850  77.2372425  96.4527798  44.6575975  35.0547814
  95.9309292  45.3967285  35.3671694  97.1390629  45.0576639  34.5207548
  52.5572872  88.4324646  16.5735161  52.4725533  87.7838230  15.8747256
  51.7941380  89.0003490  16.4670014  68.7737989  57.4984503   5.3137970
  69.5554686  57.9454327   5.6384915  68.2488298  57.3344946   6.0972261
  15.8575585  52.4601173  22.2568488  15.3349069  53.2575274  22.1719575
  16.6376737  52.6276302  21.7280865   0.3308538  50.2325964  59.4159746
   0.8072522  51.0026026  59.1055298  -0.0260875  49.8354149  58.6215734
  90.9527874  35.4555488   3.0097505  91.1718845  34.6317387   2.5743589
  91.7348099  35.9974074   2.9045829 104.8215485  72.8200197  22.6407337
 104.2676067  72.8534746  21.8608260 105.6796074  72.5498676  22.3136497
  89.9864197  65.5785990  25.8137321  90.8301544  65.5333996  25.3639412
  89.8954678  66.4989996  26.0603404  25.7058290  93.4548283   7.0938021
  26.5207246  93.3931732   6.5954244  25.7525399  94.3083286   7.5246012
  97.4858856  58.4040308  30.6306171  97.4796200  58.5774088  31.5719652
  97.7670479  59.2299318  30.2368283  73.3304452  36.7251707  91.4298691
  73.3311128  37.3983694  90.7494042  72.4386834  36.3774134  91.4218738
 106.8673801  51.0475206  30.0081539 107.6439095  50.8212614  29.4962549
 106.2111378  50.4019260  29.7458792  93.7571907  46.9370317  23.8240075
  93.4854221  46.8362617  24.7362685  93.1409836  47.5722551  23.4592938
  81.5777493  52.2363949  11.6806316  82.0745659  51.4184570  11.7004585
  81.9168282  52.7041435  10.9174359  94.9943161  71.8482351   2.9678285
  94.4753551  72.0512629   3.7460923  95.2229595  70.9240294   3.0668119
  69.6917725  57.5217676  20.6334233  69.6851301  56.6738749  21.0775733
  70.0767183  58.1230974  21.2709570   4.3151711  68.7743099  83.1166881
   3.6977528  68.3648021  82.5106102   3.7698983  69.3255706  83.6779594
  66.1508036  78.4837723  24.1746759  65.6763697  77.9693556  24.8277617
  65.5423975  79.1814852  23.9312220  91.7539787  58.0238485  23.5031652
  90.9624958  58.4333754  23.8525438  91.4793777  57.1392250  23.2617831
  83.9082527  48.5447168   7.4155140  84.1558838  48.1233263   8.2385218
  84.6074009  48.3087826   6.8057883  82.9271698  62.0308399   8.2616812
  83.2742214  62.4019194   9.0729058  82.8200531  61.0987377   8.4512699
  71.8062257  29.6135260  70.5063891  71.5327787  30.0893904  69.7221589
  72.7188443  29.8710944  70.6368089  98.4729958  73.6353827  22.6782990
  98.2203579  74.0202188  23.5175276  98.4659290  74.3708658  22.0657277
  70.9395981  63.8966846  45.1206350  70.8709621  64.8027086  45.4217005
  70.5611277  63.3788681  45.8311701  96.4955330  83.5298061   2.8428578
  96.3755608  82.5820637   2.7826983  95.6064701  83.8844776   2.8393057
  57.0116281   4.9774052  90.8074457  57.2143983   4.1890170  91.3109939
  56.5863370   4.6520592  90.0140294  40.6106046  81.7513561   1.1075793
  41.4070657  81.9223595   1.6102082  40.1595739  82.5951576   1.0790878
  34.5607567  85.0739956  13.0103230  35.4644752  85.1623344  13.3131766
  34.5019603  85.6619453  12.2572684  44.9544525  50.2581692  28.8796806
  45.5975676  49.7573280  28.3778954  44.2027235  49.6709633  28.9592171
 105.4496288  39.6928668  12.7855837 106.2113190  39.1407752  12.9623580
 105.3110600  40.1774979  13.5993171  54.4578743  61.7039251  15.4326248
  54.3161011  62.2359133  14.6496058  54.5778322  62.3412228  16.1366808
  90.2045059  54.4464636  10.4109430  90.7345486  54.4116688   9.6146506
  89.4163799  53.9475679  10.1960468  77.2474194  67.8365517  24.5053983
  76.4508390  67.3431301  24.3098879  77.8130960  67.6882219  23.7476110
  52.7582978  32.6350809  90.2610283  53.2614660  31.8217684  90.3006404
  53.4188127  33.3207919  90.1622938  24.1913560  79.0958452   2.3626933
  24.8639539  79.2733860   1.7051733  24.6447709  79.1895247   3.2004705
  88.1303120  76.0710287   6.9554472  88.8610935  75.5223227   7.2402257
  87.8772068  76.5585899   7.7393210  79.0426064  64.1544533  30.3990912
  79.0902758  63.4547138  29.7476864  78.5359716  64.8451900  29.9719739
  76.3872147  63.9224863  43.3984804  77.2687674  64.2953205  43.3889008
  76.5155029  63.0109930  43.6610651  72.5842381  66.6041994   9.0971667
  72.8319597  65.6963301   8.9221168  72.9900265  66.8048286   9.9405611
  91.8369389  75.1437807  50.1365089  91.6437244  75.8891773  50.7050896
  91.3357353  75.3145647  49.3390942  50.1230764  15.0209166  79.1168416
  50.7235574  15.7639910  79.1759431  49.8790693  14.9831177  78.1920350
  77.9311466  42.1601725  11.9030058  78.7667847  42.5952053  11.7336357
  78.1096077  41.5778732  12.6414573  95.8849239  58.9387083  16.0973811
  96.0052013  59.8827839  15.9949911  95.6334686  58.6333656  15.2257347
  77.4832582  23.9098144  25.3194737  77.7424669  24.2756534  26.1651731
  78.2092571  24.1235447  24.7334051  93.9383793  99.0450001  45.5911064
  93.5355473  98.1817341  45.6845427  93.4573174  99.4573975  44.8736572
 105.6392193  53.4572792   7.8436565 106.1355782  53.3342457   7.0345074
 105.1666451  54.2792320   7.7121228  80.1384640  54.6408510  18.9885354
  80.3716278  54.4001341  18.0919182  80.6878471  55.4001188  19.1832590
  62.6773786   0.0006415  90.7814700  63.4890222  -0.2071022  90.3185312
  62.9626607   0.2806355  91.6512122  94.1932678  53.7197113  19.5613658
  93.3676529  54.1219950  19.8310864  94.0655422  53.5076094  18.6367428
   8.1778768  63.5912752  52.3149681   7.5386289  62.8824997  52.2426271
   7.9076341  64.2261791  51.6515684  93.5943222  59.5807791  30.6773567
  94.3027687  59.1891813  31.1882234  92.8064251  59.1228342  30.9701705
  91.5032239 102.1686942  69.9566364  91.3192554 102.5741060  69.1092706
  91.8705078 102.8765066  70.4861021  61.3191747  28.8154150  54.9119830
  61.2558889  27.8797079  55.1035237  61.9069909  28.8663794  54.1582584
  92.2665119  62.4443674   3.4410018  91.4021969  62.7941322   3.2245266
  92.1624565  61.4947224   3.3811644  80.3823566  42.9042816  18.5325933
  81.2702370  43.2434130  18.6461794  80.4693031  42.2244310  17.8644073
  63.9274930  18.7930657  86.1570466  63.2856607  19.4930388  86.2767327
  63.4585332  17.9942728  86.3983789  16.4548682  59.2064978  72.0443869
  15.6895303  59.1696478  72.6180887  16.2714242  59.9312426  71.4466083
  73.7049150  74.1772747  46.6263771  73.8181067  73.4491539  47.2373295
  72.8149080  74.0717363  46.2902451  71.9953156  28.8000703  20.6476593
  72.4016428  28.0950427  21.1517119  71.0627651  28.5843110  20.6427884
  80.5732346  53.5770178  53.4718323  81.2829971  52.9610157  53.6534977
  79.8994303  53.0471897  53.0458021  10.0857213  58.0791569   4.0054873
  10.0580361  57.7232122   4.8936129   9.2365506  58.5060740   3.8919726
  65.4906034  15.0138928  84.9474502  64.5908784  15.2914263  84.7751379
  65.9563302  15.8247162  85.1521140   8.0917071  98.4856994  90.7895089
   8.6850928  99.1913087  91.0468888   7.3727320  98.9294965  90.3396732
  98.1393433  66.3270092  29.1774511  97.8568840  66.7016506  30.0117731
  97.9728508  65.3887224  29.2676210  94.3807316  56.2066364  27.6085210
  94.8680592  56.4850140  28.3839202  93.6200142  55.7422686  27.9576683
   8.6810544 101.5094662  14.5330501   8.9507535 101.8927193  15.3676808
   9.2816976 101.8874359  13.8907146  99.7590637  73.1071949   6.2579191
  99.5275974  72.3881578   6.8458307  99.0365028  73.1463146   5.6313336
 107.4309635  76.9694471  38.5589314 107.2568512  76.9894171  37.6179099
 106.8281746  77.6150608  38.9277935  85.2249527  58.8681793   2.1999940
  85.6971836  58.0898571   2.4957067  84.3291283  58.5639381   2.0544869
  95.4748249  29.2358589  22.0604539  94.5379925  29.3052840  21.8767166
  95.5542850  29.4597650  22.9876995  12.1396974  84.2067432  15.6074929
  11.4673856  84.2849922  14.9306595  12.0100930  84.9748611  16.1637604
  93.7391663  89.4343472  20.2662659  93.2521057  88.6148930  20.1796508
  94.3743706  89.2630863  20.9615445  97.4751377  40.4374886  32.5169969
  97.8732872  40.7721186  31.7134261  97.5002575  39.4857097  32.4183941
  55.5324458  98.5351331  85.6678396  55.0809287  98.9000804  84.9068075
  56.4197730  98.8898952  85.6127614  69.7545862  60.3991747  19.6516955
  69.6827936  60.3473759  20.6047940  70.5659914  59.9344587  19.4470167
  15.1097874  10.7206553   8.2303429  14.9585441  11.6656989   8.2459569
  15.0007347  10.4757899   7.3114401 100.9757233  42.1739292   6.0056138
 100.8411121  41.2898493   5.6642789 101.5470791  42.0534182   6.7640758
  75.6319666  51.9175577  19.1788745  74.7361565  51.5809107  19.1995645
  75.7730198  52.2770596  20.0547123  81.2931824  43.7043905  15.5409718
  81.9343376  44.4137573  15.4967344  81.8177986  42.9155827  15.6780398
  96.2595081  99.5478916  34.2293072  95.3396511  99.3083000  34.1166282
  96.2386990 100.4771996  34.4577622   1.2967160  65.2208662  28.8497806
   0.6480172  64.5264387  28.9646029   0.8630803  66.0098553  29.1748738
 107.9801750  67.1348906   8.0010140 107.0301723  67.1848726   8.1069565
 108.1718063  67.7287245   7.2751534  72.5461578  81.6416359  32.3751640
  72.5097895  81.1491585  31.5551782  71.9959021  82.4089909  32.2182894
   0.8645585  77.5533485  41.8299055   0.6400350  77.8633404  42.7072477
   1.6236261  76.9857073  41.9634104   3.4814981  67.2517157  15.5081558
   2.7930978  67.9138231  15.5709910   3.7423471  67.0906115  16.4149272
  90.1559544  85.5643654  37.7209115  90.1496983  84.6251869  37.5361490
  89.8001099  85.9667015  36.9286203  95.9087849  59.2321920  44.5502043
  95.2432919  58.9046335  45.1552343  95.4093742  59.6012211  43.8217545
  86.2363529  97.6869583  20.1137638  87.1514034  97.4143982  20.0457263
  86.2103558  98.5459995  19.6923351  84.6823311  73.3667326  17.4893284
  85.2980328  73.1225586  18.1803536  83.9716625  72.7300739  17.5657988
  90.1378441  67.4498463  52.0714569  90.0739479  67.2732973  51.1328554
  90.8032227  68.1343651  52.1416616  84.5675850  61.1053848  58.8814116
  84.0793419  61.0492992  58.0600119  83.8965797  61.0595942  59.5625019
  82.6775551  57.1413803  19.9208069  83.5444164  57.5030518  19.7364724
  82.0915794  57.6084089  19.3251991  83.4163952  54.3581581  24.1881657
  83.6847973  53.4421873  24.1161132  82.7593231  54.3611622  24.8842120
  84.9929905  90.9273815  42.0895481  85.6829548  90.7201385  42.7198076
  84.3501854  90.2266407  42.1990538  21.1526635  62.8444433  48.0509329
  20.9934762  62.0893478  47.4846077  20.4605439  62.7992249  48.7105989
  42.9737090  92.4604971  74.4443142  43.6617373  91.9441135  74.8640740
  42.3005770  92.5553758  75.1181996  22.0807698  53.5212994   6.4033806
  22.7496865  54.1984987   6.3024724  22.4048665  52.9685831   7.1145016
  87.7710342  74.9727821  28.7823033  86.8826675  74.6171570  28.7582278
  88.2359982  74.4138002  29.4048548   9.0421060  97.4585724   1.3977093
   8.6275247  98.1184292   1.9535226   9.5949796  96.9551277   1.9953042
 111.9333744 100.8199787  13.2387257 111.0338593 100.9815788  13.5232985
 111.9618702 101.1447239  12.3387468  87.2223568  81.0572433   0.4408652
  87.5390625  80.3114223   0.9504569  87.6813602  81.8117523   0.8099835
  21.6707996   8.5871333  35.4211736  21.2455753   7.8713912  35.8935452
  21.7854694   9.2732638  36.0786772  83.5020494  61.7772986  67.8614354
  83.1654023  61.5207507  67.0028973  84.4496679  61.6617419  67.7914238
   6.7834523  75.5868483  46.7102814   7.0919946  76.3478756  47.2020912
   7.3627427  74.8750114  46.9822073  26.8340401   0.8189410  33.0863643
  26.0084347   0.3889197  32.8634739  27.4121384   0.1040763  33.3528042
  91.8158531  75.3493071  18.6271906  90.9735107  75.7089615  18.3491004
  92.0138645  74.6739674  17.9783916 105.0029373  75.3963757  51.8722010
 105.1172733  76.1810446  52.4083471 104.0544891  75.2785158  51.8193531
  79.4363832  81.0420227  10.9816289  79.4212437  80.2449703  11.5114462
  78.9521503  81.6840076  11.5008724  13.3609822  66.6693211  27.7894211
  13.8999799  66.8169165  28.5665560  13.7242749  67.2606087  27.1301532
  88.3839130  63.5874462  32.7408147  88.8821697  62.8527021  32.3828554
  88.9528942  63.9561176  33.4165168  20.3624013  56.7823648  49.3100214
  21.2640336  56.6831923  49.6157408  19.9722913  55.9165096  49.4297504
  70.1474237  76.4792109  12.9586315  70.4440737  75.5815363  13.1083477
  70.9268761  76.9405556  12.6490557 108.0777073  68.9424276  29.5045304
 108.1463242  69.6630716  30.1307893 108.6714649  69.1851759  28.7940645
   9.2010167  67.9938745  47.2190714   9.0683511  68.8726711  46.8636274
   9.2106107  67.4235344  46.4504004  43.6508659  19.9595469  24.8885918
  43.9025501  19.8693675  25.8076978  43.5491279  20.9025401  24.7595310
  86.8728638  58.2325983  21.6031814  87.7977848  58.3252954  21.3748193
  86.8539238  57.5188494  22.2407031   0.1382211  50.5855322  23.6928535
  -0.1215407  51.2315273  24.3497014   0.0886109  51.0565042  22.8610134
 104.4911575  92.2365665  11.9432986 103.7334442  92.7878094  11.7477703
 105.1506519  92.8452682  12.2761691 104.1698647  97.8376198  17.8723192
 104.1096783  98.0013561  16.9311500 103.4249496  98.3088398  18.2455266
  62.6969861  43.4501959  88.0944520  62.6780843  43.8139559  87.2092664
  63.4565019  43.8620402  88.5064721  91.4275932  30.2552843  33.9391494
  91.9058609  29.4903016  34.2589831  91.5247726  30.9062982  34.6341062
  18.4344438  79.9048471  30.8791280  18.5951665  80.3471565  31.7126513
  19.2735723  79.5019150  30.6560898  74.4353104  91.2858868  38.6546683
  74.6898794  90.4438877  38.2772374  75.2413273  91.6288757  39.0405822
  77.0174551  88.7402153  13.6157000  77.8103256  89.2490387  13.7850916
  76.3778067  89.0776062  14.2427981  45.0374173  11.1889006  82.9934317
  44.2678785  10.6240727  82.9226929  44.7029351  12.0708777  82.8307307
  38.7043194   0.3972262  46.1466074  39.0579609   0.3622931  45.2578163
  39.4452671   0.1698035  46.7083073  66.1640786  12.0835663  82.0436174
  66.5959596  11.2344862  82.1372402  65.3997754  12.0280577  82.6171917
  87.2749280  13.1378151  82.9621035  87.9482602  13.2910515  83.6249560
  86.4788675  13.5136010  83.3380061  80.0262356  88.4029579  34.8951054
  79.5822430  89.2229748  35.1111579  80.5949879  88.6255169  34.1580701
  78.8901567  52.8855133  20.7050753  79.0726042  53.5188723  20.0109553
  78.0788136  53.1969452  21.1062765  16.2819722  75.5436897  35.0146079
  15.4436162  75.9768677  34.8541355  16.4247659  75.0030041  34.2377520
  68.1391954   1.9422985  82.5657636  68.2208490   2.8425576  82.8805679
  67.2763204   1.9103695  82.1526432  86.7718315 102.4182224   9.2782760
  86.3701057 102.1858883  10.1154578  86.5236664 101.7068005   8.6879146
 102.0777702  81.2771893  35.3587747 101.1622524  81.2484455  35.6366658
 102.1970177  82.1638203  35.0183201  68.6439847   7.2953345  71.3284385
  68.1251001   6.6791273  70.8114457  68.6284017   8.1065728  70.8206201
  20.2196458  99.7812557  25.5310130  20.5369714 100.2115154  24.7370315
  19.7894719  98.9859581  25.2168608  82.2774315  88.6634922  29.2551112
  81.9050694  88.4767628  30.1169133  81.8756294  89.4924545  28.9950919
  67.3101234  76.9009876  28.2703090  66.7447042  76.2003613  27.9452634
  67.7294731  76.5296793  29.0465212  77.4912500  77.5221968  20.8917832
  76.9913530  77.9742241  20.2120709  78.3967972  77.7953005  20.7447028
   7.3035291  93.1654644  40.1459599   8.0524114  93.4260082  40.6821728
   6.8129113  92.5574780  40.6990242  18.3740953  90.5488777  35.4270816
  18.5695985  90.7332420  36.3457870  17.6443914  89.9301147  35.4569912
 105.5063915  81.0328102  11.8677235 105.5141354  80.2952003  12.4777269
 105.3715038  81.8010616  12.4225521  88.5061169  46.7624807  14.7526646
  88.4939098  46.8884754  15.7014573  89.3792248  47.0486116  14.4842625
  74.7264576  48.5344839  23.0305481  74.3646765  48.6064100  22.1472740
  75.1952839  47.6999569  23.0301189  57.8417543  94.3620014  12.4070215
  57.3175195  95.0670052  12.7869797  58.7077668  94.7493649  12.2797549
   0.8374646  58.1577778  32.8104115   0.1162103  58.7709427  32.9520297
   1.1927465  57.9997683  33.6850786  76.8729734  17.3947835   7.1235985
  77.2007465  18.1633341   7.5906378  77.6021147  16.7748833   7.1410900
   0.6289290  92.2467334  84.5687747   0.3432129  93.0334861  85.0331193
  -0.1116277  92.0178563  84.0071541  11.1252497  68.8911779  82.2776902
  12.0190142  68.5559733  82.2065961  10.9378623  69.2586667  81.4139378
   1.2636712  10.3603339  18.3755744   1.2573007  11.1880267  18.8563204
   0.5805925   9.8356044  18.7930524  37.8817891  75.2739268  12.0995688
  38.5348844  75.2249366  11.4014995  37.1635007  74.7194272  11.7948973
  78.6537695  54.2161179   2.8640145  78.1858730  53.8381577   3.6086294
  78.0758333  54.0647697   2.1161406  37.8171945  21.4804506  16.6217721
  37.6626682  20.6506014  16.1704385  37.2847056  21.4243460  17.4152076
  90.1965809   6.2576967  30.8975863  90.8611870   6.3882315  31.5739703
  90.4161549   5.4122913  30.5060410  66.3492441  39.6422505  11.9875503
  67.1792698  40.1186609  12.0054877  66.1163330  39.5320988  12.9094243
   6.0131883  99.3726521  29.4770741   5.3871345  99.6479523  30.1467752
   6.8467044  99.7494596  29.7590327  43.1775856   1.2935697  10.7213616
  42.8795147   1.6629620  11.5525854  43.3254099   0.3669299  10.9103549
 105.5940004  63.2308681  89.6432330 105.5796810  63.3519108  88.6938250
 106.1797185  62.4864252  89.7809649  15.5149363  67.5851960  69.6138406
  16.1536597  66.8743319  69.5596838  16.0433863  68.3832462  69.6044111
  68.4215593  35.4758620  23.7808347  67.5565338  35.0737095  23.8597965
  68.7134552  35.5955195  24.6845555  35.3007029  52.2911543  85.9258944
  34.8108576  52.7974407  86.5739343  34.7031878  51.5888071  85.6691712
   0.9369181  95.0859792  89.5284902   0.1802872  94.5174701  89.6717907
   0.6411265  95.9529312  89.8062271  42.5363731  24.1395688  12.4432194
  43.3976889  24.4919324  12.2191525  42.3142242  24.5601654  13.2738709
  32.8230380 105.3376285  41.9128466  33.2731294 104.5589359  41.5853024
  32.4573182 105.7498671  41.1301947 103.9633274  34.3744874  32.1357751
 103.9799595  34.3601823  33.0927229 103.6156368  33.5173702  31.8894267
  71.1557817  44.4766712   6.6493094  71.6878271  44.0270090   7.3057878
  71.5817022  44.2743492   5.8163095  46.5581036  11.6846120  18.1779945
  45.6118202  11.5783489  18.0805731  46.8111706  12.2543859  17.4516714
  58.0746460  67.8834677  12.2879517  57.6206303  67.2115803  11.7793572
  58.0403137  67.5650740  13.1899917  66.6212273  23.0890942  39.2520785
  67.2229767  22.4404812  38.8867927  66.5327597  23.7482095  38.5636234
  43.8033437 103.9251393  11.5098369  44.2239618 104.2594313  10.7176483
  44.5212888 103.8121471  12.1327519  80.5925369  55.7276487   5.1125938
  80.3593636  55.2972651   4.2900181  80.2146721  56.6040993   5.0398427
  30.8497905  69.9458939   2.1528088  29.8985290  69.9701625   2.0491365
  31.0161685  70.4426986   2.9538929  21.0405062  62.0749749  83.1939673
  21.6576956  62.8066213  83.1922597  20.9009551  61.8815048  84.1209668
  53.6788321  24.1081476  17.4664474  53.2695961  24.5253706  18.2245243
  53.8633633  23.2144833  17.7554858  23.3398722  81.9142778  71.8404293
  23.0608939  81.6945107  70.9515500  24.1572569  81.4310534  71.9612813
  97.7090831  59.6335931  64.0022063  97.1970411  59.4686974  64.7939491
  97.0542188  59.7700335  63.3175421  80.6473537  88.8529403  84.2460990
  79.8490854  89.1256101  84.6984863  80.7998557  89.5381863  83.5953987
  83.8580894  15.5574191  27.3281550  84.6765995  16.0283017  27.1714830
  83.4580421  15.4778039  26.4622116  64.3179750  31.9375563  18.8647735
  64.2154837  31.0201740  19.1180241  63.4282541  32.2339058  18.6729407
  21.9531965  87.7697903  11.4196825  21.8830394  87.5791639  12.3550808
  21.3123178  87.1898764  11.0083377   4.5860146  76.0081560  91.1857168
   4.5657443  75.0662620  91.0164316   4.9994181  76.3824828  90.4077651
  70.6513833  93.6500066  27.3110151  70.8928918  93.3846634  26.4236045
  71.4495897  94.0366822  27.6709771  62.9010534  29.5747304  25.0872469
  62.8214931  29.5858145  26.0410690  62.1376181  30.0620508  24.7775412
  50.4923375  81.1497409  75.4305875  50.9893699  80.3888900  75.7310820
  50.8889599  81.3781292  74.5898962  49.9423122   6.0022831  29.6805191
  49.3208981   5.2756339  29.6351409  49.3981171   6.7731243  29.8414063
  59.1799688   1.5796208   9.4994992  59.4938850   2.3706463   9.0613580
  58.2834148   1.4700706   9.1826153  65.9738779   8.9541912  43.9378595
  65.9018183   9.5139092  43.1647110  66.5327930   9.4467509  44.5388794
  72.5962019  14.9681401  19.0979338  72.1527624  14.1816711  19.4158340
  73.5127306  14.8421621  19.3435609  60.3029442   9.4872129  28.5954976
  59.5035887   9.4321835  29.1191769  60.4860449  10.4248333  28.5357285
   8.0522683  26.1006284   5.6423104   9.0030530  26.2017202   5.5972046
   7.7144387  26.7226577   4.9979675  15.5713844  97.3063296   0.8123498
  14.8446559  96.9702923   0.2877787  16.3333749  96.8118810   0.5104870
  46.6888762  14.8085380  32.2381020  46.0949707  14.3444192  31.6480994
  46.1456156  15.4861760  32.6404762  56.4981508   3.7309706  34.9158478
  55.7376337   3.7809503  34.3367529  57.2511864   3.7743419  34.3265367
  89.7980686  61.9455780  87.8620723  89.2754503  62.7427597  87.7749005
  90.3182168  61.9112022  87.0592654  57.1626997  42.5675201   4.6203038
  57.4297476  43.4715891   4.7863770  56.6226673  42.3347139   5.3755498
  73.2105160  17.6275015  24.7154260  73.6244583  18.2482302  24.1157770
  72.7107763  18.1757700  25.3203177 103.8077016  89.5050938  76.8062520
 104.2114969  88.7920124  76.3115859 102.9693742  89.1482909  77.0997345
  68.7170124  31.0086560  16.7666841  69.2715502  31.7506695  17.0077968
  68.3120918  30.7348728  17.5896752  52.6031542  26.9427371  20.6258988
  52.4490118  26.7426968  19.7026122  52.4019575  27.8751397  20.7057810
  81.3288879   8.9680213   5.2481586  82.1504688   8.7103891   5.6663090
  80.6610680   8.8120568   5.9159344  83.0206394   6.5848702   8.0435079
  82.2256279   6.1199027   8.3042663  83.7348270   6.0574007   8.4011978
   8.0712603 103.6717374  73.2970810   8.3339404 102.8322036  72.9197133
   7.1143626 103.6494882  73.2880116  97.6388450  60.2695752  87.2823891
  97.8497548  61.2028779  87.2560295  98.3737226  59.8710276  87.7485892
  63.1494808  15.0027859  57.1993637  63.3448839  15.3377604  58.0744886
  62.3572206  14.4782233  57.3150778  18.8766669  67.1186526  78.2611656
  19.6752261  66.8248577  78.6995888  18.4049128  66.3113148  78.0565107
  94.7619243  69.7139699  67.8538728  95.6706519  69.9661369  67.6900077
  94.2993112  70.5444832  67.9655409  60.8747816  15.5442202   2.0922694
  60.5803299  16.3064945   2.5907350  61.4083862  15.9106815   1.3871402
   2.4961375  76.8953068  77.1836853   3.3843087  77.0371182  77.5112164
   2.2335146  77.7443821  76.8282521 106.3700581  31.3972092   0.3313019
 106.6538143  32.3002982   0.1893786 105.5099678  31.4783740   0.7434921
 104.3802834  18.6141121  32.5749207 104.3480015  17.7227485  32.2275615
 105.2979183  18.7449968  32.8137875  23.2065199  66.1611886  91.2248975
  23.6104773  66.9018109  91.6771388  23.8673590  65.8766968  90.5935619
  16.5678404  69.6995218  45.5556536  16.7819308  70.5181093  45.1080942
  15.6491183  69.5410938  45.3386593  75.5136204  22.5773406  36.3242912
  75.4550409  23.5324740  36.3015175  75.9680605  22.3847342  37.1444249
   5.3420256  65.2293129  83.5852456   6.2218092  65.4936476  83.3162904
   5.1737927  64.4240363  83.0959010  15.3444575  48.4142421  73.6054742
  15.0934409  49.0590705  72.9441011  15.4294966  48.9204619  74.4133997
   0.8717059  60.5267132  84.7716677   0.5760859  61.0407097  85.5230981
   1.7462824  60.2248741  85.0171030 101.9968219  93.7793405  71.1305237
 101.1326642  93.4248121  71.3397539 102.5853868  93.3629997  71.7601919
  30.5913234   2.7425143   6.9685054  31.4761591   2.9136145   6.6459811
  30.0371742   2.8013206   6.1902434  73.3396912  13.1082010  32.2517753
  73.2410240  12.5023222  32.9862189  73.1093979  13.9636147  32.6143527
  18.1594613  28.7990546  36.0457301  17.5573877  29.1495872  35.3893280
  17.8417066  29.1539478  36.8759799  75.0112867  12.1910775  43.3019066
  75.3054142  12.1488738  44.2118216  75.2261925  11.3311374  42.9405928
  86.2932491  28.2228684  29.6618915  85.3989124  28.5414648  29.5398760
  86.1942482  27.2826195  29.8114347   9.6481866  23.9622641   3.8509727
   9.9809980  24.6434212   4.4353479  10.2043915  23.2032919   4.0265566
  19.4991110  81.0739286  74.8770356  18.7136172  81.6006691  75.0246096
  19.7709750  81.2937457  73.9859676  44.6285295  97.9203289  55.5316019
  45.0475930  98.5604781  54.9564266  44.0455770  97.4260348  54.9553442
  89.6599098  69.6677680  90.3399549  89.1009660  68.9059288  90.1869445
  90.0306650  69.8692424  89.4807810  97.5618458  49.9647856  25.1056957
  97.1229744  50.4712152  24.4222116  97.2251892  49.0752172  24.9981618
 107.8590103  97.1425636  73.3212292 107.0290418  97.5085790  73.0155993
 108.2770677  97.8607948  73.7962151  86.9356537  25.1997352   9.5133513
  87.3855877  25.9329605   9.0936202  87.4558163  25.0156045  10.2954996
  83.2902527  43.8000870  11.3271666  82.5363827  43.9932871  11.8844712
  83.9872932  44.3633890  11.6634047  88.0869146  76.2887819  89.2141892
  88.0190511  76.6973908  88.3512497  87.8894039  75.3652770  89.0581100
  29.6727847  84.5875795  83.2437724  28.7888144  84.2224510  83.2826585
  29.6119593  85.2942712  82.6010293  42.5234890  22.9218459  66.9268084
  43.4328985  23.1518173  66.7362261  42.0691633  23.0290103  66.0911465
 100.6171799  14.0972257  34.8855448  99.9734306  13.7292433  34.2802286
 100.0955105  14.5869613  35.5213571  69.0210295  14.9382079  35.4739904
  69.7700834  15.1459706  36.0325432  69.2860985  14.1490149  35.0016093
 103.5318895  82.8156192  77.8354156 104.4772716  82.9017789  77.7127135
 103.2045598  82.5310929  76.9821084  17.3554228 101.1235912  89.7336514
  17.8679846 100.7562263  90.4537607  16.6539954 101.6125209  90.1639736
  16.1968897  88.8277585  80.5774808  17.1290873  88.9444883  80.3941405
  15.8631609  88.3430846  79.8225319  61.3863802  20.7050061  61.1834049
  60.9803534  20.1309013  61.8328524  61.3692474  20.1981306  60.3716087
  83.4546185  19.0952861  18.7861443  83.5720253  19.6734047  18.0323362
  83.1179237  18.2806253  18.4130526  76.5687275  19.0039909  22.3768902
  75.7082796  18.5853899  22.4022031  76.4944792  19.7409523  22.9831958
  58.5675192  11.3966656  22.4272394  58.2768679  10.6555462  21.8957376
  57.9256630  12.0844424  22.2505546  15.1596163  47.5416542  65.1697159
  16.1010931  47.7136345  65.1858568  14.9559878  47.2402198  66.0551023
  79.8332167  21.6077137  17.9450750  78.9786148  21.2960315  17.6471770
  79.8818207  22.5105023  17.6306808  11.1956262  73.3690768   5.8053464
  11.0091352  74.3079263   5.8091974  10.7327937  73.0298048   6.5714473
  65.8998966  34.3120074  23.6313725  65.6436157  34.2907333  22.7093649
  65.7874060  33.4102654  23.9321017 108.4066816  85.5121858  83.3842534
 108.8589139  84.7235639  83.0845982 107.6005597  85.1880200  83.7858951
 102.9299875 101.1033733  77.3709524 102.8993078 102.0347698  77.1523321
 102.1226545 100.7442386  77.0028853  39.5231318  26.6272449   9.8478717
  39.1492128  26.7715454   8.9786226  40.3294897  27.1430039   9.8503703
  17.8116225  76.4912279  78.7296224  16.9254874  76.2478621  78.4617305
  18.3296298  75.6980665  78.5925102 100.9724236   8.3169818  37.3429108
 101.8760395   8.0029553  37.3762274 101.0467815   9.2324102  37.0732903
  79.8642683  72.3548651  10.5764902  80.0036430  71.9685364  11.4411032
  79.0468550  72.8454781  10.6623137  91.7542076  13.9642668  31.9302726
  91.8626404  13.1834221  32.4731874  91.8472195  13.6463737  31.0322070
  94.8875713   8.1610090   7.3835808  94.1827965   7.8583425   6.8109334
  94.6800041   7.7840734   8.2386070  81.9061947  33.7096810   5.8673459
  82.7663040  33.2938576   5.8078957  81.4186382  33.3591056   5.1219481
 102.1233125  93.0063112  89.1950414 102.0068498  92.4271829  89.9482197
 103.0624862  93.1903465  89.1773775  97.4309205 103.8307976  22.7007890
  97.2424077 103.4535508  21.8414998  96.5921830 104.1851820  22.9960132
  87.8816743  67.0372636  72.4316180  87.4103446  66.9374270  71.6045046
  88.5140653  67.7360101  72.2640920  51.1763048  25.0376177   6.7710227
  52.0143747  24.6178341   6.5769726  51.3875103  25.7024074   7.4265206
  61.9125032   8.0364460  27.1013069  61.3218260   8.5612077  27.6416397
  61.3354731   7.4360049  26.6293550  86.5402985  60.2411175  33.3632517
  87.1756268  60.5244017  32.7057266  87.0051193  59.5800495  33.8762474
  90.4063892  15.3495848  48.5853243  90.6914425  16.2283134  48.8359547
  90.4666233  15.3416026  47.6300573 108.6577030  77.9421646  76.9297588
 108.7579294  77.1203787  76.4492857 109.5493551  78.2794244  77.0160735
  83.4205341  10.1620412   9.1457909  83.0887604   9.8750573   8.2950288
  83.7681198   9.3661237   9.5482028  50.7867622   6.4981323  18.2909405
  50.5269003   7.3279476  18.6910784  50.2333069   6.4233923  17.5135529
  83.7271881  39.5998812   0.7015627  84.0963840  38.7555861   0.9605835
  82.7911949  39.5182753   0.8845650 103.5430145  44.9596786  28.4558940
 103.3003521  45.8599949  28.2396126 104.4377708  44.8675585  28.1285357
  94.5945549  17.3680782   5.3689063  94.2604637  17.9831660   4.7159994
  95.5096245  17.6212871   5.4903567  48.9693689  26.3440585  38.9881992
  48.3414841  26.1475253  38.2929516  48.4943724  26.1607242  39.7987533
   9.9914983  19.7060382  23.0610776  10.5543473  20.4657531  22.9118586
  10.1315358  19.4811893  23.9808965 110.4968114  74.8672659  66.2395740
 109.5667501  74.9807889  66.4353657 110.6303497  73.9195163  66.2524843
  77.6773548  38.6271548  17.5908077  77.3494530  39.2730474  18.2165360
  77.1913815  38.8054991  16.7856634  82.7196884  28.2686281  36.7229033
  83.0104351  27.9246354  37.5675130  83.4450150  28.0834818  36.1263657
  85.8874035  29.8759127  21.8517947  86.1679459  30.5784655  21.2653255
  84.9871159  29.6877480  21.5866399  62.8326607  45.3893518  24.0951443
  62.8818941  44.4414186  24.2185760  61.8949366  45.5773592  24.0556383
  43.2795953   3.8101841  69.2313814  42.3922395   3.5818602  69.5083165
  43.6798906   4.2007853  70.0081873  12.7652739  91.8568022  76.7132652
  11.8870257  92.1175272  76.4358973  12.6545809  90.9703596  77.0570648
  98.6428590  70.0823517  81.2323546  98.9426465  70.4891367  82.0453018
  99.4426198  69.7602696  80.8165765 108.3702417  51.9850339  90.8026536
 108.5296245  51.1477869  90.3669402 107.9011484  51.7525390  91.6039855
  49.9607325   3.4773356  26.8736959  50.0505447   2.6202789  26.4570189
  50.8171988   3.6430389  27.2676897  88.9886951  32.8490925  13.3277023
  88.9723015  32.1409607  12.6838756  88.5170174  33.5672927  12.9058731
  22.4320982 102.8636415  87.3782858  23.1849097 103.0414684  87.9420948
  22.3557089 101.9094999  87.3745936  75.9647417  30.3420782  20.4010725
  76.5278101  30.9204030  20.9155846  75.5523825  29.7707367  21.0489631
  47.4617624   3.1828034   5.5585241  46.6470051   3.0944732   5.0639552
  47.2826195   2.7517599   6.3941914  87.5189400  67.1969080  16.2412202
  87.5498962  67.8483152  15.5405474  88.1328678  67.5233746  16.8990564
  99.1511579  76.8355186  87.1416649  99.2117448  76.4885194  88.0316943
  99.3677183  76.0917742  86.5793681  81.6613197  59.1740751  11.2922835
  81.7728996  58.2286835  11.3923740  81.7553806  59.3281555  10.3522599
   4.7843932  67.3168404  90.9297699   3.9340304  67.6674194  90.6647988
   5.1702450  68.0067689  91.4695382  61.6012526  38.9912248   1.3148132
  60.9781075  39.7169685   1.2799267  62.3972988  39.3764400   1.6810843
  58.6347866  25.8146119  27.7948070  58.2017231  26.2751079  27.0760345
  59.5631981  26.0209203  27.6865721  51.5230799  43.3841467  31.9396424
  52.3413181  43.0817604  31.5455842  51.7494535  43.5663462  32.8516674
 100.4520555  97.9812868  90.1894541  99.8220296  97.9844005  89.4688401
 100.1261802  97.3105819  90.7896154 102.3273177  81.0920865  60.3340745
 102.8485055  81.8431361  60.6178308 102.9738851  80.4225714  60.1106215
 101.2505241  67.9657586  86.7854977 101.6475244  67.9347892  85.9150600
 101.9855924  68.1210453  87.3786190  -0.0624038  71.7083533  88.3219352
  -0.0182249  71.2051518  89.1349965   0.8511446  71.8173559  88.0577868
 100.1487394  74.7794158  78.6869764 100.3758951  75.4767210  79.3021178
  99.3701883  75.1036484  78.2342410  56.8436575  24.8193669   8.0160809
  57.3364735  24.4798303   8.7631273  56.6080046  24.0411901   7.5109655
   9.2813638  17.8455818  14.7618341   9.5283082  16.9353056  14.5985961
   9.9159101  18.1535435  15.4089296  66.6730928  41.7840052  17.7474415
  67.5331640  41.4127207  17.9440439  66.8608236  42.6651955  17.4241805
  79.3778657 104.5950265  14.5500684  78.6263131 104.0047537  14.6047187
  79.2587613 105.2026517  15.2800262  96.0436821   9.3752062  16.8121254
  96.1857510  10.3130388  16.6836035  96.0175991   9.0133125  15.9263575
  86.5715694  24.9058342  13.8861561  87.0422935  24.8041582  14.7133887
  87.0499134  24.3523979  13.2687986  77.4019432  37.7793503  23.5798573
  76.8395519  37.7414584  24.3534923  77.3965454  38.7019205  23.3247757
  78.3421946  49.7748852   9.8522693  79.2072487  49.4038153   9.6784341
  77.9609251  49.1950417  10.5115485  75.2823495  15.8311392  79.5092046
  75.3811311  16.6826273  79.9351668  76.0692453  15.7393576  78.9719796
  26.2150908  21.1714387  26.6996598  25.7366371  21.7459345  26.1019397
  25.6622887  21.1234856  27.4796224  31.8117903  80.0019104  72.3970604
  31.0910891  79.5211251  72.8040838  32.5346945  79.3749554  72.3732424
  77.7742720  35.7055855   7.2035921  78.1454897  35.7688785   8.0836058
  76.9395447  35.2538514   7.3276764  73.7067556  65.7909298  16.4528751
  73.1176138  65.6118441  15.7200241  74.4641256  66.2179279  16.0525084
 106.4310646  43.8760090   7.4672848 106.6345787  44.1029406   6.5599173
 105.9591579  44.6374512   7.8045434  75.2782393  26.0089922  17.6172543
  75.8157349  26.6286850  17.1239877  74.4994974  25.8829522  17.0751226
  87.5358105  14.1138351  18.8876665  87.5838661  15.0684106  18.9396930
  88.3705521  13.8528371  18.4986663  71.6896295   5.2044369  76.7302358
  71.9605779   6.1142661  76.6076374  71.3812970   5.1662804  77.6356149
  63.9905214  55.5572939  18.3174527  63.9871120  55.2307940  19.2172408
  64.7937727  55.2021217  17.9368246  69.7005892  24.4354868  11.0511410
  70.1427269  24.5239019  10.2067900  69.7118855  23.4952354  11.2301207
  24.3628405  90.5133207  85.7052052  24.5276831  90.8110888  86.5998510
  24.9804018  91.0111387  85.1694620  97.4076271  57.5575352  17.8831470
  96.9874477  58.2083988  17.3209584  96.8417835  57.5053310  18.6534238
  78.2299900  43.8629055   1.5713036  78.7102461  44.5452309   1.1022456
  78.6649704  43.0480814   1.3201258  20.1886080  67.5289185  73.8593614
  19.8134802  66.8582268  73.2886732  20.6540583  67.0356507  74.5348418
  70.8049249  37.5773169  77.5495327  69.9083184  37.7695300  77.2749662
  71.3493203  37.8949572  76.8291402  54.5701693  81.8216927  73.6669075
  55.4884051  82.0592029  73.5377800  54.2335032  81.6772373  72.7825892
  41.5038203  92.1649606  63.4362912  41.4750384  93.0234153  63.8587308
  41.9665049  92.3187597  62.6125765 110.3035545  54.6675968   0.3757568
 109.7843075  55.4692602   0.3129143 109.8367977  54.0363646  -0.1718939
  99.4434352  89.6590955  90.1948774  99.6368738  90.2526910  90.9204514
  99.6610351  88.7900145  90.5318946  77.3446321  41.7309332  16.7226434
  76.8690968  41.3695192  17.4706233  76.7594671  42.3999596  16.3673759
 108.3667564  36.1131644   4.6311525 108.2913589  36.8050623   5.2882850
 107.6777840  35.4893446   4.8600385  97.0023441  26.2999725  21.6415524
  97.8332424  26.0687757  22.0567489  96.5987682  26.9242072  22.2446179
  27.9341840 104.5322192   6.0921097  27.2984027 104.9716080   6.6568691
  27.4190044 104.2224098   5.3472346   3.4950975  59.2406034  12.7089274
   3.8906148  58.3713341  12.6443005   2.7505162  59.2102242  12.1081805
  86.8556786  31.4009333  24.6410561  86.9526196  30.4680109  24.4500256
  86.1087894  31.4468479  25.2379465  59.8881196 102.8937486   6.6788685
  60.1026773 102.1854421   7.2859108  58.9730119 102.7393234   6.4444542
  56.2930917  93.8634985  41.7525101  56.7689752  93.5041326  42.5012541
  55.4194021  93.4777254  41.8164587  23.2517432  90.9767253  88.4117073
  22.7658366  91.5418584  89.0123284  24.1218184  90.9024889  88.8037509
  93.9432621  55.7251453  23.4166741  93.6057281  54.8531532  23.2119060
  93.3273506  56.0753250  24.0603018  78.5323668  33.9014578   2.9445770
  77.7188396  34.3872452   2.8088769  78.9025927  33.8044453   2.0672214
  96.8973255  25.3805637  10.8597445  97.7132130  25.8247662  10.6289887
  97.1080780  24.4485068  10.8042181  76.9318485  72.6850271  12.4530423
  77.1659946  71.7754173  12.2686112  76.0063267  72.7467346  12.2167599
  57.5585175  47.5835657  27.4623084  58.4095860  47.8008795  27.0819354
  57.1612310  48.4315538  27.6605868   5.1580618  97.3619039  71.6224825
   5.9350012  97.7577312  72.0173395   5.3694056  97.2968967  70.6911731
  20.7352160  77.1305759  81.3039285  20.7774733  77.6888783  80.5275607
  21.1385439  76.3071687  81.0290563  94.4518280   1.4900388   7.8202963
  93.5840607   1.1075358   7.6902592  94.7524071   1.7074864   6.9379115
  16.8676184  95.2481992  80.5040944  17.4466036  95.7282789  81.0961568
  17.1816061  95.4723413  79.6280777  38.0516290   8.8839461  78.4195042
  38.8539361   8.6376025  77.9592335  37.6655959   9.5714308  77.8767586
  85.4324150  48.7395668   3.3461481  84.4907475  48.5877943   3.4265032
  85.7849026  48.5196877   4.2084920  84.6328068  45.4188681  24.9058628
  84.3050194  46.1246443  24.3484855  84.8302269  44.7059727  24.2983794
  99.1185474  51.7889500   6.6523492  98.8044357  51.2690163   5.9125984
  98.9954090  52.6971483   6.3762254  68.2859039  19.3330014  21.1557031
  68.1697893  20.1375771  21.6610813  69.0097809  18.8805318  21.5887237
  95.7083321  75.7622576   7.2250801  95.1902199  75.8296537   6.4230502
  96.4870644  76.2913704   7.0523310 102.1386051  59.3571568  38.3322811
 102.9462147  59.6846437  37.9363728 101.5970707  59.0932655  37.5884128
  80.6153965  14.7084677   3.3057123  81.5513229  14.5933557   3.4701324
  80.1958942  14.0131629   3.8124669 106.3317581  74.6267874  85.2644950
 105.4770322  74.9715025  85.0059366 106.3589568  73.7470157  84.8883408
  71.0888481  45.2040291  11.0208309  71.2783337  44.6297216  11.7627847
  71.0878897  44.6215868  10.2612352  73.8010025  40.5903769  10.3757250
  73.9582396  40.4841661  11.3139296  74.2771864  41.3870811  10.1417530
  80.5280876  38.5239244  24.3741822  81.2929249  38.9940524  24.0421820
  79.7824812  39.0633750  24.1109324  81.6119003  31.8901634  11.2064075
  81.5825844  31.4177775  10.3744078  81.5072536  32.8100586  10.9633565
  47.5582884 105.5824048  89.5176812  47.5586890 104.6255214  89.5422642
  47.3373412 105.7986266  88.6117777  99.8032375  69.0135629  83.9443207
  99.8069806  68.1014664  83.6539799 100.6495900  69.3588264  83.6602283
  50.6689786   3.0055310  71.5411222  51.1152887   3.5571982  72.1835387
  51.3612985   2.7289845  70.9407496  98.3002472  27.2907805  12.7362216
  98.7262249  27.4922872  11.9030535  98.9723301  26.8377733  13.2454503
  93.5847378  83.0880737  13.8317859  92.8020477  82.9281425  14.3590772
  94.2501068  82.5134277  14.2103457  67.3812199  54.4823885   4.6143985
  67.6600456  54.9775362   3.8441294  68.1979704  54.2052650   5.0295514
  12.6979445  99.7934492  89.6934228  13.4223269  99.1801221  89.8172399
  13.1043433 100.5692584  89.3071730  63.6534452  26.7152335  85.5854189
  64.2992830  26.6115834  86.2842607  63.1952142  27.5274207  85.8012998
 110.8434244  74.6409924  84.1745400 110.7439990  74.7863681  83.2336825
 110.4563899  73.7787087  84.3258762  81.2518120   7.7476633  27.7724981
  81.9559956   7.3291636  27.2773051  81.6132927   8.5946190  28.0337167
 104.6040154  37.3579288  20.4810667 105.4421329  37.6994371  20.1693606
 103.9470768  37.8434706  19.9821520  87.4823570  33.5743451  19.9880278
  86.7934418  34.0348148  19.5088613  87.1882820  33.5843396  20.8988810
  24.2472075 103.4947498  69.6689868  24.3128870 102.5680025  69.8993397
  24.9715041 103.6422927  69.0608191  86.3152504  11.3530374   1.0951623
  85.6946659  11.5953660   1.7824572  87.1729469  11.4084816   1.5164950
  16.4182714  65.6703663  20.1197433  15.8443978  65.9918165  19.4243491
  17.2763589  65.5886698  19.7035277  27.6888036   9.4084813  89.0172870
  26.7619037   9.2272068  89.1729277  27.9513883   9.9619938  89.7527525
 105.1443906  99.7299774  59.6599650 104.6911521  99.1296728  60.2519417
 104.9648900  99.3849332  58.7853479   1.6007327  73.1501014  83.9232355
   0.9131621  73.8053186  84.0422881   1.6243695  72.9966242  82.9787159
  82.4519157  70.0412750  23.9578867  81.9291592  70.1254845  24.7552967
  82.0444870  70.6475258  23.3392620  59.4840097   9.0228778  12.2863758
  58.5460806   8.8951385  12.4285293  59.7791624   9.5079738  13.0569577
 102.5852342  95.8727414  87.3032838 103.0221601  95.8565767  86.4517751
 102.6643033  94.9765451  87.6301089  47.8943967  88.9878934  25.6398582
  47.1645688  88.7708539  25.0597978  48.5981511  89.2563456  25.0491834
  70.9870338  50.2870512  32.8407884  71.3134527  50.8295918  32.1229219
  71.6821527  50.3161287  33.4982038  16.3374042   0.4792286  85.0114620
  16.6231775   0.9674193  84.2392993  15.6111717   0.9931828  85.3645390
 100.9389687  21.5522885  11.0913527 100.9768295  21.4269137  10.1431549
 100.0968456  21.1772871  11.3490987  61.9241095  28.4065318  38.0361438
  62.0027161  28.1631804  38.9585495  62.2077608  27.6274109  37.5578737
 101.1144066  47.6849842   1.3201977 100.6132793  48.3623219   0.8659737
 100.5336380  47.3860407   2.0198891  95.7857938  72.1122105  72.0357990
  96.3617130  72.8040941  72.3611379  96.3795610  71.4046378  71.7847824
  50.1713990   1.9592692  80.7540715  50.1995992   2.6800181  81.3833243
  49.6931504   2.3141457  80.0046897  17.4896768  20.0394893  33.1344843
  17.4887899  20.6947112  33.8322759  17.8835633  19.2641723  33.5344458
 103.3891392  33.0655003  29.0854859 102.9997635  33.9246750  29.2480826
 103.4733200  32.6724124  29.9541783  72.4316311  60.0337934  25.2329874
  73.2213068  60.3692293  25.6573987  72.6362228  59.1200638  25.0343084
  64.5470428  61.1588907  32.1579194  63.7561417  61.1913109  31.6197157
  65.2657652  61.2595129  31.5337825  97.9256916  42.8308773  14.9176919
  97.4771690  42.0377970  14.6242929  97.3517609  43.1952524  15.5915368
  50.4496145  73.1041336  16.9445920  51.3707590  72.8613043  17.0381987
  50.2175093  72.8262186  16.0585189  55.6993103  82.4800777  15.8676958
  56.3719606  83.1137657  16.1171365  55.1134253  82.9679966  15.2889884
  90.7016277  33.3641124   0.4937126  91.5642166  33.3085084   0.0825246
  90.5810642  32.5123811   0.9135331  54.2508984  30.1163912   3.6735800
  54.0205002  30.7572484   3.0009353  53.7319660  29.3424034   3.4547508
  15.1997183 102.3326833  91.2056499  15.0663088 103.2320554  91.5049154
  14.5348834 102.2042758  90.5290871  65.5780648  18.8271881  71.9948173
  65.6147718  19.3909527  72.7675092  65.1577996  19.3662764  71.3247502
 102.7353382  33.9279795  18.4440875 103.2371426  33.1141615  18.4902108
 103.3986664  34.6179461  18.4308445  72.6150274  11.2190318   9.4596195
  73.0401754  12.0691824   9.3468165  72.5373697  11.1140168  10.4078662
 102.5008011  57.9088879   1.8924563 102.6195145  58.7806749   2.2694534
 102.8626156  57.9786682   1.0090264  89.3129921  72.5316238   0.7666513
  89.0601349  73.3635521   0.3664231  88.5062695  72.0165491   0.7784981
  67.1949244  50.8265781  11.8539965  66.7223072  50.0475311  11.5608132
  66.8314552  51.0158110  12.7190483  80.4685879  62.3951912  53.0098629
  80.0145149  62.8084755  53.7441921  81.3498211  62.2211075  53.3405495
   2.2899869  69.1244745  11.0996604   1.6018918  69.2199564  10.4411507
   2.4689725  68.1844807  11.1244857  94.3125153  40.0109434  36.8846774
  94.0352154  40.5095291  36.1160779  94.5826817  40.6765699  37.5172782
  63.6499310  30.0916266  27.7875209  63.8849068  30.9197617  28.2061028
  62.9082108  29.7671223  28.2981920  97.5486660  96.6175079  28.5339046
  98.2900906  97.0018387  29.0016842  97.9479408  96.1154175  27.8234744
  69.7454262  55.8334970  35.8396125  69.9886799  56.7401743  36.0266781
  70.4859734  55.4842567  35.3437805  22.2679995 104.0017135  81.7878062
  21.8277834 103.1667764  81.6286522  21.7901991 104.3883283  82.5216126
 107.8249927 101.2779004  71.7737424 108.2505412 100.5864150  71.2668037
 108.1110092 102.0908601  71.3571763  95.9187698  52.4662161  31.3591599
  96.7532158  52.0083237  31.2578440  95.2909374  51.9298887  30.8750033
  70.6965303  14.3302990  80.2339995  71.1619901  14.7693230  79.5220768
  70.7667398  14.9334885  80.9739089 105.5922699  68.0331087  26.5915203
 104.9538803  68.4978294  26.0504746 106.4165974  68.1135225  26.1116862
  82.5019836  22.5733304  12.5047600  82.0578861  23.2619023  12.9996169
  82.7262020  22.9848266  11.6701162  60.4262352  41.5807009  26.4618945
  60.2253723  42.5121975  26.5524483  59.7259521  41.1370564  26.9404507
  23.2375005  12.3319399   4.5271900  23.4750035  12.6605856   3.6601174
  22.3401883  12.0145738   4.4255185  87.2346115 100.1830769  19.2716408
  87.2234154 101.0241508  19.7284698  87.8883934 100.2941227  18.5813677
  77.6122999  74.9257374   3.8499013  76.9440937  75.3771496   4.3656108
  78.1791639  75.6260967   3.5267931 105.0099087  58.3237839   9.9335331
 105.3473759  57.5384569   9.5027065 105.4700089  58.3532333  10.7723832
 108.5412216  78.2628822  22.6464844 107.7064800  78.5662270  22.2895265
 109.1832352  78.4773874  21.9696975  56.0178613  15.7275797  73.2226646
  56.7550802  15.1586510  73.0011737  56.4136361  16.4587237  73.6970305
  65.1541996  62.2258615  18.8272762  64.4819832  62.3925400  19.4880140
  65.5017424  61.3626623  19.0516293  12.2177556  85.1980877  19.8548269
  12.1915105  85.5780506  18.9766622  12.6660207  84.3601799  19.7399521
  62.3834229  60.0952911  30.6586146  62.0370960  59.7689724  31.4891577
  61.7371893  60.7377100  30.3655100  23.2640031  18.2826757  36.1921430
  22.4408582  18.5714352  35.7980943  23.1812814  17.3307645  36.2491894
  60.6423378  35.8918238  12.3763585  60.0961971  36.1050034  13.1330085
  60.4581070  36.5868902  11.7445588  40.0444936  18.4859158  87.8195232
  39.2863654  18.9569832  88.1653124  40.7654380  18.7349965  88.3978248
  99.8855209  96.5870380  12.5396216  99.4256115  96.9515610  13.2958186
 100.0846481  95.6854820  12.7921546  43.9509581  82.8126366  81.8528974
  44.1543959  82.3156793  81.0605097  43.1056021  82.4683411  82.1411180
  32.4961471  40.8282401  87.1757609  33.1085634  41.4625956  87.5482750
  32.9810428  40.0029780  87.1685013   5.4990386  98.0563981  87.9738975
   6.1584280  97.3664768  88.0477589   4.6622895  97.5933702  88.0149233
   6.8655160  19.3095469  14.2149723   6.9458154  19.3716204  15.1667762
   7.5252679  18.6644006  13.9605212  99.9015999  36.7548037  17.5686097
  99.3870640  35.9499168  17.6289129 100.6107044  36.5409064  16.9622624
  21.6071942  43.5319853  24.5627975  20.6780294  43.6389017  24.7664142
  22.0363286  44.2595005  25.0131297  40.3905725   7.3922564  77.6063263
  39.9605417   6.5460612  77.7298510  41.1273336   7.3779417  78.2172334
 102.8495312  46.3993549   7.5457358 103.7091827  46.7987776   7.6787817
 102.8450489  45.6406450   8.1293201  17.1553758  73.6665869   8.8992512
  16.3114312  73.9222717   8.5269511  16.9813779  73.5567951   9.8340786
  97.7922249  30.9130907  30.5705786  97.1246719  30.2540231  30.3802180
  98.5726357  30.4059219  30.7941127 102.1703434  63.8189220   0.6011591
 101.6329956  63.5726452  -0.1517253 101.5866852  63.7227440   1.3537014
  69.4199704   9.5921923  89.9798965  68.9014482  10.3885199  89.8648587
  69.8051976   9.4307114  89.1186421  74.8543644  53.1599140   2.4287513
  75.7967472  53.2294703   2.5814074  74.4673872  53.8029623   3.0228633
  91.6012764  58.1816053  19.5760655  91.8580532  58.1346369  18.6551476
  92.4282932  58.1520796  20.0571156  64.0684175   2.9708840  61.7412615
  64.9614095   2.8305127  61.4264750  63.5180997   2.4907423  61.1225200
  36.9863795  79.2928774  87.9090953  37.6980494  79.6145589  87.3556751
  36.8765639  79.9706037  88.5760707  96.2439632  46.3781881  19.4040680
  95.4621983  46.2204504  18.8747215  96.0646343  45.9358978  20.2337980
  83.3969784  47.3949003  55.2674437  84.0528774  48.0827570  55.1539755
  83.8778400  46.6685390  55.6641960 104.8894119  84.6216965  16.7804492
 105.3264523  85.1925373  16.1484957 104.1322422  84.2762756  16.3075757
  41.8599465  96.4682770  44.3731546  41.5037301  97.1187210  43.7679577
  41.1006120  96.1603546  44.8679590  52.7400780  91.7151737  27.5619197
  52.1045637  91.5699387  28.2628202  53.2317400  92.4876881  27.8406954
  84.4134998  17.4602699   1.2052909  84.9744606  17.6859868   0.4632615
  84.1778851  16.5443647   1.0575256  90.8055210  31.0379982   1.9043605
  91.5319920  30.4168344   1.8531156  90.8202076  31.3496017   2.8093025
 111.7497106  75.4913695  86.6353852 111.5768905  75.2755458  85.7189876
 110.9713645  75.1892598  87.1035010  65.5829286  30.5950953  67.2809267
  65.2700757  31.3892390  67.7141523  66.4985131  30.5203654  67.5499105
  84.0449905 101.4208984  40.2421284  84.6206570 102.1767330  40.1256847
  83.3141327 101.7543888  40.7625675  13.4538797  65.1253891  33.3227587
  13.3424905  65.8165646  33.9755249  12.8937867  65.3919363  32.5937366
   5.3510812  47.2344255   1.2912847   5.3613427  46.3415289   1.6360407
   6.0626557  47.6777220   1.7532101   0.9622482  -0.0696736  19.0599167
   1.8259243  -0.0506669  18.6476827   1.1146835   0.2476043  19.9500489
  56.8875551  20.1285769  72.1090591  56.3574647  20.9233643  72.1686232
  56.3147496  19.4899107  71.6845155  88.6540890  27.5092316  11.0391641
  88.2950974  28.0359101  11.7532825  89.5935345  27.6919961  11.0555995
  22.1887639  97.9344940  40.1104450  22.6654008  97.2073746  40.5108738
  22.5619462  98.0108261  39.2323017  87.0928907  37.2162272  72.0936060
  86.9995736  37.4460150  71.1690927  86.9916963  38.0469443  72.5582671
   4.1109139  86.7184162  81.4633656   4.8865211  86.7768860  82.0212555
   3.9810109  87.6097775  81.1395931  20.8144975  85.6105518  71.0485792
  21.7150784  85.4981804  71.3528109  20.5387092  86.4481831  71.4208031
  20.3107738  78.5900784  75.4352856  19.9140298  79.4496012  75.2937126
  21.2380147  78.7184095  75.2353191  63.4410311   3.3002490  70.8515835
  62.7258993   3.9280242  70.9550810  63.7578107   3.4429568  69.9596643
  32.7750087  74.9571896  82.4138737  32.6139498  75.8204842  82.0330620
  33.6134815  75.0477695  82.8666306  13.4148932  86.8164730  64.7799444
  13.7170017  87.6910686  64.5349073  12.8056335  86.5698338  64.0840960
  80.5534460  24.3026536  34.8805428  79.9141701  24.8507254  34.4253826
  80.2918453  23.4058659  34.6718121  99.7660109  90.2419853  64.6904659
  99.2261288  90.3661060  63.9098549  99.2952976  89.5867157  65.2055216
  41.2670673  93.9127897  13.3864117  41.8862785  93.4791778  13.9736080
  41.7785061  94.6053623  12.9680824  68.9021291   5.2884619  10.0239372
  69.3029900   4.6541207  10.6182098  68.1960942   5.6831830  10.5357456
  97.0316562  93.5514259  62.6397991  97.5562772  93.1990433  63.3587122
  96.1252996  93.4045982  62.9103374  60.1140000  28.1860726   3.2808018
  61.0698892  28.2320969   3.3005333  59.8286642  29.0961163   3.3622360
  84.7434331  27.5448506  15.4640579  84.6002664  26.6119235  15.6233788
  83.9162822  27.8545086  15.0950527 111.9627057  79.8501587  74.1530371
 111.0699874  79.9830055  73.8342285 112.3455309  79.2234993  73.5390520
  54.6194590  29.1385573  60.7924509  55.4027081  28.5984057  60.6876516
  54.6328200  29.7285861  60.0388432   4.1298646  87.7443790  86.0667801
   3.4317374  88.3604717  85.8447838   3.6714673  86.9380760  86.3033867
  99.2235371  39.0771508  76.4480495  98.8719162  39.1778874  75.5634880
  99.9436221  38.4541678  76.3500452   3.5930797  88.2445049  77.0128870
   2.8035671  88.7761974  76.9118643   4.1684166  88.7727642  77.5662041
 108.4224135  54.6697283  89.6760559 107.8342590  53.9416552  89.8766041
 107.8727362  55.3006268  89.2112446 109.1941477  14.9073069  10.3240967
 109.1050555  13.9925330  10.0567341 108.6364628  15.3904526   9.7143459
 108.6139704  56.8744843   0.1618767 108.0874874  56.7837327  -0.6323528
 108.1430270  57.5199502   0.6889629  91.0396160   4.9091475  44.9157333
  91.4746346   4.5159094  44.1591930  90.1524712   5.0985282  44.6102142
  93.5260452  10.5917637  14.5308018  94.0318038  10.8689587  15.2947330
  93.5357954  11.3514750  13.9485836   8.1540126  59.7361994  64.0635490
   8.2767022  58.8684464  64.4484901   8.9600784  60.2076530  64.2738390
  90.8115742  95.8510113  81.1640835  90.2230451  95.4965973  81.8306065
  91.5284845  96.2438583  81.6620255  30.7071185  95.4949093  76.6369534
  30.1925755  96.2364006  76.3180828  30.4128814  94.7538090  76.1074018
 107.7695099 104.2082787  31.1135149 108.1222841 105.0835323  31.2738609
 108.4625021 103.6142159  31.4017677  44.0522642   8.1703109  88.2767010
  44.4532276   8.7506217  88.9237690  44.0646274   8.6741275  87.4629116
  81.3844843   8.6376517  12.1630764  81.8929686   9.4472067  12.1151161
  81.0047217   8.5412448  11.2897396  43.9527751  42.5896542  30.2065945
  43.0410530  42.5480263  30.4951477  44.2475082  43.4616940  30.4691124
  61.3741077  34.8506730  21.9787121  61.8550159  35.3763478  21.3394737
  62.0306493  34.6077912  22.6315498  69.6295454  42.4893468  19.7232819
  69.0919156  41.8193429  20.1455116  70.5206276  42.1421521  19.7639847
  84.8134293   9.1247027  17.0376682  84.5621897   9.7277920  16.3381004
  83.9969893   8.6898034  17.2836781  72.6702616  73.8955498  76.8801117
  71.9035432  74.2533970  76.4325380  72.3510334  73.6606646  77.7514029
  87.8882493  42.1544163  24.2713547  87.7604844  41.7793744  25.1427078
  88.8277699  42.3307316  24.2218971  50.8125866   6.3850230  84.5339394
  50.1449741   6.9426841  84.1345119  50.6702114   6.4781398  85.4759026
  62.6920129  32.8683941  24.1542339  63.2553412  32.8315442  24.9272347
  63.2985224  32.8394120  23.4142780 100.3432402  97.5010014  87.1390820
 100.1231834  97.5678158  86.2099171 101.2093076  97.0935631  87.1514130
 109.3075173  74.8420048  87.9470730 108.8966179  73.9816189  87.8626442
 109.2299861  75.0542116  88.8772297  28.5598493  72.4874496  88.3171749
  28.4484506  71.5405416  88.4019756  28.7246180  72.7901506  89.2101765
  39.6208882  88.9932442  90.6993198  39.3682051  89.2432404  89.8105621
  38.7904501  88.8451290  91.1517239 108.5549793 102.1457291  35.3093076
 108.1552014 101.9576263  34.4601750 108.3307362 101.3900089  35.8522868
  45.0612642  56.2910645  24.5061493  44.5456935  56.7565243  25.1647568
  45.2012493  56.9353860  23.8122654  58.1996132  91.7946385  19.9506092
  58.8755728  92.4138259  19.6750736  58.6627460  91.1642836  20.5023289
 101.8827757  91.5983868  40.4612398 100.9552774  91.7836952  40.6083488
 102.0587906  90.8211899  40.9915352   5.6798941  86.3249588  90.8418846
   5.9115487  87.0322514  91.4438057   6.3252753  85.6401634  91.0173035
  16.0029197   4.0130347  71.1117649  15.2772165   4.5509643  71.4283371
  15.6711102   3.6119479  70.3084803  98.2158495  38.5439961   0.7066059
  98.5666682  37.6660626   0.8562374  98.5165097  39.0535252   1.4590836
  71.1616418  81.6140842  78.0067968  71.7233416  82.3862076  77.9392672
  71.0082433  81.3494301  77.0997906  10.6224287  49.2756081  53.3565903
  10.4623759  50.0748491  53.8584185   9.8677814  48.7182856  53.5466766
  28.0155277  92.9170609  68.8688183  28.0040431  93.0760384  67.9249859
  28.4259701  92.0573425  68.9619160   9.4411570  90.8221817  67.1549177
   8.8289797  90.0866127  67.1751881   9.8961604  90.7783604  67.9959154
 105.6232920 103.4496117  66.5171480 104.7247425 103.4449863  66.1872721
 105.7348493 104.3215275  66.8960381  45.2361835 104.8827003   3.9534569
  46.0332561 104.3904947   3.7568760  44.6039677 104.5861267   3.2987881
  10.5936730  64.8430443  75.5080223  10.1655340  64.0059996  75.3283501
  11.2766266  64.9108410  74.8407841  62.8071833   6.4099139  89.5453930
  63.7066079   6.1108035  89.4119644  62.2866631   5.6066817  89.5555019
  57.6581264  47.5741786  79.2619085  58.4248281  47.0203799  79.4092369
  57.5384808  48.0423278  80.0881958   4.3445638  64.2027664  72.3427820
   4.1054085  65.0889111  72.6144075   3.5217974  63.7142467  72.3680687
  40.5785487   7.4485702  27.0275927  41.4821038   7.3200435  27.3162103
  40.5506898   7.0665854  26.1503577  85.3489651  31.2653535   1.4318848
  85.3174223  32.2202103   1.4910030  85.9850456  31.0050194   2.0981121
  47.5909651  13.7932414  80.6159115  47.5257779  14.1741866  81.4916229
  48.3268178  14.2511958  80.2096748  10.0041270 102.4521923  34.9890018
  10.2958012 103.2923603  35.3429294  10.0864565 102.5503349  34.0404129
  30.2776599  71.2276363  80.9955692  30.6685281  71.3785362  80.1349449
  30.1642299  72.1037531  81.3640594  23.8135600  82.1030807  56.6349792
  23.2721281  81.8896484  57.3949337  24.6921587  81.8103409  56.8770504
  14.8466158  90.4508305  83.3020973  14.9766958  91.3930035  83.1943130
  14.6102321  90.1401520  82.4281216  14.4415236  97.2665977  61.2461472
  13.8725448  96.5373230  61.4924192  13.8714027  97.8611183  60.7585573
  31.1565066  25.9383124  63.0137396  30.2329106  25.8864707  62.7677441
  31.5192092  26.6144485  62.4414396 108.7580132  69.5654154  69.1751766
 109.2305619  69.2076254  69.9267817 108.6366197  68.8174057  68.5903931
   2.7329737 101.1441135  51.7229748   3.2931930 100.3835011  51.8774366
   3.2041019 101.8741131  52.1246815  14.0251493  82.1821404  86.1920357
  14.4783521  82.8895855  85.7333755  13.2055128  82.5764847  86.4902401
  31.9017029 104.1810608  76.4242792  31.3489485 104.3138123  75.6541681
  32.4583793 104.9590683  76.4565277  92.2565760  63.0223935   0.4931164
  92.8719665  62.4001782   0.8808804  91.6584255  63.2440274   1.2067890
   7.2066790  89.0359974  86.2268353   7.2604984  89.6999931  85.5394936
   6.3334370  88.6571598  86.1260414  25.6075501 101.4183331  60.3178978
  26.1805701 101.1734581  61.0444784  24.7218513 101.2951279  60.6593513
  36.1639214  97.3859501  83.7026024  36.2670016  98.3102512  83.4761429
  37.0498872  97.0269966  83.6531544  94.8852254  42.3486798   2.5570488
  95.1209713  41.4304154   2.6891708  94.9003746  42.7286236   3.4354877
  37.6131756   9.3283767  90.3469849  38.3360592   9.9450416  90.4627323
  36.8516339   9.7813624  90.7090569  72.6181519  47.0038693  18.6883640
  72.9576984  46.1477559  18.9491463  71.7208995  47.0172780  19.0215111
  80.7785961  90.9381580  68.6311197  80.9168646  90.0212479  68.8685703
  79.9573871  90.9370041  68.1393385  36.7475750   6.3352698  43.2802773
  36.2915180   6.0613269  42.4845409  36.7265990   7.2917956  43.2511187
  91.3164915  59.2321961   0.5254078  91.4095797  58.3399193   0.8591938
  92.1484293  59.4121258   0.0875378  58.0323077  12.1624297  76.8894243
  58.6190320  12.6057166  76.2766552  58.5834647  11.9611568  77.6456976
  24.2838359 104.5303059  64.7136641  23.4569645 104.5727730  65.1939869
  24.6826696 103.7071323  64.9957180  88.6957134  58.3681576   2.9826736
  88.0100001  57.9116147   3.4701157  88.3686174  58.4018319   2.0837307
 106.9685914  30.2490418   9.8272419 107.5481464  30.2435677  10.5890274
 107.3726608  30.8721726   9.2233562  36.5894721  29.4415301  84.2953682
  37.2566503  29.4383163  84.9817276  35.7814131  29.1955489  84.7456551
   1.7625551  76.4779370  17.1524143   2.3162846  76.1966221  16.4240742
   0.8786707  76.2135403  16.8973160  75.2825715  35.0897591   7.6048946
  74.7509203  35.0953572   6.8089294  74.9567869  35.8307927   8.1157303
  16.2478578  76.9790220  83.9758396  17.1051633  76.6945839  83.6590576
  16.3553178  77.0527887  84.9241257  46.1693192  95.3190804  54.8985434
  45.3800249  95.8440304  54.7655916  46.5831804  95.2861786  54.0360641
 107.1345061  80.6314850  79.5086956 107.7372023  80.1974583  80.1125240
 106.7901948  81.3733864  80.0059509 100.2351095  50.3442853  26.2914085
  99.2964269  50.4693978  26.1519337 100.3769304  49.4094842  26.1421490
  93.9698495  39.0211861  18.0008411  93.1150915  39.3737595  17.7532291
  94.2119314  39.5101540  18.7873077  65.7479347  63.4705632  13.6529636
  65.8754982  63.5965150  14.5932293  65.5152483  62.5463002  13.5645199
  24.3878818  91.9706917  72.5918388  25.2792788  92.2345924  72.3638010
  23.8435245  92.7123928  72.3276663  80.9601219  41.5006726   6.1093807
  81.1016877  42.3738091   5.7435703  80.6404985  41.6618531   6.9971275
 111.8886339  42.1181250  52.5762081 111.3935964  42.9296875  52.6881409
 111.8896602  41.9666147  51.6310740  10.1169086  58.3976460  59.3021870
   9.8120928  57.5426245  59.6059179   9.6643049  59.0267134  59.8640156
  10.1697783  30.9612935  11.6636753  10.7898001  30.8637135  10.9409904
   9.3374161  30.6488793  11.3089848  74.0415333  43.3760636   1.9664574
  73.4162562  42.7229588   1.6522598  74.8995873  43.0006974   1.7687702
  23.3442688  99.8560429  50.7006550  24.0776324  99.2518425  50.8161640
  23.5659909 100.6092644  51.2481260  83.0321009  31.3695233  17.4701786
  82.5149251  31.9213288  16.8834305  82.6247670  31.4850991  18.3286381
 102.0360281  65.4822819  17.4172497 102.8025748  64.9206059  17.5319862
 101.3759090  65.1088421  18.0012226  91.5386964   5.1672954  75.1107264
  91.7200232   5.6999702  74.3363810  91.8621445   4.2956752  74.8829412
  68.0240335  22.7457850  24.7321892  67.2745354  22.5387185  25.2904129
  68.3333065  23.5936062  25.0512314  20.1417542  93.7756920  79.6576071
  20.1065421  94.0375423  80.5776215  20.6879520  94.4415283  79.2398119
  25.9452558  41.9527340  63.3341455  25.9055424  42.7165794  63.9096403
  25.0965714  41.9418955  62.8915977  85.2115489  27.5719731   9.2070293
  85.6632759  26.7532389   9.0024567  85.7849480  28.0114644   9.8349571
  24.2031693  69.3218184  66.3651896  23.4661388  68.8322020  66.7302847
  24.8251629  69.3936396  67.0892048  77.4988338  47.3101807  47.2619772
  77.1138641  46.4511681  47.4355412  76.7847773  47.9284430  47.4172354
   3.7096524  91.1999798  70.0662231   4.5796445  90.9121037  70.3427649
   3.8471049  92.0834541  69.7244501  88.5214517  19.1033554  36.9635105
  88.6175725  19.6395540  37.7505851  89.4151470  18.9910769  36.6395760
   0.3544560  69.8598051  62.1037006   0.5561516  69.7284079  63.0301380
   1.2044550  69.8192167  61.6654253 110.6204740  39.3679881  56.5154314
 109.7910342  39.7694850  56.2564707 111.1656778  39.4168186  55.7301950
  28.6963148  99.1302656  19.4079399  27.7531690  99.2890524  19.3692684
  28.9148844  99.2107748  20.3363705  71.9914661   2.6762335   1.7880249
  71.5781240   2.9113381   2.6187515  71.2769283   2.3270838   1.2553310
 100.3685936 102.2058868  62.3366880 101.2634334 102.1294880  62.0055437
  99.9953219 102.9412079  61.8506861  13.7468278  82.6226711  50.2355289
  12.9309297  82.1771336  50.0074244  14.1334832  82.8606033  49.3928432
  34.7360778  78.1159973  82.7522755  34.5999956  77.1965647  82.9810905
  35.4141259  78.4156895  83.3578014  11.2314343  86.0343266  74.3559980
  11.3459051  86.6259480  73.6122847  11.8635190  85.3320122  74.2028570
   3.5348824  74.9005413  74.9342823   2.6292002  74.8343706  74.6316385
   3.5098815  75.5669785  75.6209183  50.5885840   4.1802234  37.9780889
  50.7999194   3.2837791  38.2387805  51.4295781   4.5604342  37.7243161
  82.7886316  57.3581886  38.3841729  82.6044223  58.2199001  38.7580061
  83.7088749  57.1981096  38.5933566   7.5453371  79.2045403   9.3512297
   6.8836832  78.6494541   8.9385259   7.0412332  79.8628092   9.8295546
  72.5138241   4.2794650  12.4994850  71.6316868   3.9259284  12.6138306
  72.9491259   4.1121571  13.3353996   6.9045168  58.8945055  70.6743526
   6.6147447  58.5388994  69.8342323   6.1172873  58.8942623  71.2188721
  82.8666374  54.5351982  56.5921926  82.0848462  54.4315863  56.0496998
  82.8802583  55.4654026  56.8175077  20.4214549  86.9221783  86.2873554
  19.4923186  86.7723370  86.4619541  20.4312515  87.5627232  85.5761337
   1.4599670  32.8808451  59.8681164   1.5537529  32.8333926  60.8195257
   2.3474562  32.7525187  59.5332623 108.3245939  76.1162710  68.4182358
 108.8958493  76.7651939  68.0073881 107.6735371  76.6351604  68.8905811
  23.0201817  73.8073349  73.2803440  23.2213402  74.3656015  74.0314150
  23.8431239  73.3574152  73.0891132   7.1482110  78.2656956  48.4248829
   6.3892901  78.4456491  48.9797592   7.8673393  78.1252956  49.0408182
  26.2921190  56.9057608  49.3834305  25.9582901  57.1673918  50.2415323
  26.6583395  56.0327768  49.5249033  22.2251177  96.0311699  84.9766636
  23.0557871  96.4299679  85.2358437  22.4221516  95.5790424  84.1563034
  69.5632483   1.5344327   7.0189095  70.4891635   1.7768662   7.0306587
  69.1037108   2.3309844   7.2845459  34.6829891  58.4866428  65.0660181
  33.8596797  58.2807398  64.6232986  35.3617215  58.2007360  64.4546127
  45.5427647  56.8025446  70.7916403  46.0686588  56.9512463  71.5774870
  44.6442795  56.7330503  71.1143255  21.4702940  65.6238985  75.3864241
  21.3637209  64.9438667  76.0515785  21.8636608  65.1702452  74.6409750
   3.1102231  84.7432613  22.6279211   2.6136193  85.5091667  22.3398089
   3.5468319  84.4291687  21.8361187  12.6447774  16.7345231  14.0215588
  13.5674097  16.6260474  14.2522335  12.3284580  17.4168055  14.6137333
  20.0371432  77.9410839  48.6148930  20.3791952  77.1006298  48.3101511
  19.2045641  78.0422831  48.1535912  84.6580026  41.7201757  86.2753391
  84.3736717  42.4173975  85.6843472  84.8392197  40.9772491  85.6996155
 109.4619521  82.1312046  57.3374844 109.9156091  81.3698006  57.6989985
 108.6152071  81.7907333  57.0488024  17.6269388  38.2039881  51.3368130
  16.9128764  37.8847075  50.7850838  17.2476673  38.9398026  51.8174028
  84.8913881  50.2636290  46.0922098  84.1950366  50.9203768  46.0950708
  85.6945369  50.7655191  46.2310982  82.1452567  50.7384014  54.0008640
  81.9113442  49.8106766  53.9718723  82.6002428  50.8446980  54.8362780
  27.3356390  66.5674877  87.3624706  26.5578794  67.0911694  87.5550270
  28.0484796  67.0241213  87.8092098  34.6032677 100.6516765  23.9251900
  33.8560332 100.8948492  24.4717598  34.7467834 101.4131092  23.3631802
  14.2487633  77.1915579  88.8620090  13.8302350  77.2373772  89.7216415
  13.5540962  77.4213076  88.2448578  14.0580070  79.4977140  80.0983906
  14.8386550  79.8781443  80.5010033  13.6804819  80.2124119  79.5856380
  32.6992989  57.3975658  74.7376537  33.2473326  56.6150951  74.7979403
  33.3196831  58.1263256  74.7538710  67.6533534  23.2419150  13.4250832
  68.5224099  23.2192652  13.8256550  67.3700364  22.3276513  13.4157181
   5.9865177  50.4733896  69.6298552   6.3131732  49.8715544  68.9610338
   5.9767747  51.3280106  69.1988516 102.2129580  42.7570248  27.5048590
 102.9396418  43.2127905  27.9296446 102.6236203  42.0188856  27.0546007
   6.9358379  70.5836296  83.9840412   7.6101148  69.9876738  83.6578274
   6.1980492  70.0141525  84.2022038 103.3697483  60.4050064  69.7586823
 102.9281965  60.7650518  70.5278587 103.3037022  59.4562292  69.8668194
  45.3759480  84.3461132  59.5321178  46.2528992  84.7257423  59.5875359
  45.1731157  84.3473053  58.5966539   2.7551651  36.5029049  54.5621967
   3.0780244  36.1556816  55.3937149   1.8098433  36.3555622  54.5919991
   9.5326912  29.0318108  52.0464277  10.3968215  29.2782855  52.3762178
   8.9217591  29.5698142  52.5499630  11.9117284  67.7031040  76.8683386
  12.2717357  68.0599880  77.6802874  12.5979781  67.1244097  76.5360641
  66.2502141   8.1868785   7.0528126  66.2716831   8.9584725   6.4867592
  67.0277764   8.2727759   7.6043987  27.2004080  64.1391945  47.6792765
  27.3109603  64.9673986  47.2122717  27.8386426  63.5502291  47.2767782
  22.9074216  79.6477461  54.5170069  22.4380207  80.4738903  54.4013405
  23.8143253  79.8538208  54.2905331  78.2580110  10.5968249  69.4789791
  78.2765171   9.7481132  69.0367365  78.8647506  11.1414754  68.9775276
  -0.0453676  62.0623302  52.1595383   0.5701140  62.0198536  51.4276838
  -0.1463989  62.9981470  52.3335218  23.4685386  86.8668603  23.0450916
  23.6975194  87.7086924  22.6512432  24.2116059  86.2981199  22.8435612
   1.1468186  55.2793694  61.9326067   0.7433107  55.9344959  62.5020075
   0.5061860  55.1412106  61.2349415 104.6935382  85.4867077  45.7325077
 105.1775822  85.6447887  46.5430260 103.9083531  85.0151062  46.0105419
  96.0723695 102.4170017  61.1210299  95.6946203 102.0009613  60.3461456
  95.6478950 101.9792175  61.8588686  56.7339075   1.1092586  77.0637655
  56.1327339   0.3916377  76.8641520  56.3143481   1.5798778  77.7839851
  20.8763385  42.1348476  39.6877646  20.9407854  42.6136541  40.5140972
  20.1374269  41.5393972  39.8129749  88.2814051   1.6257231   5.1833057
  87.3788525   1.9090932   5.0372601  88.1985904   0.7775109   5.6190968
 106.2493727  64.5926619  65.6103945 107.0997092  64.5220423  66.0441828
 105.6873003  65.0241280  66.2539339  99.3903074  95.0120258  66.4333487
  99.7780547  94.5319843  67.1650839  99.9757716  95.7572269  66.2986755
   3.3699259  94.9618340  60.0567484   4.1801393  95.1912880  59.6016216
   2.6793534  95.1287746  59.4152880   1.3325028  36.7678158   9.8068142
   2.2292046  37.0071595   9.5725632   1.0051160  37.5196927  10.3005028
  89.7798607  66.8314838  49.3465471  90.5376384  66.9477367  48.7734079
  89.0263292  66.8660545  48.7572861   1.6600503  87.2188187  82.9681015
   2.4574597  87.1477032  82.4433994   1.4059404  86.3124371  83.1416988
  12.6834500  52.8565025  53.3762360  12.1758246  53.6630154  53.2863426
  12.2530115  52.3804760  54.0864134  10.8937311  44.4185543  63.9446878
  11.4546311  44.1436291  63.2194042  10.0494194  44.0051270  63.7645531
  36.1753130  81.6377068  89.4637966  36.3448429  82.5785351  89.4155502
  36.7564631  81.3248539  90.1570702  91.7475268  31.8273234  25.8902645
  91.6056249  31.6449761  26.8191576  90.8750793  32.0231485  25.5486155
  24.4618225  65.2632475  75.2392673  24.6674180  65.7380867  76.0445547
  24.9090719  64.4225216  75.3361273  23.1432152  49.5195484  80.2426243
  23.9950919  49.7718191  79.8863935  22.5792623  50.2738667  80.0717449
  46.0103893  68.3183908  55.1722622  46.7017555  68.1061840  55.7993269
  45.9984589  67.5757313  54.5684862  25.6944633  87.4673557  73.1355143
  24.9551058  87.1669292  73.6640310  25.9746122  86.6902542  72.6519108
  14.8106384  57.8540659  59.9162054  14.8417234  58.3001995  60.7625151
  14.0829861  58.2692337  59.4531822   5.7956445  25.7955670  65.5216599
   5.1995033  25.0473571  65.4895735   5.2657312  26.5367699  65.2283335
  67.7723071  76.3622665  57.2685385  67.2197768  75.7648897  57.7726078
  68.5311219  76.5185356  57.8306866  69.8111702  92.3837851   0.7767296
  69.0481783  91.8385957   0.5847836  69.7200371  93.1372188   0.1934147
  93.2193109  70.5086994  54.3403101  93.3888242  69.8306465  54.9943256
  92.9948828  71.2852335  54.8530102 101.2617876  11.8812840   2.9428959
 101.2667848  11.7608779   1.9933128 100.3411700  11.7951005   3.1904125
  91.6510984  92.9434586  12.1955061  90.6970093  92.9905987  12.1344912
  91.9508120  93.8159943  11.9403744  80.4865667  54.2164326  77.3767376
  80.7219240  53.7305260  76.5863323  81.2924764  54.6664906  77.6300859
  98.4250161  67.0318651  74.7325659  97.8209636  67.7682877  74.6375036
  99.1828927  67.4007559  75.1861906   6.0708719  95.8168983  90.8571243
   6.0856849  96.6894722  91.2503529   6.3208854  95.9611988  89.9444866
  13.8868046  61.1859274  79.3891335  14.7892439  61.3436127  79.1117001
  13.4712291  60.7758236  78.6306190  45.0955725  77.9037857  21.0664535
  45.3412962  77.0548582  20.6987858  45.1539707  77.7804184  22.0138741
 104.0096042  83.7268829  67.8023911 103.1788382  84.1885185  67.9162169
 104.6571931  84.2916870  68.2241249   4.3461955  80.5705070  74.6262074
   4.4707212  79.6316719  74.4872475   4.1940019  80.9242249  73.7498760
  75.2202460  64.6707153  54.3208981  75.6855890  64.6867704  53.4845781
  75.9098765  64.7476864  54.9802303  58.5648823  77.2340631  68.2576036
  57.7123785  76.8318129  68.4239483  58.6393070  77.9204464  68.9206028
  62.1232939  93.6951733  55.1233912  61.7470455  92.8914642  54.7646046
  62.3220873  94.2303467  54.3550873   3.5839003  46.7798805  65.9778738
   3.5951170  46.0337782  66.5774012   4.0517342  46.4708138  65.2020884
  14.9399471  80.4912663  65.1616478  14.0777338  80.7575130  65.4809189
  15.5568218  81.0159683  65.6719255  99.6999964  77.1111679  29.3452454
  99.2224464  77.8466797  29.7289133 100.5207750  77.0761251  29.8364973
  87.9939243  56.0410213  87.7532959  88.8109657  55.7196045  87.3720264
  87.3600289  55.9917116  87.0377731 105.0311401  56.9592810  68.6923122
 105.0791040  57.5217390  67.9192829 104.3239698  57.3338318  69.2175341
  65.3889473  12.9244845   7.4256516  65.6208517  13.3851378   8.2320404
  66.1665942  12.4087470   7.2123241   3.4171927  46.1487770  83.2074261
   4.3710211  46.2245893  83.1810570   3.1618103  46.0200739  82.2939396
  18.7211633  65.6285620  72.3271227  18.7259161  66.1677980  71.5362787
  18.0834842  64.9388742  72.1429253 110.6344052  80.4944229  53.9305925
 111.4376208  80.5338192  54.4497490 110.8890656  80.0360966  53.1297684
 106.3422921  84.2641926  84.7754765 107.1161830  83.8501740  85.1574516
 105.6185296  83.6848259  85.0136566  77.0319248  11.1865729  48.4215069
  76.4156962  10.9457988  47.7297544  76.5061618  11.1862964  49.2213821
  27.7104616  69.9397182  90.7571030  27.0532584  69.2503214  90.8522129
  28.3439946  69.5824671  90.1348209 109.2246088  73.7029314  69.7245121
 109.6676612  74.1732597  70.4307175 109.0481257  74.3731165  69.0642548
  62.9944242  70.7191746  16.2106705  63.6457838  70.6705754  16.9103813
  62.4216415  71.4421837  16.4664364   4.5765674  62.5937748  36.2310028
   4.0350351  63.2654810  35.8165359   5.2970821  63.0803871  36.6313767
 105.6169668  55.5104876  71.0418749 105.3335282  56.0093498  70.2756977
 105.0096545  55.7699966  71.7347383  35.6209660  83.2821560  81.6195202
  35.7903814  83.5320282  80.7111740  35.7794976  84.0816498  82.1214199
  44.7983243  16.5620368  24.4851685  45.5552985  17.0600598  24.1766262
  45.1717712  15.7587950  24.8478889  28.2927823  93.8192844  90.4388905
  28.8671064  94.5646286  90.6145477  28.1251192  93.8627529  89.4974899
   3.2317391  72.3073053  77.1925688   3.2475752  71.7353964  77.9599619
   2.6222599  71.8819380  76.5893841  51.5413810  42.9338067  12.3586178
  51.0080196  43.4224980  12.9854774  50.9442569  42.2804825  11.9941425
   1.1946903  60.7060480  29.6075273   1.2034275  61.3615990  28.9101005
   0.9082959  59.9010611  29.1760063   9.3131710   2.4955863  69.6850204
   9.0702010   3.3742160  69.3931055   8.8850785   1.9090671  69.0613461
 106.9269478  66.8836021  63.6806679 106.6381815  66.4361906  62.8852606
 106.6900328  66.2868452  64.3905830  99.7051057  68.7742901  37.3504639
  98.9709827  68.4147120  37.8484607  99.3078873  69.4315767  36.7791319
  16.6003621  99.8940563  48.4273863  17.5335050  99.8861027  48.6404848
  16.5171134  99.2853642  47.6933622  33.7544060 103.4284019  73.7457943
  32.8735518 103.7749863  73.8879538  33.6158538 102.6110458  73.2673025
   2.5578374  63.1367970  78.6979628   1.7394853  63.5720634  78.9368629
   3.2425672  63.7464809  78.9730263  32.6785541  85.6926823  47.0779991
  33.1119132  86.2307930  47.7404737  32.1852374  85.0446987  47.5809717
  23.8390422  89.9610424  74.2607403  24.3805575  90.2616882  74.9905396
  24.0285611  90.5764008  73.5524702  12.8093874  99.3740463  70.5471802
  13.3097291  99.6087456  71.3287210  13.1907058  98.5448074  70.2587366
  28.5197687  64.2987680  59.9879551  28.7598300  63.6826658  60.6800699
  29.2646790  64.8971796  59.9310255 111.9956989  33.4912634  48.4287930
 111.7350850  32.5935388  48.6347103 111.3886065  33.7651920  47.7413130
  28.4583616  90.2259350  68.3249712  28.9407444  89.8535252  67.5868320
  28.3400846  89.4923496  68.9283800  87.1952173  93.6250687  34.3281960
  87.7174851  94.1040897  33.6847663  86.9091126  94.2939568  34.9502587
  16.0878885  93.3702660  73.0912876  16.1097109  94.3128777  72.9262352
  16.1128247  93.2934761  74.0450764  13.5447645  84.2910385  77.2011328
  12.7541077  83.8790512  76.8527651  13.4404242  85.2203751  76.9969893
  20.7183599 102.9430103  89.8180771  21.3250399 103.6684990  89.6703053
  20.1223660 102.9729462  89.0696621  10.8246398  67.8301382  29.3563604
  10.1240158  68.2741117  29.8341107  11.0664809  68.4427881  28.6618066
  18.9254153  87.8355598  81.0466862  19.8762548  87.7344799  81.0904884
  18.6211276  87.0467949  80.5978107  44.2964888  87.5397205  50.7231665
  44.5892620  86.7458057  50.2757168  44.1625357  88.1753349  50.0201130
  96.0616352  29.2162221   9.5779705  95.2555324  29.0682118  10.0724697
  96.6519929  29.6373456  10.2027607  39.5900178  72.8188038  70.0746441
  38.8253045  72.8518486  70.6494093  39.8463893  73.7343931  69.9642229
 104.5180067  66.2584972  55.2090931 104.2886934  65.7541609  55.9896660
 104.5668373  67.1642113  55.5149269  13.7519503  92.3236465  86.4038277
  13.5018337  92.1487999  87.3110771  13.8336086  91.4566326  86.0065365
   2.7039596  89.1582584  80.9928608   2.3660956  89.0015507  80.1110840
   2.1461949  89.8528385  81.3431263  61.7662716  82.6515770  47.1152258
  61.5566826  82.1649265  47.9123926  60.9445238  82.6732826  46.6248322
   8.5346460  69.2265987  51.5131426   8.0996901  69.3601799  50.6710005
   9.4679219  69.2117262  51.3009930  34.4967413  33.3356500  39.7011423
  33.9341092  32.7500725  40.2078724  33.8995314  33.7806463  39.0998507
  19.8963356  75.0433111  70.3884220  19.9118435  74.1105652  70.6028318
  20.4093981  75.4571772  71.0824776  34.6620941  71.4300299  56.3888264
  34.5776796  71.6537333  55.4619694  34.2769217  70.5566788  56.4604712
 108.3301666  47.7848291  81.7416668 108.3396628  48.7399197  81.6789246
 109.2445591  47.5278950  81.6229057  33.1648636  81.3588142  89.6663189
  32.8815460  81.4316273  90.5777168  34.1000342  81.1621475  89.7211838
 104.9390623  64.2654228  81.3663483 105.2657929  63.4257174  81.6894245
 105.1162478  64.2455578  80.4259014  17.9603457  53.9373064  56.2445784
  17.3357046  54.6535110  56.1300945  17.7610040  53.5817909  57.1106625
 104.3170169  65.2556753  46.6515207 103.6146018  65.4789877  46.0408020
 104.4170794  64.3076420  46.5651798  41.6818428  74.1592884  44.2248964
  42.5663662  74.5092106  44.3316555  41.6564417  73.8439369  43.3214951
  17.3975134  41.6520357  81.3324356  16.8976998  40.8463812  81.2007618
  18.1598687  41.5569687  80.7614613  91.6184732  83.5334206  77.1389914
  92.0749328  83.7172413  76.3179684  92.0498702  84.0942669  77.7836418
  70.8010126 104.0936397  12.9138279  71.4413954 104.7663234  13.1454277
  71.2270070 103.5847734  12.2240353  41.2086725 101.3846207  59.3997431
  42.0132494 101.0019398  59.0498257  40.7295036 100.6413460  59.7660303
  52.5356806   2.0995826  56.4438534  51.8627299   1.4740867  56.1753082
  53.3236039   1.8180007  55.9789658  51.5555429  80.7825947  58.9068508
  51.2674379  80.9467506  58.0089188  50.7841158  80.9656429  59.4431543
  60.5625333  48.5787480  10.8783340  60.3701200  47.9035752  11.5289783
  60.0766720  48.3065407  10.0998211  32.3102117  65.5146790  44.0885925
  33.2523394  65.5948114  44.2376137  32.1094513  64.6049738  44.3085146
   1.3826528  71.4879513  57.6739454   1.9901435  72.0302725  58.1770086
   1.3485882  71.9028854  56.8120337  28.6790156  75.5548620  45.0718355
  28.6454511  75.5768251  44.1154766  28.0957890  74.8360443  45.3155184
 107.8283817  61.4351130  74.2275524 107.4668807  60.6006145  74.5261431
 107.4526817  62.0850706  74.8213863  14.9022543  96.3547325  38.6901164
  15.7291138  96.6371536  38.2992554  14.5044768  97.1612835  39.0179563
   7.1910584  73.4299898   7.9300457   7.5161463  73.4222078   7.0297742
   6.7552668  72.5841904   8.0346477  34.3641595   7.6165313  50.5470514
  34.3881092   8.2218570  49.8059464  34.1279507   6.7734641  50.1601553
  22.6062226  87.5681686  88.0150127  22.3670959  88.4664249  88.2434273
  21.9810462  87.3196602  87.3341084 106.1904910  86.4709949  47.7662897
 105.9121522  86.8060112  48.6186504 106.6684112  87.1982002  47.3675489
  62.4199869  28.3301633   4.9498558  62.0737995  27.7016823   5.5834103
  62.9261066  28.9480107   5.4774380  20.0504684  87.7315235  72.3409462
  20.1817870  87.9732418  73.2577705  19.1047466  87.6086998  72.2587299
   2.9679054  91.0291576  87.9916000   3.0162495  91.9573402  87.7627468
   3.8459820  90.8139610  88.3060837  26.9687533  77.7752352  66.4646769
  27.3039889  76.9188261  66.1993170  26.3325024  77.5806522  67.1528292
  14.4587600  85.9788799  49.1978359  13.5805416  85.8102512  48.8564730
  14.8654282  86.5462875  48.5429239  17.6499820  58.1593943  37.2848415
  17.1306539  57.5425529  37.8006315  18.5301960  57.7833700  37.2769189
  28.4595752  86.7999840  66.5577364  28.0918455  86.7243195  67.4382353
  27.7039313  86.9748974  65.9968090 101.5241787  70.0081491  71.8667078
 100.8167335  70.5983877  72.1262646 102.1385136  70.5659056  71.3894987
   8.5651273  75.4090071  60.9296799   9.1179997  75.5516052  61.6979408
   8.8818669  76.0424614  60.2857494  17.8702105  95.8169960   0.5638886
  18.0021656  95.4083799  -0.2915955  18.7208153  96.1986469   0.7807827
   0.4273228  78.3630459   7.9443741   1.2665324  78.7600701   8.1774616
  -0.1424857  79.1062539   7.7464008  66.8110681   1.9282455  66.9767523
  66.5699697   2.1153564  67.8839970  66.8568779   2.7881927  66.5588665
  91.8163587  40.4944890  12.4683380  91.6027845  39.7338193  11.9279671
  91.2692560  40.3959458  13.2475662  14.6332741  83.4104156  47.7537441
  14.1777527  83.9716434  47.1262455  15.0991666  84.0200043  48.3260965
  22.5017381  90.2219582  58.8170576  23.3333492  90.5762768  58.5022306
  22.0789027  89.8709583  58.0333233  18.0685508  96.1937523  73.4714651
  18.1963801  95.7276440  74.2976856  18.9527392  96.3142776  73.1251764
   7.8193057  45.6326246  62.1014118   7.8895926  44.7298908  61.7909861
   7.2043049  46.0468578  61.4960909  93.2504472  59.3032455  65.8993816
  93.6138222  58.5584450  65.4203606  92.8303263  59.8388863  65.2264595
  95.7525088  37.5844948   3.3213425  94.9553014  37.0549290   3.3055210
  95.8401348  37.8582280   4.2343712 104.9508092  64.6939564  78.7122536
 104.0011379  64.8019266  78.7642145 105.0829354  64.0806007  77.9893684
  91.5274140  91.0080814  70.9940195  91.6277620  91.4929771  71.8131828
  90.9010598  90.3145981  71.2013817  35.7038546  48.0253124  90.7935143
  35.3386116  48.0712318  89.9099350  35.0002694  47.6520300  91.3244247
  20.1125932  74.2877483  84.0266895  19.7585368  73.6443996  84.6406841
  21.0231566  74.0214872  83.8993835  16.6407669  44.7512674  56.4632988
  17.1379054  44.9576521  55.6717873  15.7503211  44.5896101  56.1515188
  16.8663502  72.5975370  83.4967709  15.9541774  72.7628899  83.7351608
  17.3192823  72.5017786  84.3345642  89.6988747  63.3175182  37.2867942
  88.9529797  63.8306046  37.5976205  90.4663131  63.8097525  37.5783062
 110.4186243  61.3114548  73.4277058 110.5136682  62.1056271  72.9018831
 109.5011637  61.3132858  73.7006426   9.5249110  24.0083170  88.4300709
   9.3408382  24.8005033  87.9253006  10.3099215  23.6419153  88.0229568
  30.7793951 103.7361908  70.6095600  30.9726858 102.7993679  70.6448078
  31.6102862 104.1604042  70.8237886  65.9662868  16.9747965   6.2024879
  65.8997937  17.5559609   6.9601536  66.8930156  16.7385762   6.1624241
  35.1862288  68.5546970  42.3996067  35.2659178  69.4995260  42.5306845
  34.4273257  68.4558153  41.8246984  21.1874295   5.9291286  71.6108656
  20.3480709   5.9820003  71.1537933  21.3782025   4.9921149  71.6537428
   8.8329989  84.9280930  74.0962410   9.0516990  84.1295719  73.6158466
   9.6790230  85.3364754  74.2798042  70.1807023  77.5987528  22.2031021
  69.6369601  77.9348944  22.9155540  70.8008028  77.0094799  22.6325989
 106.1800513  92.5013351  67.4611568 106.6984621  93.2320786  67.7980423
 106.1527005  91.8739605  68.1835699  35.4328489  63.4540892  60.2237368
  35.7506943  62.6612902  59.7916746  34.8198223  63.8388681  59.5973444
   5.5219257  76.7909288  59.2457294   4.7624865  77.0701981  58.7343645
   5.3820324  77.1746922  60.1114035   8.5854805  71.1032248  55.0486803
   8.3300173  71.5811157  55.8377218   9.5196927  70.9303570  55.1652861
  92.8254828  82.6890850  89.9960709  93.1373009  83.1664658  89.2272377
  93.0207452  81.7719173  89.8039818  37.1003366  79.1834593  83.6213970
  38.0075502  78.9417362  83.8078499  37.1672511  79.8759890  82.9640102
  15.6732345  64.5445299  87.0672607  15.1093793  64.4320631  87.8325367
  15.2290821  64.0626144  86.3696098 109.0708591  68.0811112  13.0275726
 109.2355443  68.0797379  12.0846462 108.1171729  68.1104176  13.1041050
  17.1192300  82.3939705  75.8736467  17.0512342  81.5568256  76.3327694
  17.2033274  83.0437183  76.5714884  68.7553908  30.3764908  23.8863754
  68.7434013  30.1907914  22.9474449  67.9309125  30.0157158  24.2124271
 111.5079571  43.4815877  36.6609097 111.7628504  43.3544915  35.7470608
 110.8722450  44.1967290  36.6349983  11.2355519  24.1484565  71.8363142
  11.5466429  23.2445735  71.8858290  10.4732109  24.1080874  71.2588739
  73.8262320   2.8464717  83.4178543  73.6429048   2.5787944  84.3183899
  73.3459211   3.6673183  83.3094788  24.5787120  78.4164143  86.2105846
  24.6298409  78.2808590  85.2644062  23.6527205  78.5920572  86.3776779
  76.2208208  46.0866540  12.3448658  76.6999756  45.6253617  11.6564941
  75.3912169  45.6146233  12.4167728  31.5737748  51.2759113  76.9870567
  30.8099890  51.8222189  76.8015623  31.2274051  50.3843164  77.0233154
  22.6418138  58.1217194  72.1911860  23.4852386  57.6875830  72.3192263
  22.6340961  58.8259840  72.8394032   3.7861443  56.4514923  39.7748423
   4.0825629  55.6328869  40.1726532   4.0755069  57.1318054  40.3828526
  56.8240000  23.5965842  52.7698517  56.4814497  24.1398353  52.0600891
  57.5457574  24.1078204  53.1358242  96.4457680  25.6209223   6.9062805
  95.9148075  26.0152953   7.5982189  95.8313109  25.0770896   6.4134026
 108.5508555  83.1778145  85.6719303 109.3676332  83.6532879  85.8237171
 108.8083288  82.2559261  85.6638145   1.8302344  63.4005833  55.4598331
   1.5331727  63.9816618  56.1600733   2.2675420  63.9806938  54.8365641
 107.8867647  78.5327864  90.7338047 107.7535796  77.5877953  90.8078957
 107.2841811  78.9105511  91.3744450  96.8988094  97.8467178  49.7508049
  96.2070152  98.4379387  50.0476313  96.5091583  96.9742870  49.8080111
   1.4400771  89.5991993  78.6692333   1.2310123  90.4859161  78.3755636
   0.7505615  89.0530491  78.2917070  87.1689095  47.9618256  12.3998737
  87.2732617  47.3847859  13.1564236  88.0407037  48.0011838  12.0066071
  70.7789922  98.6634658   9.1443348  70.8880616  97.8326915   8.6815739
  69.9656368  98.5577701   9.6378040   5.5177784  70.4262495  61.7139530
   6.1494154  71.1143017  61.9233513   6.0254717  69.7738314  61.2314224
  99.3659410  78.1092310  78.0042410 100.0541708  78.5878944  78.4662485
  99.5208952  78.3003283  77.0792007  30.2855849  80.0102329  75.9544373
  29.5560813  80.2129841  76.5400553  30.2360058  80.6776714  75.2701092
  39.4868612  77.1879053  81.2437153  38.9730525  77.5695133  80.5319500
  39.7899890  76.3487482  80.8970833  66.7579818   6.0850448  69.8574781
  66.2159801   6.3210696  69.1046476  66.2489820   6.3679523  70.6171608
  37.5734711  76.2057734  71.4846754  38.2959223  76.3772726  72.0887327
  36.8211389  76.0386276  72.0523834 102.3636982  80.4146957  86.3889885
 101.5772936  80.0640583  86.8071461 102.3144338  80.1018143  85.4857159
  23.2890058  66.4670324  51.4775324  23.5432220  65.6760073  51.9528055
  22.4610114  66.2373400  51.0557508  90.6695673  48.5431623  74.0251589
  90.9024188  47.8013420  74.5834732  90.9470770  49.3130207  74.5216799
 111.5335426  34.4592214  77.6312780 111.4934943  34.4104958  78.5863972
 110.8168054  33.8994598  77.3326349  17.2902036  87.2863960  71.7175961
  16.5571260  87.4176979  72.3189211  17.0484340  86.5111446  71.2108707
  67.9921646  20.0127022   5.4377747  67.2959138  19.4569724   5.0875854
  68.6212434  19.3985503   5.8163357  34.8616600  59.5888186  55.1474476
  34.5907474  58.8530159  54.5984173  34.6919298  59.2950392  56.0424948
  19.2775095  59.9127483  72.5043678  19.9077761  59.7689867  71.7984438
  18.4226322  59.7992754  72.0889854  21.5796161  87.9572964  79.9392653
  22.0377660  87.9533005  80.7796860  22.1416783  88.4746933  79.3625355
  17.2079396  58.7672615  82.2191811  16.8721116  57.9691696  81.8111324
  16.5433455  59.4300938  82.0315742  18.9998627  62.7885723  67.7730465
  18.7931895  63.5810041  67.2774982  19.1352892  62.1167183  67.1048355
   9.6211486   2.4693768  19.5378494  10.5210452   2.6158850  19.2463779
   9.2730813   3.3477442  19.6912861  81.5612099  52.4449539  43.7609100
  82.4156949  52.8626490  43.8687086  80.9697816  53.1636429  43.5374641
  30.1010013  69.9730968  88.6769772  30.7254863  70.2230358  87.9959583
  30.4806805  70.3139114  89.4868660   5.9495538  75.2011061  72.2773981
   5.9961295  74.4445229  72.8619003   6.4568436  75.8795929  72.7229834
  54.4674922   4.3599814  32.8662968  53.5302974   4.2294711  32.7218533
  54.8795832   4.0498561  32.0599270 100.8417091  72.1535683  60.1847887
 100.4676160  72.7022839  59.4954443 100.4054317  72.4443865  60.9856129
  13.4523082  53.7591505  68.4700632  13.8450813  53.3198166  69.2243481
  12.5115752  53.7420559  68.6460257   9.0363616  59.3362379  85.8215237
   9.3549198  58.4475279  85.9794903   8.6336082  59.2956638  84.9541283
  36.2232327  39.0963793  27.8152990  36.1187768  39.0483832  28.7655711
  35.9475350  38.2355833  27.5002599  15.0491977  62.3379230  68.2039118
  15.4142988  62.6235390  67.3664427  14.1142523  62.5316048  68.1361246
  29.5621777  53.0928469  54.2197609  28.6367941  53.1840754  54.4468641
  29.5817113  53.1551790  53.2647943 106.0362825  70.8086681  39.4790673
 106.4367422  71.2202835  38.7132740 105.6321952  70.0106907  39.1382217
  91.6173114  18.6458390  23.3542633  90.8320786  19.1897099  23.4162521
  91.6439487  18.1682532  24.1833782  98.7003375   5.4858226  64.2618656
  98.8926125   4.6460837  64.6791220  97.7870274   5.4121322  63.9849758
  29.8448801 100.3177929  69.0562773  30.6734228 100.7954121  69.0159273
  30.0825787  99.4096375  68.8692284  48.5260916   6.8354148  66.9380713
  49.2074955   6.3496036  66.4734125  47.9323793   6.1603087  67.2666550
  18.7894726  36.6311121  79.4675589  19.1216671  37.2014546  78.7743187
  18.2074332  36.0196781  79.0163279  28.4111333  82.1294689  66.5178967
  28.0890727  81.3621998  66.9909668  27.6692891  82.7343082  66.5092182
   6.6659360  34.6162217  11.9987202   5.8969216  34.1417687  11.6828918
   6.7040925  35.4012578  11.4523792  37.0711587   8.8641566  64.5884562
  36.8796822   9.6761149  65.0578117  36.3273838   8.2939261  64.7830391
 109.3196008  70.5219746  77.6708317 108.6971301  70.0162363  78.1933165
 110.1775280  70.1821423  77.9252100  79.8678191  68.4363167   9.2681599
  80.4115881  68.8386719   8.5909176  78.9713393  68.6651890   9.0228558
 103.3100697  90.8748341  58.5653639 102.4211308  91.2089062  58.6854315
 103.7423727  91.5340424  58.0224133  47.2787119   5.9071750  59.1600037
  47.1105868   5.7536048  58.2302809  47.2498537   5.0360602  59.5556927
   6.7710805  95.6921291  64.4721842   7.5826037  95.2542210  64.7288990
   6.2627959  95.7480717  65.2813482  68.4535814  19.7008533  43.2289314
  69.2849851  19.2266864  43.2160616  68.4643913  20.1808280  44.0570259
  13.3975434  79.0231180  87.0869160  13.9894021  79.2142296  86.3593102
  13.7720859  79.4951487  87.8306484  29.3719912  80.8897305  57.7082300
  30.0202298  81.3451672  58.2454443  29.5643783  79.9609137  57.8367472
  41.5791845  68.4965801  67.6961136  40.9972286  69.2524815  67.6175404
  41.1795521  67.8278065  67.1400023  42.2997356  -0.0698358  62.7360201
  42.5176341   0.8204097  62.4599218  43.1475855  -0.4968434  62.8586912
   8.2122415  89.1702366  53.9638186   8.8144112  88.6035252  54.4459534
   8.4285241  89.0214825  53.0433178   0.9843910 100.5568123  28.4394240
   0.5630406 101.3836479  28.6740589   1.6520384 100.8016014  27.7986741
  29.7223186  90.5700111  50.9530926  29.1360188  91.2444210  51.2961006
  30.2972627  91.0379028  50.3474951  29.0874934  95.2430725  63.6735201
  28.5829067  96.0518074  63.5864878  28.7550855  94.8384190  64.4747591
  31.4809961  12.2327346  72.3426723  32.4314878  12.3446673  72.3590851
  31.3214035  11.4601726  72.8848028  27.1288323  75.7886124  68.7833595
  27.7080655  76.4049911  69.2314672  27.6571655  74.9975634  68.6769009
  21.6366887  80.0227642  35.7881618  22.2493672  80.5950260  35.3262401
  21.1809349  80.6025982  36.3983345  32.3888397  91.5737343  73.7101126
  33.0654693  92.0460224  73.2249880  32.7095866  91.5549660  74.6117830
  28.6783767  16.4018077  73.1126356  29.4632751  15.9067744  73.3473969
  28.4905697  16.1397380  72.2113705  35.0382686  72.5089121  68.7879467
  34.9721241  71.8244886  69.4538450  34.1320634  72.6858902  68.5355473
  58.5821152   1.1706847  88.3217049  59.0814043   0.3747767  88.5046482
  57.9799033   0.9199447  87.6212120   3.8077372  51.1008692  77.1694899
   3.6819902  52.0493984  77.1427822   4.6082774  50.9511328  76.6665506
 103.7715009  74.7097111  76.2590027 104.0235129  75.4459238  76.8164158
 104.1012087  74.9425888  75.3910732  34.1932011  92.8765106  59.8256874
  34.1711569  91.9577503  60.0933266  33.9880872  93.3634663  60.6238270
  41.2811518  74.4806528  86.8491650  40.4078722  74.8054171  87.0685673
  41.8256617  75.2668047  86.8078327  21.2755704  61.0774279  78.0535126
  21.7520499  60.7008553  78.7933731  20.6189322  60.4175758  77.8306770
   1.5708622  73.5639477  45.3806925   2.2508284  74.1618633  45.0702477
   0.7535995  73.9404249  45.0542307  17.5113845  54.0679216  30.5442429
  17.3668683  53.1786728  30.2208495  17.1968961  54.6333790  29.8388433
  12.0727587  72.7085972  75.8120346  12.2642195  73.5228777  76.2773466
  12.7542984  72.1017265  76.1008978  12.5897467  86.7857933  62.1025229
  12.8623557  87.5380421  61.5771246  11.7302704  86.5490532  61.7539692
   7.5784117  67.0073414  80.0213623   7.7878159  67.9410172  79.9962568
   8.1094271  66.6239357  79.3233252  35.7502222  51.3692188  80.2339077
  36.2584019  50.7639647  79.6938610  36.3494730  51.6256952  80.9348679
  27.4810767  69.0618706  59.2819977  26.8657207  69.4879436  58.6853170
  27.6997733  68.2357597  58.8507843 106.9125843  52.8496695  81.0333538
 106.2931678  53.0122995  81.7447567 107.7719611  53.0128622  81.4220333
   7.9841809  50.2442830   5.2556038   7.9502158  49.7839730   6.0941696
   8.5417418  51.0043233   5.4220009  89.6805331  73.1347895  44.3369055
  90.5851361  73.0071783  44.6226311  89.1629264  73.0564642  45.1382637
  22.5109100  80.6631947  86.9335842  22.2705507  81.4200497  87.4680233
  21.6894317  80.3857136  86.5281105  14.5359826  78.1005430  64.1879034
  14.3533885  77.3826456  64.7941303  14.7364557  78.8464022  64.7533607
  96.6295482  35.9372609   1.0611820  97.4737169  36.0480111   0.6237507
  96.6590001  36.5487950   1.7969704  99.6032974  73.7975025  58.3346128
  99.4371268  74.7077990  58.0897188  98.7387249  73.3867359  58.3305597
  44.2815351  94.0345097  31.8987346  44.0218782  94.7917938  32.4234533
  45.1867437  94.2168522  31.6465902   2.5848275  87.6208591  59.6040297
   3.0758762  86.9905281  60.1310873   2.4092035  87.1612263  58.7829781
   5.0068122  56.2500715  66.7184353   4.8012871  56.0864830  65.7979822
   4.2901906  55.8377504  67.2007990 106.8139377  96.6250896  60.6176090
 106.9285193  96.0524178  59.8592186 107.5963995  97.1764183  60.6218052
  32.3766185   7.0429032   1.3418198  32.0071842   6.3664048   1.9093609
  32.8711797   7.6089327   1.9344807 104.9830315 101.0573196  47.1698999
 105.1334175 100.4694176  46.4296436 104.3881640 101.7250061  46.8284893
  89.6276201  85.5570309   1.7320538  90.1969911  85.6279461   0.9658813
  89.2973770  86.4451020   1.8680668  11.4738214 100.5632877  50.4162455
  11.7993855 101.3299084  50.8879852  10.7138300 100.8852768  49.9315023
  83.6322732  34.7784989   3.0601978  83.8288017  34.3512528   3.8939095
  84.0871616  34.2479699   2.4061012  42.6036263 102.4623203  83.8655663
  42.2104931 101.7003155  83.4401035  42.3511267 103.2019997  83.3129692
  40.1653603  34.6523494  46.0016870  39.2290450  34.7765178  45.8463573
  40.5672304  35.4703635  45.7091331   2.6168263  84.1367340  58.1216097
   3.1598955  84.2257404  58.9048004   1.7530069  83.8945675  58.4553862
 106.3154122  64.2117071  74.3087626 105.4794273  63.7680817  74.1653967
 106.6372666  63.8544989  75.1364374  13.5225491  32.9612725  10.7425594
  13.3534197  32.0254414  10.6336880  14.3257861  33.1188195  10.2463532
  47.3786926  80.4850292  52.3590708  47.9186201  81.1587620  52.7723408
  47.9688311  79.7395229  52.2486734  28.4245443  77.3065138  77.3535872
  29.1576123  77.4378490  76.7522621  28.7735391  77.5450230  78.2123947
  92.9148950  22.2304146   7.4606705  92.3430838  21.5747111   7.0615292
  92.4027969  22.5838702   8.1880379  53.0803300  10.2345199  81.9676399
  52.1393073  10.1426715  81.8184090  53.3646608   9.3641681  82.2466946
  28.2502675 102.0194149  88.5624313  28.5951018 102.6743603  89.1693687
  28.8961291 101.9831371  87.8568935  77.6696825  66.5145397  82.1951294
  77.8320646  66.7834234  81.2909317  77.4229574  67.3227692  82.6447105
  31.7939782 100.8661652  80.1624393  32.6641607 100.9260559  79.7681952
  31.3227463 101.6253376  79.8191738  26.5582371  43.8478804  74.0390062
  27.2036600  44.1713953  74.6674919  25.9040546  43.4009027  74.5761156
  31.5532279  66.3932657  61.3126516  31.1867714  67.2584152  61.4955711
  31.2450624  66.1841774  60.4308653  26.7552996  93.5536098  62.3823261
  26.1351943  93.1597233  62.9959679  27.4557543  93.8970375  62.9369926
  24.9845243  59.2640114  74.1230869  25.6123662  58.5603523  73.9590502
  25.3103185  59.6965027  74.9124193  66.5505983  72.9054062   2.3199368
  66.3765563  72.5234406   1.4596748  65.9830125  72.4185269   2.9174519
   6.9680387  72.2779608  49.4714642   7.7669114  72.6032448  49.0564680
   6.9974947  71.3305664  49.3380165 108.0355378  43.6689497  89.7408497
 108.6165925  43.0147196  89.3527982 107.4796339  43.9554716  89.0162048
  62.9247428  34.6992295   0.7945061  62.8868057  33.7603181   0.6121826
  63.8592090  34.9065583   0.7898426  46.4177848  20.9676761  68.5984516
  47.2421325  21.0984344  68.1298494  45.7459147  21.0119266  67.9181099
  34.9130917  63.6106348  77.5497580  35.8679771  63.5453510  77.5370169
  34.6098518  62.7113295  77.4251509  29.8260451   5.2943057  56.8808651
  29.1711891   4.9066466  56.3002491  30.0200362   6.1455935  56.4885569
  34.6825433  90.9506607  68.5655737  34.7979450  91.0101032  67.6172161
  35.5034399  90.5749130  68.8836575  99.9183823  61.7969220  10.6531143
 100.0745060  61.6168969   9.7260571  99.2767931  62.5072663  10.6544304
  15.2741325  99.5815945  66.1931992  15.0209033  98.7867260  65.7238531
  16.1943829  99.4441700  66.4178944  12.5918722 102.0455170  63.3176279
  13.2940018 102.1144009  63.9645433  11.7866349 102.0704651  63.8345432
   9.2936713  94.4864178  44.9005508  10.2428234  94.3626213  44.9045515
   9.0613484  94.5869541  45.8236694 110.3887308  69.7766924  75.0332260
 110.3505403  69.7400427  75.9889650 110.4100169  68.8598537  74.7590399
  19.6020484  54.4656658  62.3292780  19.7066176  54.1912651  63.2403231
  20.1870275  55.2176714  62.2369862  12.7370822  72.0656061  70.6594467
  12.6340091  71.2966728  71.2201214  11.8491495  72.2678137  70.3646278
   3.1902629 100.2386951  40.2059746   2.6283064 101.0017967  40.3405523
   3.5203677 100.3388214  39.3130922 104.1801335  31.0395234  20.2584648
 103.3188178  31.0576813  20.6756306 103.9921452  31.0562127  19.3200493
  66.7943908  25.3462905  41.4037752  66.7711926  24.9486751  42.2741795
  66.7777467  24.6032924  40.8005285   4.9629074 102.7070522  68.5618734
   4.7179455 103.6074924  68.7750149   5.4902220 102.4194717  69.3071747
  25.5480027  74.4810963  83.7752342  26.2579489  75.0318527  84.1051960
  24.9009204  74.4763756  84.4805717  43.7425852  83.9354706  54.4818115
  43.0867720  84.4127941  54.9900436  43.3977556  83.0445099  54.4225311
  92.8386964   1.5947430   1.1950493  93.5987581   1.0377972   1.0266781
  92.1371771   0.9821885   1.4161301  11.8280411  97.3385811  72.4947739
  12.5355005  96.8058300  72.1315861  11.9661629  98.2082176  72.1194220
  37.2764349  71.2282276  76.5330935  37.4372363  70.5895376  75.8385086
  37.2130251  70.7034016  77.3310709  31.6116285  75.4123354  58.5166931
  31.6419888  75.1916885  57.5857639  31.6609907  74.5678997  58.9647198
  18.6715961  84.5165157  61.7103767  18.6867559  85.4392242  61.4561987
  19.0988350  84.0611744  60.9848642  85.8704945  71.9823408  77.6755285
  85.8986089  71.1593056  78.1634378  85.6615540  72.6444101  78.3344984
   6.7694128  79.5570326  65.6110573   6.0787910  79.0710115  65.1604366
   7.3049539  78.8817120  66.0274315  15.4468143  91.7650223  10.2492738
  16.3080263  91.3832664  10.0795400  14.8361123  91.1963558   9.7803509
  88.6623408  48.0355923   8.1872463  89.3780996  47.5032895   7.8400135
  88.9117540  48.2096093   9.0948486  28.8280177  89.1262817  70.8296108
  29.4223714  89.7661114  71.2215137  27.9752445  89.5610237  70.8281374
 111.9717564  81.2034130  59.5257854 111.4973464  80.8610249  58.7682009
 111.7901559  82.1431923  59.5174026   2.8902823  79.9357176  79.5006847
   2.7236950  79.5412207  78.6446142   2.1632835  80.5449677  79.6292019
  89.2356862  52.5360005   0.3340721  89.3792762  53.3947651   0.7317543
  89.0078475  52.7283375  -0.5755043  44.0725994  78.6165380  63.1130886
  43.2194519  78.8712025  63.4645462  44.5227528  78.2056952  63.8511944
  20.7041788  57.8559399  78.0525351  21.3970900  58.2828426  77.5486898
  20.4218340  57.1262980  77.5010443  32.8818750  78.6704540  52.6180983
  32.9061985  77.8497219  52.1261215  33.4728098  78.5244799  53.3568287
   5.6357992  87.3713398  75.3446293   5.9866273  88.1015682  74.8348141
   5.1169229  87.7873135  76.0330772   9.0805775 104.9785137  68.7058544
   9.7688031 104.8711205  69.3623924   8.6950886 105.8327675  68.9004946
 104.0588304  41.0610796  84.9657232 103.1678434  40.7797839  84.7577560
 103.9641377  41.9732119  85.2400833  16.3725460  63.4811592  44.1325378
  16.9003773  62.6937437  44.2652321  16.4926684  63.6969948  43.2077551
   8.6164320  81.2053871  85.4839897   9.3342191  80.5893135  85.3374577
   8.4381598  81.5754509  84.6194077  23.8566947  85.3910923  56.7966747
  24.4519925  85.9718704  56.3228083  23.7169099  84.6542931  56.2018442
   2.3569262  53.2732534  73.8727522   2.0842865  52.5657511  73.2885075
   2.5256133  54.0135813  73.2899237  15.6980586  67.6077652  91.0416126
  15.9477639  67.2353029  90.1959419  16.1573970  67.0688725  91.6856861
  17.0947063  91.4305496  43.5123062  16.2602520  91.6297626  43.0877686
  16.8734813  91.3248825  44.4375753 107.9197848  87.9934978  72.2607136
 107.7810243  87.0539570  72.3800421 108.1107667  88.3209324  73.1396580
  13.8252008  97.4863720  45.8419275  12.8793836  97.6327229  45.8575344
  14.1286564  97.9633808  45.0695229 102.8456655  81.9779873  74.7154665
 102.1245709  81.7324543  74.1358376 103.6263421  81.6233635  74.2900038
 110.5369289  58.3022499  87.0878792 110.9556656  59.0610981  87.4941349
 111.2628490  57.7910948  86.7301178 106.7332484  23.0641215  15.6564713
 107.0333745  22.3144906  15.1424599 106.1122705  23.5141127  15.0836563
 105.9913060  66.6079998  72.8157282 105.6340864  67.2559643  73.4229946
 105.7833651  65.7639647  73.2164717  95.4070386  72.1007347  63.9995670
  95.5309448  71.8272495  63.0906725  96.1028776  71.6534901  64.4812393
  79.1875546  39.3669884  10.1276970  79.8874815  39.9561970  10.4090691
  79.3789433  39.1903870   9.2066097  41.6307620   0.2014464  65.4972363
  41.5129814   0.0103683  64.5667267  42.4717165  -0.1982289  65.7192421
   4.8702079  82.7219582  52.2578812   5.4173374  82.7451134  51.4728022
   4.5370236  83.6151505  52.3440504  61.8206109   8.4552376   7.1663952
  61.3389040   9.0116923   6.5543938  61.4261736   7.5891249   7.0639610
 111.3306666 101.3967609  70.9576559 111.3749011 100.4455280  70.8604813
 112.0603044 101.7253590  70.4324150  21.4767599  98.6270428  55.1085663
  21.4472151  97.8470612  55.6626320  20.8281422  98.4598160  54.4247818
  11.8461621  91.1654186  46.7749834  12.3608077  91.8489456  46.3458395
  11.0349655  91.6029739  47.0333195  32.3423219 101.8893147  46.6134882
  32.8607392 101.9359207  45.8101797  31.5360761 102.3616886  46.4059782
   7.4216968  98.6154938  47.9569817   7.2805965  98.1589317  47.1276045
   8.2859743  98.3236980  48.2470036 103.3162090  90.4280949  71.0784245
 103.6695996  91.3083458  71.2068844 102.4151614  90.4829216  71.3967609
  47.8792000  99.3721771  74.7522688  47.7667999  99.5735645  75.6812716
  48.7877178  99.0799141  74.6787691  81.1899802  45.9096766  57.8544092
  81.2849852  45.2472401  57.1700239  81.9408175  45.7678413  58.4309149
  15.1145422  49.2693996  51.7182112  15.5665147  48.4383678  51.5721369
  14.7699046  49.5090485  50.8579588  17.8039491  95.6807137  83.6518383
  17.9779756  94.7736931  83.9033699  16.8996692  95.8356667  83.9247894
  17.4121714  83.0956268  83.3710766  17.6161969  82.2728443  83.8156414
  16.6658556  83.4502792  83.8542557  16.8939424  83.9847851  63.6049557
  17.4848807  84.2282295  62.8923798  17.0999420  83.0673409  63.7840939
  29.0071845 101.7673206  73.8863230  28.6620116 101.2460518  73.1615019
  28.5226679 102.5915623  73.8405848  16.5230310  98.8873196  85.5410576
  17.4134970  98.6077309  85.7534981  15.9763181  98.4736538  86.2090492
  51.9968868  85.4672192   2.0040131  52.3262776  86.0392688   1.3108349
  52.5723851  85.6383942   2.7494907  43.0789518  85.1331234  49.3864250
  42.7225590  85.8471966  49.9149179  42.3877668  84.9346638  48.7546730
  19.4438434  99.6629238  53.0066013  19.6598411 100.5593300  52.7496481
  18.9955199  99.2966843  52.2442961  99.6321322   9.2256062   1.8115902
  99.1817857   9.1031258   0.9758759  99.5983697  10.1697056   1.9657421
  23.0288506  86.3041019  61.9294310  22.1746063  86.5114498  61.5506172
  23.0819535  86.8501663  62.7137899  15.0556314  87.4398422  73.2603073
  14.8077559  88.0937195  73.9139366  14.3204582  87.4230576  72.6475477
  30.1227117  11.4706344  67.8529263  30.0236065  11.8045825  68.7444973
  30.1944352  12.2555369  67.3097658  57.9791355  76.9450808  65.6872749
  58.7038612  77.2530985  65.1430941  58.3707523  76.8014526  66.5488100
  72.2034934  49.9915974  12.3197651  72.0466371  49.2291920  11.7626667
  71.3585199  50.4398816  12.3557091  42.3422289  99.1556263  62.6239920
  42.8356981  98.9593601  61.8276262  41.6199684  98.5274887  62.6191235
  10.9614182  79.5529556  85.4861832  11.8301630  79.7071123  85.8573341
  11.1310506  79.1048336  84.6575451  14.6894813  98.1593418  80.0754833
  14.0795326  97.5124550  79.7209024  15.1270413  97.7061462  80.7961655
 105.7242349  76.3018036  47.6475906 106.6237578  75.9749317  47.6632309
 105.7668290  77.1422243  48.1037855  23.7309909  84.5548153  71.9041014
  23.3707070  83.6715984  71.9838238  24.5049477  84.4487476  71.3509560
  77.4483614  15.0500529   1.8560505  77.7668993  14.4991915   2.5711060
  77.2901274  15.9021704   2.2623634  78.4569169   5.9347171  46.6203403
  78.5604525   6.7093104  47.1730804  77.5567294   5.6485385  46.7752314
  59.4753123  23.0526942  87.6882744  60.3101302  23.3801192  87.3534489
  59.3864251  23.4601707  88.5498333   4.2568463  71.7235374  72.0106649
   4.2601448  72.3481607  71.2853622   3.5258061  71.1364794  71.8178654
  92.3820771  44.1018288   6.1898136  92.9898347  44.8290436   6.3240528
  91.6995384  44.4615739   5.6232834 104.4448271  94.3448067  52.7858734
 104.4200841  95.3010750  52.7516890 105.3774139  94.1297913  52.8027487
  87.3387708  18.9165776  25.2608871  86.8260445  19.5666974  25.7411861
  88.1691278  18.8687937  25.7346535 110.6510779  75.0456644  81.4032835
 110.5840393  75.6309534  80.6488442 111.5348741  74.6824194  81.3468307
 106.8808845  90.1666355  66.1764050 106.9446352  89.7913647  67.0546627
 106.1682448  90.8026218  66.2388515  59.7784354  13.2427924   1.8487549
  59.0330578  13.1767266   2.4456501  60.1569821  14.1025345   2.0325470
   3.0200750  86.1827374  71.7661715   3.0423838  86.4555264  72.6834059
   3.8793960  86.4272118  71.4226151  53.7455333   7.4366874  41.5571928
  53.1143428   8.0348605  41.9572067  53.2123698   6.8483562  41.0225582
  31.5434079  60.2651017  15.4659557  30.6434540  60.3465836  15.1502323
  31.4537911  60.0946801  16.4035892  36.4060545 102.7118683  37.5338888
  36.7824769 103.4577465  38.0010056  36.9674540 102.6017857  36.7664623
  98.8755561  38.8360684   8.2924652  99.0058209  37.8977864   8.1550121
  99.3739487  39.0334313   9.0854836  32.8864717 103.2498074  88.4588814
  32.9826188 103.4033394  87.5189781  33.7844539 103.2029629  88.7870121
  -0.0754567  60.6214135   5.6896019  -0.6482215  61.1461442   6.2489128
   0.7772855  60.6530755   6.1232567  86.1877681  72.1922104  20.0092316
  86.8295647  72.0205395  20.6983376  86.2466051  71.4308636  19.4320679
   4.0457833  36.2280965  59.6222162   4.0217647  35.9910345  58.6951494
   4.1620934  35.3952551  60.0794697  91.1382914  15.5044574  52.1854067
  91.7116404  14.7379893  52.1908045  90.6571341  15.4494590  53.0110550
  48.7748718  99.3630791  51.0849619  49.4181442  99.9704456  51.4504004
  48.1807709  99.9185181  50.5802250  50.5144513   7.9395408  52.6919937
  49.6843577   7.4722308  52.5982094  50.7507444   7.8256530  53.6125517
  25.3971744  91.2562370  76.2185526  25.8282590  91.9232845  75.6842852
  25.3741026  91.6322422  77.0985031  15.5818748  94.9769402  41.4163446
  14.9154162  95.4196453  40.8909130  16.0598063  95.6870461  41.8447733
  87.5132050   0.5868046  11.5275955  86.8087448   0.0479214  11.8875694
  87.5717045   0.3224747  10.6094837  57.7609409  40.9987729  27.5115299
  57.1186162  41.2714856  26.8563366  57.8416862  40.0529378  27.3886013
  83.7407203  29.0215294   2.3777485  83.7788327  28.5925477   1.5229130
  83.9441819  29.9387734   2.1947193  23.1918931  94.4856548  77.6564503
  22.5077581  94.8625088  77.1031237  23.4515238  93.6834240  77.2033978
  62.1497059  86.1959553  71.5725851  62.6029444  86.3979340  70.7540417
  62.8111982  86.3284492  72.2516394  90.5451939  82.7665806  66.3659048
  91.4883229  82.9088497  66.4465237  90.2201268  82.8002453  67.2655869
  49.9181331  11.0866660  43.4190798  50.3098131  11.7158145  44.0248775
  49.0881992  11.4876002  43.1608391  54.1843297  22.4708312   4.6344566
  53.6246373  22.6093476   3.8703918  53.6028244  22.0872967   5.2909470
 107.7704638  88.7421131  85.3532887 108.7224749  88.6685085  85.2862835
 107.5183871  89.2798710  84.6026230  13.5281396  68.3129787  50.2798367
  13.6970448  67.3987246  50.5075312  13.9760530  68.4381294  49.4432116
  42.1858168  65.4554653  67.3408651  41.4829588  65.8294201  66.8094730
  42.1347332  64.5137548  67.1771622  11.0782540  72.1435738  84.0459442
  11.4833760  71.2850332  83.9233971  11.4008057  72.6674795  83.3126450
  43.3370638  84.7720528  43.8948679  42.6633406  84.0949154  43.8331127
  43.9285278  84.4597054  44.5795870  69.3428612  22.5707072  64.0190887
  70.1504589  23.0481833  63.8292742  69.1823912  22.7316112  64.9489212
   6.0415298  90.3769112  71.0838652   6.6983688  91.0410690  71.2928963
   6.0371745  89.7964764  71.8449879  37.2026849  76.0534143  76.2803650
  36.7588973  75.2381945  76.5142488  36.5100598  76.7140484  76.2885904
  55.4158462   4.9053496  63.2536268  54.7300578   5.5193633  63.5161209
  55.6827904   5.2020473  62.3836040  23.9609313 102.3385334  56.0434294
  23.3440566 102.1725941  56.7562866  24.2371631 101.4676094  55.7581139
  92.5988258  29.5207112   3.7974739  93.3014978  30.0919812   3.4874249
  93.0063011  28.9894765   4.4815636  30.8612609  98.9017773  84.6756840
  30.8335352  98.8727760  83.7193298  31.7838097  99.0489388  84.8842049
  92.6412341 100.4290009  66.3714123  92.2281680 100.2742100  67.2209120
  91.9554362 100.2344418  65.7326174  75.4585168  31.8069832   5.6928730
  75.5168069  32.4671929   5.0022602  75.9047791  32.2031968   6.4412785
 109.4506690  80.1021957  83.4072590 109.8630407  79.6064806  84.1146851
 108.5111547  80.0005627  83.5596275  50.5837965  98.2326889  72.1207237
  49.7433329  97.7925014  72.2475624  51.1235857  97.5901794  71.6602278
  51.2457037  90.9357071  55.8841896  51.2212229  90.0053787  56.1080313
  52.1743584  91.1654758  55.9164906   4.0329222  40.2753251   2.2340965
   4.9260096  39.9315064   2.2543430   3.9049678  40.5564206   1.3280964
  89.3020989  82.4840920   4.5994854  89.8014571  83.1872170   5.0147915
  89.9218489  81.7577355   4.5320225  19.5985603  91.8241882  90.6458473
  19.5719695  92.1018791  91.5614891  19.9872601  90.9498501  90.6719208
  63.9006996  78.0472755  65.2946949  63.3322859  78.0951929  66.0633564
  63.8931227  77.1223068  65.0484991  54.1230583  74.9454212  70.4082394
  53.8925648  74.1786194  70.9327555  53.9108276  75.6916761  70.9688520
 111.5403486  86.8933964  90.1331806 111.5477226  86.6067505  91.0464191
 112.2978329  87.4737549  90.0581837  51.9214296  85.9101105  78.4181786
  51.3607216  86.2481880  79.1164207  51.3838625  85.9712601  77.6285458
  29.0006471  98.3946705  76.4291430  29.0004516  97.7294540  77.1174145
  28.6478186  99.1773510  76.8524075  67.7197505  32.1410674  80.5395317
  67.2590066  31.3283080  80.7477760  68.5992361  31.8599147  80.2871609
  58.8627148  97.6937485  60.2423334  59.0303326  96.9203281  60.7808113
  58.7456465  98.4040356  60.8732128  23.5460949  93.5577488  56.5371752
  23.5848117  94.5061016  56.6610765  23.6354208  93.1970978  57.4193239
  38.2292533  71.7191315  84.2286396  37.7063084  70.9778500  84.5340347
  39.1160607  71.5288353  84.5345688 103.4370162  75.3757470  21.8885040
 103.1103255  74.8681634  22.6313782 103.5359718  76.2642758  22.2305107
  37.7781606  99.6542835  64.1710520  37.7685308  99.9912453  63.2751751
  38.6861205  99.3888950  64.3173790  11.5174150  95.2142620  82.1673870
  11.1953020  94.3633461  81.8700218  10.7596874  95.7949448  82.0975018
  28.0550004   4.2230624  55.0156164  27.7988256   3.3137340  54.8615742
  28.0407865   4.6262378  54.1475821  16.8995214 100.9788990  45.3758955
  16.1426449 101.3554001  45.8249092  16.8088257 100.0346756  45.5041790
  83.7637950  22.8081244  83.4681129  83.6065198  23.0468291  84.3816280
  82.8922416  22.6345080  83.1124687  93.8460589  13.3898086  74.7403574
  94.7724295  13.1536788  74.6921825  93.4164525  12.8021163  74.1188383
  49.6265472  17.5623244  90.2357197  50.0988377  16.7332763  90.1591969
  50.0798906  18.1526679  89.6338940  49.0066671  95.3063202  73.4048414
  48.0560541  95.3950882  73.4733343  49.2855740  95.0354958  74.2795372
  18.4269718   1.7769641  53.4244204  18.0184845   0.9594459  53.7091112
  18.8086990   2.1442908  54.2216587  66.5727735   6.8300933  37.6512456
  66.3550568   7.7302760  37.4093413  67.5180293   6.7672175  37.5142360
  76.6358138   4.0296763  25.9493232  76.8354750   4.1574496  26.8767095
  76.2674380   4.8665256  25.6661201  92.8345538  35.5981177  65.6079817
  92.6339341  35.9725780  66.4657450  93.6510134  36.0235137  65.3459501
  56.6768169 100.5799675  87.8399181  57.0621681 101.2575054  88.3955193
  57.3984718  99.9766827  87.6624393 106.3900295  89.1957569  68.5132265
 105.5495307  88.9706230  68.9121151 107.0221898  89.1204929  69.2280245
   4.2846541  24.0712350   2.6816654   5.2389388  24.1237633   2.6286221
   4.0749316  23.1937783   2.3617840 109.3345453  62.9625504  23.5286522
 108.5339858  63.0252736  24.0496159 109.3968393  62.0361798  23.2958508
   1.3762812  43.2646458  20.0620556   2.0187335  42.9995530  20.7202435
   1.1093478  42.4457448  19.6444702  15.7561338 101.9156647  71.9208336
  14.9973917 102.1807384  72.4407196  16.4556313 102.5067329  72.1993589
  42.1590471  80.2390957  76.4086246  41.5109873  80.9172726  76.5992355
  42.9032421  80.7155991  76.0407209  79.3526645  52.7038663  28.1753826
  79.4540305  52.4771111  29.0997982  79.1554438  53.6405175  28.1787682
  35.6718612  84.9912071  48.7722063  36.0800481  84.9086475  49.6340609
  35.3705192  85.8990097  48.7358809  58.7142993  17.5161571  52.8326941
  57.8015996  17.6189059  53.1022358  59.2097235  17.5378818  53.6514235
 111.0392763  31.8326752  20.0933075 111.4073254  32.7130311  20.1690769
 111.7981817  31.2673752  19.9493313  46.4517975  91.1335945  54.6084309
  47.2860432  91.4410210  54.2538261  45.8330822  91.2320805  53.8847446
 111.1934470  94.4492912  86.7602348 111.8340372  95.1289272  86.9699287
 110.4885077  94.5807743  87.3942661  77.3868800  16.1334914  48.0174255
  77.2191621  16.1588496  48.9594746  78.2463361  16.5425033  47.9160643
  84.8839284   5.7617110  84.6616936  84.4653655   5.3936786  83.8834953
  85.0752116   6.6690558  84.4243050 105.3638865  34.6231930   7.5466442
 104.7315194  35.3285687   7.6837158 104.8327877  33.8273041   7.5196075
  35.0648952  95.5374527  71.1173391  34.6466494  95.4709148  71.9757509
  34.6644664  94.8380089  70.6009436  54.7555256  71.9304085  69.2532539
  54.9951172  72.2738075  68.3924961  53.8264322  72.1415138  69.3452120
  54.2888117  82.6699066  57.0931816  54.1851473  82.9019260  56.1703300
  53.6115599  83.1738567  57.5443888  98.0950785  14.1221351  71.9934750
  98.7189008  14.0909213  71.2681437  97.8744078  15.0495357  72.0798588
   4.0219072   7.5111026  88.3956432   3.8788465   6.5652484  88.3622360
   3.1418327   7.8871840  88.3791351  35.4029942 102.2632217  57.4820948
  36.1760354 101.7037678  57.4069452  35.5668545 102.7947998  58.2610798
  87.1354736  45.7402508   4.8528957  87.5573064  44.8824971   4.9032974
  86.7673577  45.7746213   3.9699841  70.3441191  87.3420525  56.7921305
  70.4613209  86.4398098  56.4947176  70.4428434  87.2955036  57.7430868
  50.4991306   5.4317397  34.4259357  49.9819744   6.1923427  34.1608620
  51.2480868   5.8022708  34.8928404  83.9882851  14.6467990  70.6053686
  83.9310790  14.0843886  71.3778019  84.9170161  14.8687858  70.5389786
  27.7695704  97.8345108  87.3077297  26.8750191  98.1285858  87.4795723
  27.8054070  97.7187538  86.3582325  37.5033736  79.4762039  68.4387684
  37.5061369  80.3513336  68.0509949  38.3186173  79.0770483  68.1349850
  20.2272610  53.2743065  24.6892357  19.7252135  54.0773671  24.8280525
  19.5638423  52.5940697  24.5735836  41.0648394  98.8311672  72.0187616
  41.9867325  98.9576626  72.2431231  40.6952143  98.3734131  72.7737904
  26.4319849  54.4329977  52.5747728  26.0296988  53.6992121  53.0394840
  25.7889485  54.6761656  51.9087315  74.9056816  97.8464794  61.8729639
  75.2670193  98.5525799  62.4087715  75.6684399  97.4531555  61.4490175
  28.3293486  90.9930038  75.0256109  27.7223992  90.5983829  75.6518030
  28.2109714  90.4837418  74.2238188  19.3702269  69.4690180  61.0473061
  19.9017727  69.2204046  60.2910757  20.0015116  69.5770836  61.7586613
  23.0680561 100.4090023  60.9736109  22.4015021 100.8897018  61.4643955
  23.1178117  99.5575142  61.4080381  77.1746541  24.5177573  84.9672604
  76.6027499  24.6900386  84.2192745  77.7072716  25.3089065  85.0487423
  82.7899933  68.7826920  63.0220509  83.1283855  67.9343796  62.7355337
  82.5615120  69.2359066  62.2104979  30.4757190 100.5400658  62.9676771
  30.3467703 101.2044048  63.6446285  31.2129474 100.0170898  63.2826757
  68.8525797   0.3054637  54.0518999  68.2464123   0.9952659  53.7817669
  68.3397842  -0.5006295  53.9928913  37.0243096  92.2385693  32.6388478
  36.7771697  91.5136909  33.2130408  37.4628854  92.8630447  33.2167029
  91.5956975   4.5570487  86.3009548  91.4620639   5.1451892  87.0442295
  91.8631602   5.1330680  85.5847931 105.4955575  52.3568392  73.0254650
 106.0158250  53.0095673  73.4939718 106.1246452  51.6765261  72.7853537
  15.2861595  30.1406193  45.4794741  14.4017029  30.4140949  45.2362013
  15.1565146  29.5239162  46.1999607   8.5956270  17.8922427  52.8799963
   7.6961988  18.1891763  53.0181646   8.6748570  17.1076679  53.4225845
   7.0811945  33.7555766  70.7257605   7.8902721  33.8206077  71.2331057
   6.4043784  34.0986514  71.3092422   8.1910074  43.8317299  59.7718668
   8.3342129  43.1627226  60.4413128   8.8330871  43.6305952  59.0910482
 108.9675099  36.3329101  23.4950209 108.4945816  35.6970906  22.9580808
 109.0004012  35.9345365  24.3647623  96.7161879  28.1748247  63.6321449
  96.4120004  29.0239906  63.3118057  97.6708910  28.2324433  63.5940027
  14.4238436   1.9020250  55.4834270  13.6725283   2.3116504  55.0545168
  14.4325304   1.0059559  55.1469517 103.4592649  94.7876161  55.3442240
 103.6777826  95.7194060  55.3599644 103.8237926  94.4700426  54.5180893
  99.1053137  46.2726212  25.6810474  98.2892248  46.3844204  26.1686254
  98.8300833  46.1978006  24.7673297  98.3204612  57.0911026  28.0037165
  99.2508695  56.8771219  28.0728865  98.0499515  57.2769690  28.9028883
  64.1482147  19.2533184  76.9267046  63.6520346  19.4871022  77.7111673
  63.4815916  19.1167237  76.2535131  12.3808694  37.1297097  45.9740448
  11.7601478  36.4341998  45.7567835  12.2247410  37.3090434  46.9012403
  90.5593464  33.7236309  61.9759321  91.4382407  34.0163422  61.7349052
  90.3065988  34.2958665  62.7004290  24.9596357  52.8850269  29.0696311
  25.3579664  53.6483860  29.4877815  24.2227411  53.2411337  28.5732365
  10.1884770  34.9882340  58.4328222  10.5225909  34.7498941  57.5680733
  10.3002763  35.9377384  58.4794378  18.9438415  11.6239011  36.9244957
  18.9374757  12.0760882  37.7681279  19.0302455  10.6976342  37.1498728
 103.2898560  52.0609856  71.2972116 103.4767112  51.1277628  71.1951542
 104.0054777  52.3904848  71.8408537  89.4479486  52.1302032  44.0153265
  89.4114348  52.4391508  43.1100941  89.8721358  51.2739611  43.9592505
 105.1760903  81.8953896  56.6898394 105.5831429  82.7344131  56.4740038
 104.9946216  81.9515228  57.6280022   7.3344803  31.5869093  46.1767578
   8.2158840  31.2452960  46.0262251   6.9626176  31.6848254  45.3001928
  18.5431957  43.8974380  62.9109001  17.6972985  43.5323811  62.6512432
  18.6077511  44.7204542  62.4264336   5.6161642  63.5055876  55.5318356
   5.8233154  64.4213963  55.3457832   5.1856822  63.1911135  54.7368383
  13.7432218  48.7299585  54.3624306  12.9550922  49.0983343  53.9632034
  14.4619334  49.0626478  53.8248396   0.6575979  61.9425821  77.1271324
   1.2246771  62.2150373  77.8485394   0.3171129  61.0902596  77.3988819
 109.9235733  24.2632389  38.3658957 110.0172022  23.3405542  38.1290102
 109.0172717  24.3434000  38.6632562  92.9875359  44.7943306  55.1889229
  92.1206591  44.4437838  54.9842834  93.5364267  44.0196991  55.3109932
  13.5166585  17.2188818  47.7829504  12.6370454  17.1702051  47.4085903
  14.0499508  16.6632187  47.2145557  33.5126781  33.5735607  44.3880844
  33.3425069  33.1887555  43.5283184  34.2621303  34.1521597  44.2474413
  99.7702548  39.7851205  53.0734873  99.2102846  39.0187740  52.9494667
  99.4277379  40.2070379  53.8614607 106.9178781   0.4329718  79.9985456
 106.1824587   0.8559761  79.5553112 107.6829666   0.9435436  79.7336149
   7.2665244  18.2771099  70.8517885   7.8380978  17.9928327  71.5650368
   7.5853670  17.8009665  70.0850677   8.0792069  27.3203921  22.1687889
   7.9099262  28.2607865  22.2256660   7.5516266  26.9391823  22.8706217
  99.5979342  79.9284935  80.5535984  99.5803425  80.1784897  81.4774036
  99.6677384  78.9739132  80.5650806   3.4528056  65.1834249  53.6458969
   3.8740271  65.7830477  54.2617369   3.8192287  65.4190493  52.7935791
  30.2544999  71.0019016  75.4666519  30.2541256  70.5515623  76.3112974
  29.5744061  70.5592775  74.9589252  30.9256744  58.7036610  69.8476505
  31.8495297  58.9320374  69.9504614  30.4596639  59.3416929  70.3880072
   8.8842690  17.7277911  33.7589025   8.4829223  16.9969213  33.2888150
   8.7873542  18.4746706  33.1681323  44.6583176 104.7381973  40.2411747
  45.0167751 105.2096558  40.9931517  44.9485588 103.8344479  40.3645563
   9.5079613  19.5695829  48.2669115  10.1366329  20.1496148  47.8373003
   9.2441273  20.0441527  49.0552044   3.0725938  60.6304312  35.3843212
   3.4145644  61.3476849  35.9180236   2.3911986  61.0351086  34.8475075
  22.4000324 103.0425094   9.8972893  21.5937234 102.8814100   9.4072437
  22.3704565 102.4154781  10.6199169  87.6302311  45.6958294  51.0171318
  87.0322606  46.1318827  50.4100704  88.3527181  45.3941822  50.4664469
  18.8366830  56.2669897   6.3207972  18.6129558  55.9304428   7.1885037
  18.4363711  55.6457996   5.7124341  94.1037914  39.8625755  25.3006840
  93.9550897  39.0706277  25.8173466  94.1972384  39.5479131  24.4015241
 108.8421562  52.3051453  86.1339951 109.2977861  51.8107033  86.8152905
 107.9132390  52.1824503  86.3296700   4.7673449  43.9836359  75.9051609
   5.0432873  44.8997831  75.9326792   4.1530633  43.9404249  75.1723433
 101.3186583  13.5263324  68.7965107 100.3966340  13.7129211  68.9733934
 101.7586431  14.3695438  68.9043951   6.8639755  54.1251135  16.5279925
   6.0346085  54.4006252  16.9184732   7.1496105  53.3879566  17.0676625
   6.5435928  21.7093921  39.2945385   6.9007570  20.9455252  39.7475004
   6.6522145  22.4290061  39.9163008   6.2822914  41.2026167  66.6438484
   5.4714787  40.9852743  66.1838722   5.9926283  41.5971756  67.4664354
  97.5733802  13.3384478  65.5522251  97.6855049  12.3878455  65.5561352
  96.6364357  13.4685051  65.4057550  83.9196631  97.8769779  26.3108754
  83.8846871  98.8276482  26.4168644  84.8545381  97.6732159  26.2840056
  26.3601017  19.0624142  51.6770697  26.9719267  18.3856201  51.9666433
  25.6301355  18.5768723  51.2928438  45.4589326 103.4653972  13.7234402
  46.1755801 103.2402586  14.3167019  44.7773129 103.8193534  14.2947006
  83.2325456  16.9437242  58.4319019  83.6885354  16.4130449  59.0851116
  83.0421063  17.7665591  58.8823557  86.7964074  38.0183840  23.4542036
  86.2520239  37.9295158  22.6719117  86.1722872  38.1656528  24.1648507
 103.7839660   3.1490716  64.0482140 103.7601826   3.9567530  63.5350704
 103.3617756   2.4972668  63.4886265 106.6325453  52.4766445  32.3401523
 106.1682144  53.2785606  32.1002412 106.8853238  52.0867538  31.5033007
  19.3689764  44.3025208  38.7921762  19.3219590  44.6031141  39.6997356
  20.3063035  44.2524338  38.6047101 103.1241164  68.1767893  67.5319815
 103.6165014  68.8990402  67.9220390 102.8144851  67.6663685  68.2802010
  14.9839234  60.1256084  23.1977081  14.1727829  59.6747637  22.9631448
  14.6955550  60.9571648  23.5739946  24.7677994  44.6648836  63.7639332
  24.3326545  44.1862106  63.0584192  25.3508115  45.2765608  63.3142948
  38.0966735  32.1628642  51.9327164  37.8192735  32.9549003  52.3931026
  38.0679250  31.4761138  52.5988865  15.3289986  53.9700174  82.2706127
  15.7462096  54.3553257  83.0411339  14.5831132  53.4827805  82.6205921
  97.4364933  52.8358364  44.0923834  97.1026549  53.3072042  44.8556614
  97.8082761  52.0304346  44.4520092  27.7221513  85.6061840  55.7209063
  27.4827385  84.7657013  56.1114168  28.6537981  85.5197334  55.5189323
   3.8498917  52.0393991  83.8385868   3.3416066  52.7349997  83.4214306
   3.2331547  51.3128710  83.9281559  89.0323684  56.2729883  68.2943821
  89.6045014  55.5058765  68.2735205  89.6114466  57.0091152  68.0968428
  17.6484871  74.8423958  57.6618671  16.7840767  74.4342756  57.6122284
  17.9756975  74.8204756  56.7625952  41.4756393  72.2081280  46.5266371
  41.6982031  71.4983177  47.1290207  42.0940018  72.1104908  45.8025360
  35.0867724  93.0065346  18.9302564  34.1379166  93.0804920  19.0324128
  35.2399397  92.0729828  18.7844849  88.5382435  69.7055197  34.3169785
  88.1854317  68.8346148  34.1345477  88.6407468  69.7279358  35.2684116
 105.0824156  58.8132715  87.7192879 104.7553352  58.3137703  88.4674549
 105.9821329  59.0381241  87.9563141  79.4094257   2.5506775   1.9172192
  79.2138202   3.4838431   1.8325329  78.9375447   2.2774832   2.7039433
 107.7835375  40.1839447  48.7398434 107.6213798  40.3773975  49.6631622
 107.3451170  40.8909655  48.2664108  36.3444901  36.8259811  73.9781475
  35.9242654  37.6821184  74.0598392  37.2107553  36.9462705  74.3671846
  97.2703418  84.7338486  56.4514589  96.5443322  85.3499031  56.3533735
  97.0479950  84.2236710  57.2302437  66.9317079  66.8224035   2.9038048
  67.2600747  66.2525056   3.5992336  67.6955081  67.3298632   2.6293468
  18.7894559  89.6503544  40.4674864  18.0808830  89.0175438  40.3504467
  18.8610697  89.7570229  41.4160252  14.0894914  70.9157419  51.2977314
  15.0383103  70.9894705  51.1950684  13.8811481  70.0387955  50.9755707
  15.2210677  56.9093037  45.8477879  14.8757243  57.4720573  46.5408134
  15.8199167  56.3140965  46.2987185 110.3909868  42.7297401  27.8910685
 109.6345502  42.3494291  28.3376122 110.2737714  42.4872255  26.9725490
  37.6472739   2.6037807  60.8501720  38.1074604   2.7026099  60.0166845
  37.2896311   1.7163390  60.8225489   4.5623073  49.4555759  65.6266785
   5.1374966  49.3952084  64.8639536   4.1113746  48.6116886  65.6539869
  44.2863846  25.9800506  42.6851177  43.9449501  25.8744764  43.5730982
  44.4034815  25.0853896  42.3655939   9.0600955  53.7328720  45.8573294
   9.4659835  53.8922834  45.0052309   9.1946679  54.5468044  46.3427544
  24.7302675  96.7618942  47.2459698  25.2709985  96.9265079  46.4734745
  24.1349626  97.5104141  47.2855473  18.0640984   7.8704846  64.5226955
  18.9802694   7.9841405  64.2698240  17.8298461   8.6939752  64.9507380
   9.8775947  75.5829716  89.6551132   9.3975472  75.5486774  90.4825306
   9.2582077  75.2515173  89.0049362  30.0474119  45.9935093  44.6134520
  29.8263192  46.9235849  44.5654583  30.6466317  45.8516407  43.8806200
  29.4889808  89.5555210  45.5276966  30.4348135  89.4085789  45.5340290
  29.1109419  88.6888123  45.6764746  53.2955850   0.1942271  52.2884512
  52.7398647   0.0291175  53.0501270  52.7219499   0.0456351  51.5367222
  90.3901698  13.5052531  18.7525082  90.9056450  12.7000229  18.7985420
  91.0026361  14.1632407  18.4236050  26.4751005  74.1270256  26.7382860
  25.7647061  73.5721636  26.4162612  26.6566968  73.7970066  27.6182532
  28.3699226  65.2856350  75.4572535  29.0964913  65.7969093  75.1009846
  27.6994443  65.3144264  74.7747135  23.9384580  68.3877563  61.2082720
  24.7609591  68.5554171  61.6682863  23.9674234  67.4543190  60.9983063
  23.3078837  43.4712267  38.3828497  22.5847864  42.9907703  38.7859893
  22.8816223  44.1210747  37.8240728  10.2062988  72.2276449  59.2337370
   9.6782386  71.8578148  59.9412775   9.6449125  72.1699858  58.4605932
  70.4296832  10.6107800   3.1688595  70.6379355  11.0448306   3.9961815
  69.9950857   9.7980969   3.4275150  91.7519928   9.5780985   3.6684132
  90.8279242   9.8057454   3.5659122  92.2218050  10.2653973   3.1960487
 106.3302913  70.5673027  50.1989698 105.5155608  70.4060173  50.6748199
 106.3967964  71.5211439  50.1543427  13.2126284  67.0021296  35.3697252
  13.5207880  66.3743258  36.0232782  12.7788126  67.6858091  35.8802295
  36.3858008  42.1777630  86.0655594  37.0492911  41.5509272  85.7773113
  36.8054199  42.6600552  86.7779827   5.2151060  95.1314068  42.9003382
   5.4872125  94.5811462  43.6347818   4.2848796  94.9364471  42.7867556
   6.3874233  17.5006878  22.2855234   6.5037948  17.9924870  21.4726138
   6.0136467  16.6643095  22.0080447  12.5880492  74.7513247  61.1800528
  12.7963412  74.9278784  62.0974827  12.8560436  75.5448198  60.7166147
   7.3013216  69.3554878  59.7038460   8.1331336  69.3997908  60.1753950
   7.4022406  68.6119890  59.1094923 109.0937284  88.5999298  47.5941133
 109.0495053  89.4197941  48.0861425 108.8527870  87.9259109  48.2296228
  96.1688754  26.5354729  18.6046374  96.2494168  26.6794133  19.5475197
  96.7990419  25.8407259  18.4137201  61.5379191   1.9739265  21.3230610
  60.5858446   2.0599193  21.3719511  61.8709136   2.8116530  21.6448617
  77.0853612  54.3139935  47.3023224  76.7378542  53.5178137  46.9003677
  78.0202433  54.2972946  47.0975113   1.2627122  82.2999668  73.7490416
   0.5745844  82.4938869  73.1125641   1.0466480  81.4269924  74.0768671
  18.2851362  72.8515816  72.3819208  17.6907885  72.3021507  71.8709373
  19.1494656  72.6826096  72.0069313  33.6767650  97.0361519  45.7153749
  33.0188441  97.7027988  45.9127378  33.4816217  96.3205338  46.3203955
   3.5895029  85.1288414  53.3279181   4.1018844  84.6059895  53.9446211
   2.7071398  85.1400661  53.6987829   6.8984848  24.8380065  59.0729570
   6.8452841  24.5468616  59.9832535   6.6221678  25.7541156  59.0979624
  21.1729217  59.1023350  56.3354492  21.9691563  59.5259523  56.6560602
  21.2840796  58.1794262  56.5637445 103.9627549  53.2822561  47.6262426
 104.6869203  53.5914660  47.0819950 103.9329734  52.3381233  47.4714613
  31.0721898  68.7440205  56.3902569  30.1380157  68.8387728  56.2043142
  31.2077260  67.7990961  56.4607716 105.8955970  77.8932476  56.5795898
 106.7302188  77.4301529  56.6515923 105.2715757  77.2210646  56.3057232
  13.3188081  42.5326347  54.6635151  13.4793544  43.3515978  55.1323032
  13.3883750  41.8544483  55.3354216  18.8920844  26.8375492  49.0688562
  19.8165774  27.0521045  48.9443159  18.4654260  27.6841474  49.2010260
  33.3874989  56.6337729  42.7445555  33.4724307  55.9473181  42.0828915
  32.9718542  56.1987495  43.4890175  11.2602913  60.4938364  37.5987291
  11.8849599  59.8661518  37.2353601  11.7717099  61.0049057  38.2260180
  80.4701281  17.9850883   9.0346402  80.4580069  18.9421863   9.0272957
  80.5450822  17.7394218   8.1125438  22.1816802  34.8161101  42.0792055
  22.3714328  35.3024769  42.8814983  22.6147008  35.3165722  41.3876390
  -0.1344932  91.0086250  15.2913797   0.1262695  90.0887489  15.3367674
   0.4702952  91.4584064  15.8814275  29.9290919  20.3646111  39.8907971
  29.1277337  20.8873296  39.9195075  29.7978759  19.7652102  39.1561317
  85.2608225  17.9557943  41.0165167  84.5943925  17.4475205  40.5541754
  85.7726094  17.3022485  41.4931583 102.1165147  50.3000784  56.8365383
 102.9200360  50.0672007  56.3714027 102.3421630  50.2132607  57.7627039
  18.5627115  32.2232771  20.0613308  17.9130137  31.7984414  19.5012963
  18.1431925  33.0373144  20.3398633  34.5289731  81.7732239  63.5051823
  33.7316227  81.9163799  62.9953051  35.1209354  81.3228989  62.9026747
   5.5482566  35.0056601  72.6677561   6.4239901  35.3097105  72.9062462
   5.2106792  34.5982623  73.4654427 104.2292789  79.2051029  81.7858219
 104.1563097  80.1586246  81.8271732 104.8420110  78.9811802  82.4862862
  88.2751319  20.9708357  41.5109777  88.4905741  20.8797169  42.4391556
  89.1221830  20.9524274  41.0655594  22.7968121  78.4632730  57.2109938
  21.9970036  78.7532616  57.6496792  22.7457523  78.8525009  56.3379955
 104.0627107  46.1623383   4.9107090 104.7676787  45.6251240   5.2721691
 103.4452555  46.2659931   5.6347501  93.5943565 100.5772877  54.0470648
  92.7359089 101.0006618  54.0542889  94.2058846 101.2795162  53.8253832
   6.2659329  27.9460168  51.8656588   6.9937038  28.1028914  51.2640190
   6.2532061  28.7172771  52.4324274  11.8840599  76.2447309  16.6282618
  12.7781403  76.5067816  16.8477666  11.9912899  75.5213070  16.0106945
  51.3133764  47.9498482  19.8991001  50.9464121  48.7167454  19.4592857
  52.2473240  48.1436920  19.9791229   1.6930561  38.5345411  30.3606296
   2.0803158  38.3672643  31.2198615   1.9181147  39.4450951  30.1696420
  23.8641310  12.1048176  42.0388985  23.9381790  11.7907155  42.9400587
  22.9673195  11.8891943  41.7830276  36.5732360  71.7991829  51.6158152
  36.9086885  71.4479065  50.7910061  36.3524413  72.7089930  51.4164972
  10.7495475  66.3884974  40.2649546   9.8078245  66.5554667  40.2260828
  10.8421278  65.6878996  40.9105778  19.6733403  50.2859783  43.8229799
  19.8253024  49.3821526  44.0990877  20.3901267  50.4751682  43.2174587
  23.7357783  71.0713577  64.2748547  23.2494164  71.7794847  64.6970415
  24.2267704  70.6605530  64.9864721  27.9852295  83.1699848  47.3676348
  27.9384327  82.4182129  47.9583025  28.4876299  82.8537178  46.6167688
   8.9380902  67.6118755  53.6398697   9.8357487  67.3582172  53.4251642
   8.7338811  68.3149529  53.0232573  31.2917829  23.0927539  51.1821413
  31.3324666  22.4832463  51.9190788  30.3968143  23.0108142  50.8526802
   9.6628910  15.9474099  76.2800598   8.7133986  16.0259759  76.1877441
   9.9150777  15.3015995  75.6200886  12.9666746  65.4533529  85.0206566
  12.5613785  65.6620169  85.8623409  12.3699796  65.8223295  84.3694687
  25.3464103  72.2742653  73.0953264  25.7259774  72.0929670  73.9551449
  25.9973955  71.9500732  72.4729538  38.6541843  34.6660590  75.1796484
  38.5904813  34.7184753  74.2260075  38.7286472  33.7296605  75.3636122
   8.1993741  45.1039410  48.6296272   8.4656894  44.3311882  49.1277790
   8.9678729  45.6744242  48.6435175  87.8977463 105.0548458  59.3139791
  87.7893373 104.1356087  59.0700817  88.4636161 105.0327492  60.0856876
  22.8781605  87.4636173  67.4772692  22.4451804  86.7487144  67.9438210
  22.1603370  87.9786301  67.1088600   7.2378170  69.4964743  48.8666201
   7.8786343  68.9925051  48.3650160   6.6178304  69.8156786  48.2109070
  23.5596180  50.7998705  52.9971123  23.4906220  51.0022211  53.9301300
  23.1128860  49.9588108  52.9007673  31.7857456  32.9103780  49.1266918
  32.0599079  32.9819894  48.2123947  32.5851965  32.6778245  49.5989513
  50.1981735  71.1495209  60.9148788  51.0549450  71.4837837  61.1803055
  49.9812365  70.4936028  61.5774059  24.1413260  82.5195217  32.3049688
  24.8718190  82.8904438  31.8099642  23.7105942  81.9272041  31.6886377
  40.8267403  69.3501616  79.9768448  41.5407276  69.0347242  79.4228125
  41.0516977  70.2620697  80.1613617  14.2311764  20.0066423  21.8430471
  14.8354197  20.1608133  21.1168575  13.6336982  20.7541275  21.8202996
  85.3683707  74.1606140  27.0757818  85.7828519  73.2980156  27.0948172
  84.6731445  74.0779305  26.4230514   0.8922704  30.9269929  12.1492839
   0.0983275  31.3381791  11.8075073   1.0546787  30.1917696  11.5582657
  27.7513051  55.3248072  73.2251263  28.5588217  54.9638224  73.5909700
  27.1453881  54.5840693  73.2049847 110.8496902  91.1428356  33.5083342
 111.1226966  91.6225147  34.2903876 111.5672681  91.2687206  32.8874731
  11.0481238  63.9919996  61.9248819  10.1359820  63.7092209  61.9901705
  11.0173261  64.9368048  62.0752907  18.0802345  70.2819300  39.3658304
  18.8833380  70.3985119  38.8582230  17.7772498  71.1725283  39.5426607
  11.5316784  72.5150013  52.2070980  11.1793923  72.4059677  51.3237858
  12.0668161  71.7342615  52.3495913  13.0907941  58.2639694  38.5220933
  13.7342453  57.9480600  39.1564441  12.2760606  57.8265381  38.7692571
  27.7314639  94.6676064  72.8703737  28.6249113  94.9777126  72.7226830
  27.6491737  93.8974953  72.3078775  33.7488055  44.0745926  27.6877284
  33.7777019  43.1509256  27.4382472  33.0781436  44.1177177  28.3693337
  19.8412347  16.4625323  45.0739861  19.7153890  16.5439880  46.0193729
  20.7716751  16.6428387  44.9397993  17.2154915  66.3921595  80.6732082
  17.0471597  67.2699881  80.3306961  17.3695970  66.5254641  81.6084766
  19.9935222  76.3453388  56.3127565  20.3619123  75.8588791  57.0502377
  19.3317497  75.7591391  55.9457922 102.5126913  61.6552353  81.8576145
 103.1151882  61.3210058  81.1931515 102.9263684  61.4301634  82.6909542
  76.8043612   9.9143832   0.9926033  76.7985979  10.0659459   0.0474930
  76.6147263  10.7716744   1.3738060  66.2604780   2.3378604   3.4702683
  65.7899840   1.8201201   2.8169632  66.8114598   2.9283230   2.9564571
  11.4254415  80.6681919  56.2486458  11.4565325  80.8505821  55.3095007
  12.2450364  81.0264301  56.5894699  89.6232046  18.5460513   2.6965237
  90.2898027  18.6537640   3.3749580  89.8338355  19.2152922   2.0453930
  67.7406836   0.6161326  64.8779678  67.2694612   0.9928817  65.6210995
  67.4700475   1.1468810  64.1287708 109.2402551  25.3308082  62.9515028
 109.4960088  24.8459458  62.1668196 108.5876617  25.9592652  62.6426458
   4.5620209  55.8279514  33.9580250   5.2018827  56.1824751  34.5753765
   4.6558684  56.3726997  33.1765676  10.6276858  69.8039961  44.3489170
   9.7238177  69.7239494  44.6536255  10.6539071  70.6466818  43.8956785
  24.2666149  49.4149590  38.0629015  23.7848759  49.2442703  38.8722348
  24.5645523  48.5520744  37.7749825  19.6057308  83.2894993  59.1701317
  18.8000560  83.8001728  59.0905523  20.2109122  83.6989880  58.5518217
  26.3051534  50.9444714  39.7394228  25.9311318  50.4909277  38.9840198
  25.6760073  50.7937765  40.4449034 110.2846292  58.7050962  74.4326544
 110.9669041  58.2506132  73.9385128 110.2054669  59.5571136  74.0036726
   8.2630223  71.4448595  39.1350317   8.8216841  70.6983805  39.3515968
   8.6649156  72.1848106  39.5902061 100.7377776  41.8261957  29.7102785
 101.3385794  41.1670971  30.0579214 101.1793217  42.1659851  28.9319372
   3.3993301  30.9197712  42.0988131   3.4173313  30.6000185  41.1967802
   4.1062203  30.4445696  42.5355291  43.3931303  39.2625570  41.2037373
  44.0866566  39.3301034  40.5474710  43.8507938  39.3190527  42.0425367
   8.0302340  47.3330736  32.5958371   8.6504871  47.5336409  31.8949151
   7.6313442  48.1761265  32.8111815 106.8953925  46.0808420  32.9105186
 106.2731108  45.6866026  32.2993112 106.3539430  46.3930559  33.6354923
  13.0808210  92.6838207  49.3984318  13.1839550  92.7905178  50.3440571
  12.9225028  91.7473984  49.2789078  13.1387746  45.3327703  47.2880554
  13.1020117  44.4998312  46.8178463  13.1675053  45.9960175  46.5984869
   3.4559005  52.8113985  59.7607470   3.4335965  53.7622929  59.6533489
   2.8042093  52.4849367  59.1403008 107.5241500  35.0721645   9.2901707
 106.7390117  34.7734427   8.8313091 107.6465634  35.9738970   8.9933109
  23.9028025  84.4900703  52.3442602  24.0491080  85.2774429  51.8199825
  23.2503915  84.7525311  52.9936504   3.9043814  49.1549635  22.1623802
   3.3204889  48.6778259  21.5727687   3.3570689  49.3729591  22.9168057
  77.1662161  85.0986671  59.5146847  77.3740956  84.7143364  58.6630344
  77.8743836  85.7223034  59.6753025  38.4981680  55.9072828  21.8390870
  38.1928205  56.7610979  22.1456814  38.0523801  55.7800579  21.0016394
  99.9895200  56.1625099  58.4907007  99.1881439  56.4290810  58.9412212
 100.6605896  56.1663103  59.1732597  18.5763371  62.6561260  71.5561628
  18.1305969  62.3169422  72.3323679  17.8677416  62.9167128  70.9677601
   8.4176350  67.6047277  36.9214463   8.5363925  67.6785660  35.9745169
   9.2145747  67.1734619  37.2298765   7.9793537  56.0533428  58.1067038
   8.7895834  55.8491707  58.5736847   7.5293845  56.6818523  58.6712694
  10.1242805  50.7296515  16.9731343  10.3886151  49.9547148  17.4689496
  10.9441960  51.1890030  16.7915678 110.8691429  83.4708595  67.8887606
 110.5429104  84.1546440  67.3037434 110.9466194  82.6961422  67.3319435
 109.2811948  91.0933971  48.8498449 109.7827137  91.7393684  49.3472767
 109.5203307  91.2555504  47.9372883  12.2932374  80.0968742  53.4211493
  11.6639614  79.4142342  53.6540604  11.9244123  80.5055332  52.6380825
  14.1652572  47.0515728  59.8956680  14.1749716  46.7979717  60.8186150
  15.0303614  46.8031645  59.5699072  81.3939667  76.9889020   9.0655613
  81.3827134  76.5064763   8.2388973  80.4785062  77.0074748   9.3445110
  39.5591402  34.1469288  40.2491522  39.0244126  33.4373236  39.8931193
  40.3039789  34.2087746  39.6511364  27.7823424   5.8824193  29.2343163
  28.3201742   5.8494049  30.0254416  26.8872762   5.9860545  29.5573473
  25.8345938  66.8046093  51.5675402  26.1264491  65.9531975  51.2417316
  24.8862934  66.7132854  51.6603708  27.6367521  92.8705215  53.9784336
  27.0906401  92.1047211  53.8008499  27.4668145  93.4612370  53.2446718
  48.2568932  75.4534817  58.4353447  47.6368189  75.1546097  57.7701998
  48.1971598  76.4083862  58.4066391  19.0852118  17.5571334  33.9472651
  18.8729191  17.0557082  33.1600308  19.1126621  16.9043946  34.6468449
   5.6280476   9.0799540  53.1966448   6.2478054   9.7560292  53.4706020
   4.8981789   9.5656258  52.8123951  25.2098179  84.0289593  75.0361681
  24.4759202  84.0909386  74.4247913  24.9847412  84.6342468  75.7427073
  12.7819800  47.4209309  56.3558674  12.7579236  47.9773998  57.1343231
  13.1596446  47.9777336  55.6750059   7.4117571  87.5992584  57.9093122
   8.3101648  87.9060745  57.7870131   7.2249591  87.7671814  58.8329697
  22.2404337  62.2835732  57.8522301  22.5165272  61.7219877  57.1279192
  21.5766048  62.8578615  57.4704456   9.6695346  52.2861433  65.9766102
  10.0099301  51.3923597  65.9377670   8.7444597  52.1806860  66.1987543
  15.9443629  25.9537220  45.1492929  16.1247408  26.5809751  45.8494711
  14.9902761  25.8777809  45.1356792  10.7077169  16.0026896  61.0096693
  10.6478381  15.1937354  61.5178442  10.4828489  15.7417297  60.1166058
  28.6036682  39.0460658  54.1701365  29.2957568  39.4739294  54.6742916
  27.8183532  39.1466451  54.7080898   0.2574408  52.3833561  54.6127844
   0.2869030  53.0054426  53.8858938   1.1713511  52.1359825  54.7535181
  16.6646266  81.9684410  56.5125990  17.2162187  81.4572144  55.9204626
  16.3652444  82.7073860  55.9829235 102.0869389  54.8188353  78.3475161
 101.6311035  54.7127962  77.5125265 102.3538026  53.9318800  78.5890341
 105.4004583  58.3787060  66.3739967 104.8092011  59.1070223  66.1837196
 106.2416670  58.6510420  66.0073423  51.2162304  16.2592721  45.7321215
  51.6194725  15.4029226  45.8745766  51.0541201  16.5971768  46.6128969
  52.3382902  32.6787734  75.5635309  52.9485703  32.6415348  74.8270464
  52.2411060  31.7676449  75.8403587  20.1495934  61.4654350  50.3655100
  20.0966954  61.5270233  51.3192606  20.7345819  60.7249022  50.2054024
 100.3190741   5.2021646  80.7589340 100.7583365   5.9418225  81.1786842
  99.5668337   5.5918068  80.3133488 102.1063777  16.5400721  89.1238661
 102.2875806  15.8845164  89.7973941 101.5598746  17.1910359  89.5641045
  24.1841793  78.6996746  38.7871933  23.5568213  79.4018936  38.9590693
  23.7177539  77.8983116  39.0248871   1.8803242  42.6945734  70.6908226
   2.2124244  43.2762289  71.3746452   0.9451959  42.6136875  70.8785057
  13.4896302  39.1977859  52.6903391  12.9865849  40.0077057  52.7752542
  14.3990850  39.4658017  52.8218269  30.1021957  18.0677438  62.9243994
  29.8346233  17.9384625  62.0144987  30.6468105  18.8546526  62.9044056
 106.0396489  54.4212055  65.2054739 106.3189474  53.8350153  65.9087515
 106.7634729  55.0398779  65.1076937  37.2928619  71.4505959  58.7661791
  37.8782725  70.6954670  58.7087059  36.4530277  71.0822487  59.0404606
  13.2798433  37.9358292  76.3642693  13.7311649  37.8684211  77.2056961
  12.5136137  38.4798551  76.5463734  43.8149118  34.1135454  57.2740555
  44.2379332  33.3207750  57.6039028  43.9505196  34.0810800  56.3270664
  35.8261061  78.5433483  60.5807638  35.9804034  77.7971506  60.0014496
  35.8390021  78.1692934  61.4617586  16.7144084  89.3729210  59.5185804
  17.5053501  89.7824287  59.1679478  16.9734585  88.4699059  59.7021484
  26.1048913  41.7533016  70.1896667  25.9014988  41.0432625  70.7985210
  25.6736755  41.4998865  69.3735361  99.4100234  56.1859083  53.1907368
  99.2960057  56.4215088  54.1114569 100.3554770  56.2293673  53.0476999
  33.0165386   4.9343106  35.0549650  33.3492780   5.7244360  35.4806614
  32.4857497   5.2594584  34.3277955  89.3975350  56.7193747  48.7633085
  89.0813801  57.5851059  48.5048771  90.0069877  56.8913937  49.4810915
  47.4661101   8.3847541  69.9949932  48.2195247   8.8384551  69.6171618
  46.7566705   8.5377997  69.3708897  23.9751267  55.5715275  61.3426828
  24.2901850  55.0822210  62.1026516  23.1523752  55.1432180  61.1063337
 104.9207428  18.1441498  63.0851793 104.2360476  17.9055214  63.7100649
 104.9050590  19.1010392  63.0665255  15.5706477  50.8442688  57.1612024
  15.1354158  51.1062765  56.3499308  15.6174612  49.8895693  57.1103525
   1.8156141  44.3369865  30.6993365   2.0024678  43.5416317  31.1980581
   0.9579518  44.6216488  31.0149550 103.7992921  74.7731352  38.9700603
 103.6734179  73.8734436  39.2716169 104.5898363  75.0687075  39.4216228
   7.2025084  33.1573415  37.9067492   8.1513923  33.0335164  37.8839588
   6.9874740  33.1894326  38.8389301  14.9058306  84.0134716  84.2537212
  15.4142344  84.8149872  84.3775845  14.2043459  84.2652225  83.6530781
  90.4507324  67.9057741  21.3125420  90.6679580  68.6121798  21.9208479
  89.8262426  68.2984924  20.7026124  82.6322529  70.1800489  60.4021931
  82.5467655  71.0121822  60.8674669  81.7357823  69.9478531  60.1600075
  19.4093156  54.3134928  82.9908276  19.3708909  55.2238464  82.6975441
  19.3846822  53.8004017  82.1831417   5.0431031  59.5370913  67.5001669
   5.1713639  59.4258451  66.5581417   5.5574411  58.8338709  67.8966093
  91.8358049  42.9230738  66.8278980  92.5826487  43.3835554  67.2105360
  91.7309257  43.3155155  65.9611702  15.5933201  57.0354986  53.6454296
  14.6948063  57.2121811  53.9241552  15.9662235  57.9007435  53.4765291
  18.2774675  44.1372538  51.0901213  17.9936540  44.5339155  50.2665043
  18.4137535  43.2141066  50.8769178   3.6890116  55.9717798  61.1961555
   2.8468752  55.6572580  61.5249586   4.3289927  55.3507376  61.5439510
 103.2880780  72.6436138  86.1018848 103.8917628  72.7521753  85.3670311
 102.4608824  72.3842955  85.6960106 107.6380065  76.7471886  86.6182041
 108.2700163  76.1516953  87.0209312 107.0532355  76.1752987  86.1209965
  52.6659298  90.0119209  25.4290915  52.3895597  90.4759598  26.2193584
  52.7711105  90.6998158  24.7718453 110.2059840  65.5566788  17.8450453
 110.9284528  65.7057428  17.2350860 110.5986437  65.0637960  18.5655403
   4.1805726  72.4763203  46.1186695   3.8003415  72.7241755  46.9614172
   3.4254408  72.2901773  45.5606747  40.2070951  76.8459272  65.1247692
  39.3746424  77.1731520  65.4656172  40.6960917  76.5786505  65.9030151
  93.3371875  82.8622627  39.9355459  92.5360724  82.6678467  40.4220104
  93.2071230  83.7512493  39.6053624  22.5423670  90.1315117  52.1575975
  21.9137907  89.4458485  51.9317913  23.2648802  90.0061131  51.5423870
 100.4296419  76.3050747  49.6041059 100.1074979  75.4045057  49.6418524
 100.0025496  76.6801405  48.8339424  31.8280292  98.0676365  42.3838186
  31.6612935  97.4271202  43.0753136  32.1391916  97.5459290  41.6440630
  16.4422488  75.2399635  60.2956629  16.9463861  75.1558304  59.4863415
  16.1197710  74.3557358  60.4699755  14.6043169  66.3240528  42.4366140
  15.5139422  66.5862036  42.5783539  14.2247641  66.2917042  43.3147526
  30.6264329  33.5491514  52.3750877  30.6150055  32.8407693  53.0187464
  29.9083281  33.3412242  51.7773199  18.7542880  57.5960016  40.7497406
  19.7005022  57.6419640  40.6126308  18.5132217  58.4717321  41.0517597
   6.4946139  98.2305717  83.7273693   7.0495325  97.4697208  83.8988304
   5.9153360  97.9497623  83.0189800  11.7679977  53.4996462  50.6593704
  12.6712966  53.1903791  50.5912828  11.7840350  54.3736458  50.2693701
  58.4215736  91.5113926  62.5484705  58.3050299  92.4567795  62.4541903
  57.6579142  91.2246895  63.0493307   3.3431885  91.6588688  47.4803543
   2.6302832  91.1198711  47.8230953   4.1384354  91.1774158  47.7084208
  63.8676906   0.9830398  59.6296263  63.4063769   0.1695937  59.8338938
  63.1717349   1.6104907  59.4342184  96.9892046 103.9362812  63.4670496
  96.5602657 103.9923096  62.6131773  97.2588059 103.0207348  63.5400438
  18.4762907  80.6212807  55.1432467  18.4580433  79.7215700  55.4694605
  18.8445973  80.5493546  54.2626715  48.6430740  63.7556458  63.6371517
  48.7848186  64.0451813  62.7358723  49.4652987  63.3328724  63.8850212
  21.6690063 104.9250603  58.4151220  21.3816977 104.7162533  59.3039894
  22.3713899 105.5643272  58.5343981 101.4655901  26.7796652   3.7846947
 101.6108419  25.9327881   3.3628750 101.2842537  27.3796170   3.0612278
  98.4797999  64.6164322  36.3751078  98.8628432  65.0389051  37.1438885
  98.8809213  65.0648403  35.6306195   1.3556607  75.4865599  58.2577848
   0.6192426  75.6252861  57.6622391   1.7022780  76.3641930  58.4185696
  41.9545078  80.1124477  48.0993223  41.5629148  80.4880810  48.8878536
  42.4647570  79.3674374  48.4168768  23.5454059  74.8447323  52.3438597
  23.6193562  75.7113171  51.9441175  24.1801357  74.3073940  51.8699169
   6.2317407  32.8634048  40.6794214   5.8473861  33.7188959  40.4880190
   6.1985278  32.7939606  41.6335201  42.9718351  86.6170311  33.8247108
  42.7485895  87.4372482  33.3846664  43.2111073  86.8795204  34.7135758
  37.2147489  69.1071939  74.7963381  37.4699903  68.1853437  74.8319960
  36.2585187  69.0927029  74.8368692  10.3143585  85.0144291  34.9149680
  11.0957074  84.5386219  35.1966381   9.6433622  84.7721863  35.5531836
  14.7666550  73.3582544  62.9846048  14.7148168  73.1953669  62.0427895
  15.0966287  74.2540216  63.0549431 107.9956916  57.3093462  37.6801324
 108.6507139  56.6556597  37.4354458 107.7945349  57.7645588  36.8624830
  77.4559356  28.6659520  18.5962772  77.1360277  29.2986481  19.2393780
  77.1435337  29.0002339  17.7555084  58.3048630  98.9238548  41.5340519
  57.9962969  99.0473175  40.6364012  59.1154766  98.4232044  41.4419413
 111.0274832  53.3447838  89.7584248 110.1483756  53.0095196  89.9344921
 110.8809435  54.1932726  89.3402958 103.0197671  68.2705355  51.0203362
 102.2025982  68.1348038  51.4999628 103.6489668  67.6914644  51.4504719
  93.6720988  98.8757706  33.4092665  93.3548674  98.2712746  34.0802193
  93.0939791  98.7277412  32.6608682  71.2336350   0.8410472  46.7065763
  70.7220054   0.6489486  47.4924278  70.8653332   1.6600913  46.3752699
  40.8050871  86.7504692  38.3315063  39.9866557  87.0602608  38.7193608
  41.2656736  86.3231373  39.0536380  43.3065128  36.7630005  85.9203148
  43.4956312  35.8567929  86.1637402  44.0365744  37.0166612  85.3556061
  29.3806362  67.5001240  67.3082590  30.1717544  67.9421997  67.0001459
  29.6204853  66.5739870  67.3393679  18.6448479  69.5700359  30.2470589
  18.4873748  69.7270966  29.3160558  19.5514297  69.2657089  30.2886271
  25.9576106  83.3085346  39.0960026  26.0077858  83.1381512  40.0365782
  25.0202751  83.3071995  38.9020181  11.2013340  58.2638741  82.9021645
  10.9907162  59.1719675  82.6848221  11.9798410  58.3244753  83.4557819
  28.6346979 101.7775701   5.9001541  27.9072750 101.7343210   5.2794933
  28.5868526 102.6616262   6.2639999  19.5348144  98.2277107  59.0228367
  18.5817504  98.1889057  58.9428616  19.7336054  99.1630173  59.0666389
  29.0827346  45.1144505  51.7127466  28.8906264  45.1588631  50.7760763
  28.4595823  44.4734907  52.0549202  41.7303658  81.2085533  71.3880253
  40.8726501  81.6285992  71.3238192  42.2694874  81.6648674  70.7419920
  42.6496865  58.4767335   3.0649090  42.7857329  57.5570481   3.2927036
  41.7596294  58.6676495   3.3608532  16.6768312  71.1590290  50.9493542
  16.6586316  70.7971430  50.0633860  17.5775480  71.4611673  51.0662079
  16.4934647  71.2700748  56.9541788  16.9151175  70.7844448  56.2452316
  15.6961918  70.7749844  57.1425152  34.4307566  79.7487450  30.7135034
  34.2940378  80.3693390  29.9976850  33.5902119  79.3000984  30.8053565
  22.5266337  68.1215382  14.8829889  22.6957202  67.1908903  14.7362542
  23.2673216  68.4191751  15.4112172   2.9127705  82.7505779  62.2080421
   3.5941288  83.1025696  61.6352558   3.3754838  82.5094318  63.0105257
   5.5036622  57.2401190  44.8963070   4.5770779  57.4268532  44.7453022
   5.7461405  56.6431427  44.1884565   0.7252329  91.6924381  31.4068484
   1.3856354  91.2703037  30.8573890   1.2275371  92.1128845  32.1048069
  47.6830292  54.0668488  61.1232853  46.8255949  53.8613176  60.7507420
  48.1467104  53.2295132  61.1334467  37.7123570  52.7178955  54.8975611
  37.3579359  52.3044348  55.6847525  37.5004911  53.6458969  54.9983549
   0.9538607   7.6353759  68.8573122   1.5215448   7.6703567  68.0874109
   0.9355406   8.5354632  69.1824818  26.7222333  90.1397800  54.0061522
  25.7663965  90.1523495  53.9566517  26.9964719  89.6648979  53.2216072
  25.9067301   6.3297169   3.5771465  26.1346535   6.8179314   2.7859879
  25.6709819   7.0035355   4.2148113   5.8469522  76.6872835  39.8976326
   5.4263884  75.9836817  39.4033623   6.1268455  76.2725735  40.7136631
  63.2114697  63.4595156  33.6472678  63.6983728  64.0824747  33.1077504
  63.8868284  62.9221201  34.0611911  23.7016559  36.4952731  40.1260996
  23.5185885  35.9052324  39.3949533  24.4169903  37.0491958  39.8135328
  57.6361370  90.5563068  35.9952164  57.2829676  89.8694706  36.5607023
  58.4655714  90.2008057  35.6760240  25.3494430  36.1440110  42.2198296
  25.1232076  36.7264843  42.9449320  24.5668173  36.1323500  41.6688347
   8.1923008  34.7053432  49.0740967   8.1567150  34.5786190  48.1259871
   7.2943765  34.9279857  49.3198490 111.1692713  65.1227808  53.6544609
 112.1040213  65.0088692  53.4827089 111.1302057  65.8064747  54.3232441
   4.6101061  83.9749908  56.0400105   5.2150512  84.2937756  56.7098284
   3.9468178  83.4876919  56.5287018   4.6717331  62.2797441  59.8061895
   4.9926940  62.7535582  59.0389109   4.9912918  61.3854456  59.6864080
  31.6518164  59.0475559  28.2195520  31.4515233  59.8705959  28.6653328
  32.5932407  58.9295435  28.3461380  20.6920266  86.6867924  60.4732609
  19.9421692  87.1674538  60.1226854  21.2824035  86.5862179  59.7265530
   0.8261555  81.6750336  14.5825541   0.4745935  82.2867584  13.9356935
   1.7681588  81.8448925  14.5856392  50.2216482  65.1839352  58.7531662
  50.6425047  66.0258627  58.9271545  49.8030329  65.2972269  57.8998423
  15.5529082 102.9786396  48.9022684  16.1002362 102.8928661  49.6828461
  15.0988948 102.1386814  48.8346100  77.5665618   6.4721602  90.7964325
  77.6757098   7.1998805  90.1842690  77.0006490   6.8212337  91.4850044
 103.5230085  79.4653845  39.7969866 103.0666122  79.0701580  40.5397701
 103.0511919  80.2818966  39.6328878  13.6534953  67.2792864  56.4930105
  13.5658467  67.2915268  55.5399084  14.0546501  66.4318514  56.6857767
 110.7882215  45.8861113  64.9385881 111.4919156  45.3561115  65.3129482
 110.9122626  46.7542934  65.3221416  79.1960952  76.8391371  57.2896957
  79.4509885  77.5821400  56.7426968  78.5541818  77.2006893  57.9008102
  30.5013871  78.0915737  45.2475929  31.4198804  77.8245163  45.2833605
  30.1425338  77.6155329  44.4987011  22.4404788  90.6771469  69.6763849
  22.0000339  91.2013245  69.0074396  22.0084095  90.9212780  70.4948854
  20.6833196  87.0328712  24.2602944  21.4510131  87.1944427  23.7118626
  20.8440495  87.5435734  25.0537610  48.8450301  19.8078078  45.9500694
  48.1048167  20.3072185  45.6052494  48.4725726  18.9572543  46.1826038
  23.3695650  71.1525583  37.2914147  24.0313411  70.4625463  37.2448754
  23.2097721  71.3931131  36.3788199   9.3161964  73.6867285  29.2185974
   8.6696625  73.1220913  28.7950277   9.7639126  73.1133938  29.8407459
  56.5048552  74.9728107  57.5291109  56.8581152  75.5788803  56.8778658
  56.1277533  74.2600870  57.0133066  26.2673759  57.6288271  37.2169709
  25.9126806  57.1799517  36.4495516  25.7546186  57.2900915  37.9508424
  31.5243506  64.7713995  74.4464922  31.7756248  64.1022444  75.0831413
  32.2567296  64.8034430  73.8310051  93.4492311  73.4850359  73.8882971
  94.3451378  73.7627411  74.0792561  93.1621334  74.0686131  73.1859827
   4.1265240  98.6070633  52.2472668   3.5744280  97.8328419  52.3568058
   4.3208009  98.6320782  51.3103247  26.5452003  70.9330463  31.5314150
  26.1454368  71.4530945  32.2285318  27.4858332  70.9903383  31.6992140
  28.7158060  65.8989763  11.6790175  29.1199756  65.8297586  10.8140981
  28.0292344  66.5570784  11.5705860 110.1056905  54.9500132  87.3866749
 109.4132890  54.3662357  87.0768166 109.6394406  55.7030058  87.7497768
  10.3558874  68.9065886  64.1728735  10.6918633  69.5455360  63.5443020
  10.7997847  69.1214323  64.9932623   1.6653720  87.3222446  40.9876156
   0.7408126  87.0834637  41.0539913   1.6617256  88.1764126  40.5556250
  45.6980038  75.3987122  59.9174786  46.6202974  75.1582909  60.0058174
  45.2632523  74.5876837  59.6539450  53.6911964  81.0852909  68.2563353
  54.3558741  80.5445290  67.8297186  53.9802408  81.9849491  68.1036854
  23.5651040  61.4349174  73.4580517  23.0642343  61.6188383  74.2527390
  24.1242504  60.6944942  73.6933374  28.3904815  93.2407188  18.5389245
  29.1749549  93.6334896  18.1560802  28.5623097  93.2316494  19.4805324
  42.6337814  44.9785423  75.5486870  42.9913139  44.0979719  75.4346514
  41.7962027  44.8414993  75.9913015  32.8980494 104.0987587  11.0384762
  33.3081794 103.2805824  11.3188493  33.3761239 104.3475342  10.2474070
  14.3820167  51.4547586  41.1940384  13.8797402  52.1294641  41.6508961
  13.7191415  50.8678484  40.8302116  22.0475745  29.1530848  64.0077209
  22.4259090  29.5097399  63.2040453  22.7221394  29.2924309  64.6723795
   1.5412320  76.7419672  49.9558878   1.2941423  76.7011499  49.0320301
   1.6498971  75.8270502  50.2154064  27.7067828  70.5330753  80.1062012
  28.5553789  70.8728409  80.3902340  27.0736265  70.9528542  80.6885529
  48.0496883  88.9906788  43.7682819  48.2953501  89.8981285  43.5882235
  47.7203512  88.6612701  42.9320669  25.5727410  91.5963840  64.1543341
  25.4115748  91.5168762  65.0945139  25.1111889  90.8518982  63.7684059
  11.8514895  85.9301567  48.7099361  11.4699483  85.7024670  49.5577669
  11.7068660  86.8727779  48.6275911  14.7376466  40.7880592  25.7814217
  14.9269676  40.2313757  26.5367317  14.0956378  40.2921724  25.2733326
  23.4241462  61.2974882  46.1408758  24.2518163  60.8172083  46.1638737
  23.6721659  62.2095013  46.2923717   8.6766040  94.6260548  38.0068541
   8.0931336  94.0645313  38.5172296   8.5751146  95.4942799  38.3968735
  20.7502723  96.1048222  46.9223356  21.0639405  95.6682205  46.1303616
  21.1995816  96.9500160  46.9238329  42.0473194  47.4593258  62.0783424
  41.9534636  48.4106064  62.0284605  42.0935726  47.2720480  63.0158997
  90.2271840 100.2043915  64.4762039  90.5258247  99.7794628  63.6721659
  89.3029377  99.9649715  64.5445871  26.7431188  62.3555183  56.2516069
  26.2453604  61.9139338  55.5635166  26.0869169  62.8513718  56.7412663
   4.4889906  51.9798613  20.0095558   4.6598515  51.1560488  19.5530725
   3.8721782  51.7459059  20.7031274 100.4409477  43.5618067  25.1076436
  99.8798522  44.2325497  25.4968810 100.9799561  43.2492304  25.8342791
   6.8718916  72.1683073  63.9403200   6.2928891  71.6253614  64.4752932
   6.4563572  73.0306005  63.9371824  93.5304353  53.4753990  80.5158043
  92.6288316  53.3427620  80.2229786  93.5850152  54.4118214  80.7065201
  15.7482946  62.9484034  65.2356482  15.6902421  63.0518198  64.2858267
  15.7916737  62.0018625  65.3713131  38.3977604  77.6924944  78.6455584
  38.4155655  76.8022776  78.2942247  37.5002408  77.9904795  78.4975815
 109.0393627  47.4888945  70.5487061 109.4711564  47.6251078  69.7053576
 108.1460074  47.8052330  70.4142475  95.9290323  58.8161373  68.9542961
  96.3315997  59.1427517  69.7589636  96.3958630  58.0019045  68.7663317
  11.1644673  70.7333517  55.9043837  11.8993020  70.6645823  56.5139055
  11.5600550  70.6266975  55.0393009  31.1790586  82.0649624  21.5955496
  31.9466853  81.6457272  21.2066793  30.4333687  81.6198349  21.1930060
 107.9153836  59.2907381  66.4581108 107.8744003  59.9999571  67.0996428
 108.6342105  58.7356138  66.7603588  10.3129935  94.8910236  73.7590981
   9.6760851  94.3613720  73.2794619  10.2847648  95.7462692  73.3301497
  27.7671099  67.5312281  39.5277953  27.6264024  67.0758438  40.3578901
  27.6666164  66.8513107  38.8615775  96.2278995  49.2493200  70.9191942
  96.2099549  48.4192562  70.4428530  96.8422458  49.0998316  71.6378498
 111.3312381  92.6398563  38.5773611 111.7217633  92.2392273  37.8006887
 110.3882471  92.5302887  38.4549093  20.4247856  89.5085716  61.5705824
  20.6051707  88.8672066  60.8833122  20.6302166  90.3532219  61.1698484
  15.7802367  69.9349546  33.0664682  16.2845647  69.4330835  33.7067890
  16.4193499  70.5258131  32.6681542  22.3423600  68.4333086  40.2090216
  22.3922110  69.2143536  40.7601261  23.2478309  68.2668591  39.9470162
  26.8185616  52.8931808  69.8028088  26.4500666  52.3603678  70.5074739
  26.2682414  53.6760807  69.7816467  91.5076229  55.3707027  52.3667479
  92.0794412  56.0115528  52.7893209  92.0987341  54.6745348  52.0801020
   2.5119436  60.3136587   7.0310235   2.1919160  60.9442711   7.6761162
   3.3974892  60.0993347   7.3244607 101.8982628  71.1804724  43.3841228
 101.7947969  71.9113398  42.7747250 102.7513155  70.8053017  43.1655407
  24.1818023  92.9312325  69.8336840  23.7463617  92.1243668  70.1086235
  23.5947108  93.6302948  70.1215506  83.6319436  30.0348179   5.1677227
  83.5406573  29.3586247   5.8390331  83.4957005  29.5716756   4.3411827
  20.5262351  72.1848822  70.8290529  20.2817607  71.5157127  70.1897764
  21.4684796  72.0676041  70.9501076  39.3938613  29.2633677  38.4346390
  39.6315432  29.7025156  37.6180053  38.4752584  29.0210366  38.3177042
   7.9521561  99.2616081  37.6809955   7.0478743  99.0243340  37.8864360
   7.8815848  99.8378277  36.9199252   8.7826639  72.6945448  52.8368616
   9.6625894  72.4404383  52.5586605   8.5802728  72.1026754  53.5614061
 106.2308392  53.6243582  49.9989796 105.8608726  53.5017681  50.8732367
 106.5713474  54.5189142  50.0062752  22.9192448  42.0898294  57.0756960
  22.2778893  42.6602602  57.4993706  23.7603116  42.5209188  57.2273493
  41.9338751 104.5428658  25.8964038  41.7443895 103.7057304  25.4726958
  41.0851288 104.8453236  26.2194848  32.6617197   7.5356788  58.3743906
  32.6466043   8.4687442  58.5874653  32.2629834   7.4818534  57.5058603
  56.4248037  80.1650238  69.7288179  57.1309662  79.5263147  69.8269033
  56.0191965  79.9466658  68.8897514   1.2632141  85.8458996  47.1100569
   0.5276843  85.9378433  46.5044403   1.3636579  86.7149258  47.4985600
   0.1279224  62.3604488  61.2054825  -0.2333657  62.3025274  60.3209782
   0.9331038  62.8677225  61.1025763  85.9485480  79.0796995  61.1832666
  86.2677142  78.1818867  61.2743425  86.4552423  79.5800686  61.8228960
  12.3199427  63.1786203  68.4352398  11.3914287  63.1901503  68.6675358
  12.3342192  63.3635855  67.4961901  18.3030879  92.1664238  49.1090012
  18.8031638  92.3092461  48.3054113  17.4580908  92.5842285  48.9427090
  95.4919077   5.9502404  16.9682884  95.6181361   5.1224558  16.5045357
  94.5546295   6.1280816  16.8900967  40.3452682  52.1458340  61.5627432
  40.7527018  51.8854713  60.7366419  40.6624651  51.5046787  62.1987772
   0.0363522  34.1222930  41.6578007  -0.5203788  33.4162617  41.9861317
   0.7221492  33.6754632  41.1615562  36.8517804  89.6904945  33.4486723
  36.2876892  89.1110420  33.9607906  37.5612092  89.1252899  33.1429100
 106.0079804  42.3773670  79.9623013 105.6479320  43.2414389  80.1622486
 105.3132102  41.9354916  79.4741726   4.7240266  65.7486582  59.4801807
   5.4322112  65.1833248  59.1717863   4.6023029  66.3857269  58.7762213
  12.3986769  86.4353180  67.2922611  12.8414392  86.6487789  66.4709044
  12.7607918  87.0533371  67.9272079   3.0484104  69.3402243  61.7616892
   3.1881690  68.4432697  61.4580917   3.9210069  69.7336435  61.7562008
   9.0619510  82.4103451  47.0852852   8.3177364  82.7113914  47.6065826
   9.5526958  83.2075691  46.8857002  91.7003056  72.9751396  46.2262535
  92.4863383  72.9192257  46.7696285  91.0869548  72.3600006  46.6282892
  41.1691666  69.5294333  58.3651209  41.8382454  68.8465118  58.3184099
  40.9871292  69.7492790  57.4514675  13.2013547  95.1815033  62.8474379
  12.3192942  94.9569607  63.1437159  13.5585129  94.3586731  62.5133371
  53.2302761  86.0993576  32.9859567  53.0568027  85.8506107  32.0780659
  53.7087393  85.3550053  33.3509898  34.8520660  72.5685549  29.5749354
  35.3950429  73.0641174  30.1879811  34.4950485  73.2301188  28.9823961
  65.0912714  73.0539370  69.1662645  65.9728718  72.8933954  68.8297606
  64.7754812  73.8040113  68.6623859  37.7461696  52.1571064  60.0851011
  38.1915808  52.3351383  60.9134388  38.2456875  51.4404726  59.6937513
  55.2473688  89.7461987  16.3145530  54.4374895  89.2360115  16.3210213
  55.3125381  90.1033497  17.2002316  91.7206070  98.4144211  55.2489853
  92.3863658  98.9294434  54.7931957  91.8767485  97.5143719  54.9630404
  48.9575481  87.2283459  54.7149706  49.2423439  87.4439335  53.8269138
  48.0295420  87.0124912  54.6231222  12.4269986  56.1966562  50.2271795
  12.5747097  57.1133327  49.9945593  13.2980359  55.8592272  50.4361534
  54.5598210 104.4335912   3.5248470  54.0998543 103.6069273   3.6707592
  54.2496837 104.7326158   2.6700783  35.6764913  72.0611238  32.6464581
  35.6484413  72.4122953  33.5364699  36.0035992  72.7856636  32.1132898
  47.5753927  83.2205486  64.8046112  47.8112221  83.7659359  64.0541649
  46.8964052  82.6342964  64.4706774  54.1788054  77.6127863  62.2692108
  54.0959072  77.3818970  63.1944418  53.4220314  78.1718206  62.0931196
  16.3812642  31.4358323  14.1707325  15.5598406  31.9270413  14.1563606
  16.6015248  31.3646023  15.0995159 108.6659354  79.6500206  59.2780209
 108.1858331  79.9393272  58.5021114 108.9490870  78.7604380  59.0666056
  17.3885667  90.4014111   8.7094831  16.8502605  89.6273708   8.5442007
  18.2747519  90.1331425   8.4667099   3.5734975  59.2717457  77.4899101
   3.1172413  58.4419632  77.6296425   3.0851641  59.6979380  76.7855549
  28.8420320  74.4617653  79.5462894  29.1531873  73.5570717  79.5155478
  29.6280479  74.9902153  79.4079018 103.9701900  22.4599886  47.8611898
 104.7189447  23.0498695  47.7737904 103.6197683  22.6452303  48.7324667
  10.1367235  76.1392736  68.9162636  10.3918219  75.9351349  69.8159742
  10.2995408  77.0784187  68.8283682  30.4387617  81.2731361  43.3434343
  29.8159957  80.6366825  42.9922771  31.2982011  80.8946514  43.1581259
  14.0375829  50.4421282  71.9818401  14.1654932  51.3837767  71.8670797
  14.2280698  50.0679493  71.1216402  49.2163229  92.6624203  43.8572979
  48.2728386  92.7844906  43.9629841  49.3319941  92.4867821  42.9234886
   9.7705388  38.3411026  64.5129442  10.6459987  37.9827189  64.3667889
   9.2299604  37.5776148  64.7156620  11.1463273  41.2838221  48.0715895
  10.3774571  40.7674789  48.3133745  11.5883410  40.7576227  47.4052715
  98.6258182  40.0926304  15.9681916  98.9324972  40.8151102  16.5160966
  99.4098172  39.7900701  15.5098927  30.6772351  94.4036388  72.1228409
  31.6097188  94.4277382  72.3376083  30.6501985  94.4524956  71.1672688
  31.4548802  66.5473652  50.6783152  31.5663767  65.6109953  50.5139637
  30.5728698  66.7427206  50.3618860  55.2260017  86.7724514  66.3700581
  55.0752926  87.0055771  67.2861195  56.0707235  86.3222599  66.3733292
  33.9430404  97.8872585  80.5461693  33.2016397  97.9203320  79.9416304
  33.5425830  97.8151417  81.4125729 109.4264247  74.6092653  26.9985056
 110.1120320  74.9814177  26.4438200 108.6691979  75.1774502  26.8570805
  13.0675411  89.7232056  71.0730743  13.5477281  89.4985580  70.2760887
  13.7058914  90.1875973  71.6144466  21.1142802  67.7122831  48.3653641
  21.6080308  68.4545565  48.7138891  20.3764129  68.1108904  47.9039526
  26.2375093  77.4762154  51.2851429  26.7602754  77.7939224  52.0213556
  25.3527951  77.3884296  51.6398382  36.4758645  11.2295360  51.9307089
  35.5594484  11.1121196  51.6804600  36.9522307  11.2335986  51.1004734
  16.4199710  60.2948523  31.8774581  16.3322139  59.8234272  32.7058840
  16.0286927  61.1518288  32.0469427  37.7590489  73.0967712  62.8722668
  37.1497488  72.9283905  63.5910368  38.4249926  72.4145699  62.9580116
  18.4239554  79.0213871  26.3370681  19.1032386  79.6306086  26.6263056
  17.6037633  79.4968224  26.4692688  22.6942635  93.7368679  49.0931654
  23.3224297  93.4379196  49.7506380  22.1832871  94.4119930  49.5396376
  22.3201013  66.8116808  56.4717913  21.6905570  66.3473749  57.0234442
  22.8490925  67.3193407  57.0871639  95.5463645  78.2938051  62.8480053
  95.2930638  78.9755678  63.4703112  96.4175972  78.5541534  62.5489998
  14.3371654  76.6360760  66.5935612  14.0100396  76.6579533  67.4928617
  15.1703954  77.1057701  66.6302967  68.7285937  31.2741845   1.7391205
  69.0593167  30.7671731   0.9976482  69.4717176  31.3329785   2.3395729
  35.4225063  52.6632786  83.1952095  36.3138580  52.3144007  83.1926537
  35.3201151  53.0524683  84.0637016   8.0090320  80.0459194  51.4529610
   7.9252100  79.7894859  52.3713541   8.2754737  79.2438030  51.0036802
  12.2506714  96.8366432  42.8384638  11.5408945  97.2296047  43.3464289
  12.9036999  97.5322437  42.7614880  54.8913456  10.1877326  56.3497639
  55.5001593  10.4156989  55.6471920  54.2774261   9.5748061  55.9452057
  94.2146970   7.1721095  73.8991213  93.7440444   6.5461368  73.3487749
  95.0949527   6.8050021  73.9804649  33.0353642  76.4014292  50.9425640
  32.1316075  76.0952282  50.8671093  33.4277797  76.2013721  50.0927305
   0.5437093  67.4032259  29.9658775   1.3728306  67.3466587  30.4408407
  -0.1219444  67.1897507  30.6197619   4.4563907  79.3505621  56.1251783
   5.2577388  78.8270617  56.1205339   4.6342805  80.0662136  55.5149126
  38.5891414  73.9584589  74.5216513  38.7242532  74.7093821  75.0996637
  39.1650224  73.2792664  74.8727751  29.7765040  96.8423367  40.0055695
  30.7174206  96.9605350  39.8754287  29.5490384  96.0987949  39.4473338
  46.8213988  33.7293166  54.9217463  47.6156355  33.3206004  55.2657986
  46.8826122  34.6432036  55.1997375  70.1896377  31.0978024   3.8441944
  70.4002978  31.8796055   4.3547249  70.7678045  30.4200738   4.1944027
  24.7899318 105.1229668  46.5830088  25.4504848 104.6530151  46.0740423
  25.2824545 105.7989979  47.0484543  21.5633440  70.2852249  62.4846649
  21.5755701  70.6899595  63.3520031  22.3810363  69.7896242  62.4400806
  49.3771982 102.0117188  38.7239218  49.3072414 102.8792000  39.1224337
  48.8090277 102.0549393  37.9548001  33.4560585  54.3439627  59.5823431
  32.9669547  53.8047361  60.2038288  34.1796231  53.7854052  59.2982626
  32.4964428  81.5652084  26.7710185  31.5519571  81.5823841  26.9255543
  32.6552248  82.2983456  26.1764336  22.2692800 101.2540150  71.2984180
  23.1939840 101.0486603  71.4362192  21.9972181 100.6701851  70.5903482
  45.6308234   6.0146350  70.0947762  45.0454021   5.7382888  70.7998562
  46.4920748   6.0744971  70.5081701  68.2038450 100.7691956  58.6671162
  68.5483027 101.6545486  58.5499573  68.0716228 100.6866646  59.6115398
  23.7674332  68.9936638  75.6930065  23.1146383  68.3521271  75.9732246
  23.2534194  69.7463608  75.4006481  55.8441008   0.6627196  48.8133430
  56.6296745   1.2078208  48.7689257  55.9504152   0.1544398  49.6174431
  39.8589683  84.5988083  74.4013405  39.9574447  85.5312824  74.2089462
  39.8451757  84.1771317  73.5421371  16.7535555  66.5081453  48.8708973
  17.3576772  65.7832718  49.0316105  16.5844345  66.4747190  47.9293489
  17.4775708  84.8464870  73.5724449  17.5420058  85.5503654  74.2179155
  18.3824241  84.6803284  73.3081245  39.6219158  78.0474281  62.2416258
  39.5342875  78.7386370  62.8979683  38.8662601  78.1663179  61.6662312
  34.7792816  98.8516140  51.1273146  34.6438694  99.3353367  50.3125095
  34.2806435  98.0428123  51.0113859  25.1705241 104.0704346  59.6380186
  24.4651532 104.3916988  60.1996946  25.2310824 103.1367397  59.8399401
  41.3803339  90.1729012  83.6843300  41.2923145  90.0599957  82.7378941
  40.9358883  91.0002518  83.8691998  56.1877918 100.7554913  60.7617235
  55.9449053 100.8809853  59.8443937  56.6316414 101.5678501  61.0052490
  51.9156599  89.0295601  22.0298195  51.7415094  88.2424450  21.5137196
  52.4655771  89.5706654  21.4632297  34.5874023  80.8482933  22.6898932
  34.3947601  79.9787617  22.3391318  33.7283111  81.2273312  22.8756905
  75.8634830   9.8043746  38.1267595  75.7696033   9.5551318  37.2073603
  75.1192761   9.3908328  38.5642195  66.6269422  10.4246253  47.9388142
  65.8618165  10.0321025  47.5184107  66.6737676  11.3082809  47.5738668
  47.4587011  87.1878052  57.2750711  46.8551159  86.9455338  56.5727758
  47.6585960  88.1095409  57.1117496  16.1680102  61.9279242  75.7923985
  16.1048341  62.1240091  76.7271662  16.8828321  61.2945557  75.7283115
   5.4467058  70.5545521  40.6406546   5.5710924  70.8238411  41.5507317
   6.2832671  70.1623869  40.3904438   2.7889630  69.4977617  48.1644630
   2.2087036  68.7824678  47.9039145   2.3072454  70.2925301  47.9352903
  73.9284969   1.2621039  79.5535564  74.2683483   0.9225005  78.7256670
  74.6995426   1.6022223  80.0074768  31.9249606  74.9488688  55.7006788
  32.1760106  74.1167879  56.1017370  32.4760485  75.0147724  54.9208164
   3.1400663  51.7935562  51.2860394   4.0541363  51.5143156  51.2337828
   2.6557246  50.9920597  51.4841366 108.1838945  88.0166817  64.9242210
 107.8129998  88.7549114  65.4076290 107.8573638  88.1268406  64.0312052
 111.7065002  77.0288174  22.6088619 112.4202372  77.6665013  22.6219940
 110.9468485  77.5128739  22.9326534  24.4485855  41.0447645  36.2754035
  24.3079400  41.8279362  36.8074608  25.2958465  40.7069683  36.5657043
  25.0239563  67.1495438  82.7617645  25.9009147  67.4522877  82.9973888
  25.1722455  66.3302040  82.2896099   6.1564773  74.7399330  64.7235966
   6.2681031  74.3282080  65.5804825   5.8233202  75.6154919  64.9201393
  40.3957701  80.1487923  33.7928033  40.9887743  80.6740379  34.3301082
  39.5349002  80.5442905  33.9296079  42.1282005  90.6575108  77.2484159
  41.5464878  91.1453438  77.8313923  41.6096067  90.5155277  76.4564991
  27.5686669  68.3471203  82.7637005  28.5030675  68.5242176  82.6552582
  27.2652316  69.0240049  83.3686638  40.6957054  74.0948725  57.0865011
  41.3009596  74.6097946  57.6201248  40.1540375  74.7469807  56.6419983
   5.2885324  70.6226587  65.8721781   4.8575941  70.9367132  66.6670990
   5.1959676  69.6706820  65.9096956  87.5421382   1.4136046  30.5176115
  88.2165862   2.0365352  30.7883763  87.0154525   1.2737578  31.3045549
  35.4982185  96.3240814  76.5960073  35.3715420  95.6479073  77.2615767
  34.6156096  96.6430473  76.4076042  46.4591694  77.0971823  69.8499155
  46.9979906  77.7501059  70.2966738  45.5599499  77.3298597  70.0812197
  76.6277149  24.7367375   0.4157829  77.5400446  24.4546597   0.3500748
  76.1680880  23.9787810   0.7769966  36.0053468  68.6440802  64.7141552
  36.1202526  69.1426706  63.9051819  35.9742069  67.7305317  64.4300890
  31.4723897  72.8184223  49.3739080  32.0283365  72.9955721  48.6151075
  31.9415498  72.1415806  49.8617649  41.3074350  94.7634792  37.0902300
  41.8963337  95.2760792  36.5364599  41.3656044  95.1788902  37.9506254
   6.4664382  93.0311966  21.2269998   5.6477404  93.4855461  21.4258265
   7.1283513  93.4948349  21.7399740  29.5595503  93.6924744  35.1674199
  29.6619463  92.7809525  34.8937750  28.9424992  93.6552811  35.8982372
  56.1299992  75.4025984  29.9057913  56.1167192  76.3466120  29.7480059
  55.2733803  75.2115440  30.2878046  19.4142401  59.0154743  86.0560989
  18.7009537  59.6083307  86.2926769  19.1897047  58.1884527  86.4825439
   2.9349628  69.7270250  40.9231329   2.9542083  70.2421904  41.7296505
   3.7265232  69.9887133  40.4528332  34.6904063  32.8052640  78.0796862
  34.3992543  31.9901347  77.6709986  35.0999904  33.2970786  77.3679352
  56.6449404  72.4252081  71.3372326  55.8411312  72.4011040  70.8180523
  56.9053030  73.3463049  71.3329458  50.2031029   9.1632670  45.7501411
  50.3315354   9.7286624  44.9885225  49.2698813   8.9508170  45.7360744
  53.5426807  89.0080929  76.9715071  53.9615583  89.6153069  76.3615465
  53.6172009  88.1531811  76.5474749  25.4437637  69.0968418  22.8103280
  25.1338339  68.1913328  22.7950215  26.2625909  69.0781355  22.3149467
  40.8158302  99.7041035  45.8741093  41.7561769  99.5800591  46.0029459
  40.6737137 100.6376457  46.0307693  14.2725444 102.3332024  65.3538465
  14.8294139 101.6320419  65.6922197  13.9895022 102.8114796  66.1331892
  30.4627466 103.3604622  64.1258955  29.5092058 103.3007526  64.0673733
  30.6250501 104.2136002  64.5284367  24.2138982  87.7807713  30.0439310
  23.6029315  87.0715332  29.8440909  24.9522376  87.3473644  30.4720068
  36.8851185  76.1440849  59.3395805  37.7950883  76.2549973  59.6150541
  36.6082525  75.3255892  59.7514582  20.9169197  67.5513744  58.6871195
  21.0489297  66.7384386  59.1749144  21.4442968  68.1993437  59.1542768
   6.9200742  82.9554558  34.1823411   7.1823651  82.2995377  33.5364270
   6.6559929  82.4453545  34.9480391  50.2634525  89.1907978  46.0477734
  51.1578560  89.2756844  45.7175159  49.9271345  90.0868607  46.0614681
  28.2138681 104.6406078  33.4518456  28.1106901 104.0304279  32.7215910
  27.6436138 105.3770065  33.2310486  62.4836111  87.9765129  53.7762403
  63.2745457  88.4361553  54.0579987  62.2079849  88.4376526  52.9840183
  32.0182014  62.9413509  59.8936987  32.4258256  63.4306812  59.1791153
  32.2354674  63.4410715  60.6806612  58.7755823  94.6325111  64.6213722
  58.6223316  95.5728340  64.5289183  57.9508972  94.2278481  64.3523693
  26.6416574  82.1904755  63.0943537  26.0734844  81.4384174  63.2611179
  26.6376162  82.2872066  62.1420622  11.4420712  30.4366302  22.1333814
  11.4766836  30.7023382  23.0523109  10.9902954  31.1563659  21.6928005
  59.1750717  68.2282782  60.4993582  58.5722589  68.9429426  60.2941561
  60.0228310  68.5284519  60.1715946  32.1871185  44.1964722  58.3944893
  31.8615198  43.4196711  58.8492441  32.6344228  43.8516808  57.6216555
  45.9565258  84.8584366  52.8713989  45.2102757  84.5271015  53.3709621
  45.9726572  85.7969284  53.0590153  59.0136337  66.5630817  58.2390547
  58.9542198  67.0934772  59.0336514  58.8153982  65.6729412  58.5298729
  97.1756984  22.0861835  58.4296846  97.1519900  21.1323565  58.5064125
  98.0950738  22.2898692  58.2579565  19.8110843  72.4674273  35.1337862
  19.4841468  71.5711451  35.0562024  19.5291317  72.7507830  36.0035229
  62.2726179  12.5889033  55.5949116  61.6010929  12.5015277  54.9184132
  62.0836569  13.4290523  56.0128546  46.8106413  88.1440067  77.9760408
  47.0429897  89.0655899  78.0897284  46.0187912  88.0300426  78.5016060
   2.2362666  79.8379707  76.1312389   3.0364883  80.2679253  75.8295536
   1.5496956  80.1813889  75.5594730  45.6151581  81.3362217  63.8937569
  45.7909536  80.3974342  63.9569569  45.2824545  81.4582729  63.0045748
  49.9142218  79.6796036  69.6280527  50.0351381  80.3436565  68.9493465
  50.7735395  79.2670536  69.7152853  46.3192368  79.0139723  65.4279375
  46.8191862  78.4134007  64.8751354  45.6374168  78.4678936  65.8192921
  58.5719777  15.6998271  50.9504223  58.5530067  16.3804168  51.6232347
  58.9496446  16.1312217  50.1839399  92.3797354  67.0351410  64.7673941
  93.2163772  66.9069767  65.2144241  91.9169316  66.2052393  64.8827744
  89.2520524  46.6154403  44.7868538  88.6536504  46.3737887  45.4937887
  88.6806203  46.7949885  44.0402222  45.9186459  77.4753141  61.5266371
  45.1553345  77.8580570  61.9591808  45.5685854  76.7303562  61.0380411
   6.4356136  55.9965134  73.4754801   5.9146595  55.9307957  72.6751566
   6.0565597  56.7377663  73.9478111  27.6095295  57.5043058  41.1690712
  28.1172085  57.8026247  40.4144192  28.0847430  57.8446198  41.9270849
  29.6005893  60.0486994  74.0942335  29.9759531  59.7497129  74.9224472
  29.8998547  60.9538651  74.0085506  65.6944275  70.4623890  63.3168459
  66.4231443  70.1358700  63.8446569  66.1045361  71.0417461  62.6746702
  45.6969690  74.3211699  68.6707163  45.7976580  75.1974344  69.0425396
  46.3665962  74.2720747  67.9884958  40.6656361  62.8724432  56.8165636
  40.6478357  63.5800362  56.1721802  41.5652418  62.8688478  57.1435499
  11.0704760  69.8128502  27.3521900  10.2580886  70.1279729  26.9560051
  11.6937785  69.7798150  26.6264915  49.6781111  76.2547541  55.8103180
  50.0470448  75.6011152  55.2162838  48.7729168  76.3605642  55.5176497
  85.8053971   6.0970801  50.2740526  85.6063987   6.5324611  49.4451475
  85.2631713   6.5509528  50.9192038   0.7492225  97.8336334  49.7058868
   1.5878353  97.7318668  49.2557716   0.0932501  97.7295208  49.0166140
  13.5755122  82.1422482  56.9664240  14.1314101  82.9208469  56.9979191
  14.1741991  81.4293575  56.7437267  59.6052409   3.9408416  56.1184597
  59.9909831   4.7693271  56.4031553  58.6638094   4.0590209  56.2448215
 109.0203334   2.1851272  87.0845604 109.6469308   2.6457805  87.6425838
 108.1639672   2.4171371  87.4437809  13.8169765 103.1914043  55.7892847
  13.5115588 103.2532024  56.6943407  13.2998157 102.4808407  55.4099703
  39.7689414  61.6434383  64.1004181  39.0658641  61.8041229  63.4710598
  40.5640984  61.6123009  63.5684490  19.7013474  89.7340298  85.6881809
  18.7847185  89.6047497  85.4446411  19.6977997  90.5294323  86.2206650
  45.1631784  89.5827866  44.1313934  45.9957552  90.0539589  44.0991306
  44.6681833  90.0184059  44.8252630  18.5805106 104.3344784  65.9635735
  19.2914212 104.3302727  66.6045284  18.0983245 105.1409817  66.1459827
  40.9006786  66.2826157  54.6047354  41.7506981  65.8617735  54.7335386
  40.3661919  65.6158400  54.1734982  53.4386826   7.3372954  45.7799435
  53.6859883   6.5751952  45.2562237  52.4825574   7.3561877  45.7387114
  22.9094291  83.3603764  46.9342232  23.1974006  84.0996838  46.3987541
  23.3640218  83.4774017  47.7684212 101.8367693  70.8565187  37.9725623
 101.0622558  71.3475800  37.6982999 101.5516028  69.9427986  37.9777861
  44.8616123  63.2172537  20.4571700  45.7572603  63.5491467  20.5195999
  44.5898533  63.0889082  21.3659644  33.8827348  59.0423059  70.0654030
  33.9360452  58.1345987  70.3644943  34.3405104  59.0447712  69.2247677
  21.7629766 103.3478642  29.5990491  21.1834002 104.0718937  29.8359179
  21.8369627 102.8285122  30.3996944 107.9794809  65.5818129  81.2754822
 108.1556794  64.6670628  81.0554409 107.3901126  65.5377913  82.0284367
  34.2194104  62.2245312  36.2627459  33.7658787  61.7401743  35.5728602
  35.0745273  62.4330235  35.8865309  39.4351792  97.3677063  74.0231276
  39.1102767  96.5556049  73.6343193  39.6722341  97.1264553  74.9185801
  75.3408314   2.5215739  65.4489231  75.3041483   1.5666121  65.3947115
  74.6235371   2.8209132  64.8902512  53.3275652  97.3099422  56.3041878
  52.8265572  98.1126595  56.4486265  52.9701519  96.6873360  56.9373178
  -0.1870320  94.9205208  43.1462240   0.0545866  94.6257877  42.2681713
   0.3334760  94.3732452  43.7342644  20.5650210  61.8326902  45.1280642
  20.7239437  61.8524742  44.1843557  21.4387703  61.8510485  45.5185223
  88.7972447  71.4285994  72.3411512  89.5661852  71.9675064  72.1553040
  89.0735885  70.5365086  72.1312809   5.7980430  92.1895790  65.4311895
   5.4977310  93.0365753  65.7608080   6.2539721  91.7918968  66.1729479
  45.5189180  85.4587173  75.8653879  44.7027922  85.0124645  76.0912704
  45.5022240  86.2644291  76.3818932  22.1360326  39.5093322  80.2967644
  22.1231318  38.5522223  80.2985382  21.5449405  39.7555137  79.5852613
  50.7970905  89.4650841  73.0658674  50.2190733  90.1389122  72.7079868
  50.3029680  89.0874481  73.7935066  79.2375565   1.1334723  13.8878870
  79.8865128   1.4648456  13.2671809  79.3337775   1.6945666  14.6573949
  61.8653202  88.3964729  46.4185762  61.7263508  87.6431274  46.9924974
  62.7536583  88.6905003  46.6201639 111.3383000  79.5795107  57.3064470
 111.5593458  78.7167597  56.9556856 112.1796413  79.9556494  57.5650883
  32.8883815  87.7149200  28.6957574  33.6067271  87.8648567  29.3103552
  33.2404304  87.9809856  27.8463435  46.1316967  87.3687077  53.9537191
  45.3979683  87.6443577  54.5031595  46.2050581  88.0547523  53.2902431
  64.6025324  70.6578922   1.3491987  64.2604828  69.9064922   1.8335912
  64.1390944  71.4106560   1.7163563  18.9661133  82.8255653  78.6151886
  18.0295742  82.8481007  78.4186697  19.0227067  83.0668545  79.5397520
  31.8901825 100.4803371  52.3005342  32.4653959 100.2733135  53.0370808
  32.4337745 101.0041046  51.7119646  43.6433506  95.5173492  78.4417534
  42.9622984  95.6336498  79.1042280  43.5471869  94.6087646  78.1563425
  24.5567131  94.7600460  72.3429966  25.4906249  94.7790146  72.1339989
  24.5064235  95.0787640  73.2441711  20.6785631  85.8248711  41.6069698
  19.9502349  85.8249092  42.2280741  21.4582205  85.7190895  42.1521091
  96.5832755  94.6901321  58.3453369  96.6517791  95.4769707  58.8861084
  97.4706969  94.3316746  58.3305359  36.9625139  78.9729834  31.5188670
  37.2851920  79.7967815  31.8842006  36.2001872  79.2245007  30.9974933
  33.4342122  52.9742050  81.4515018  34.0831923  52.7698278  82.1247673
  33.9526749  53.2370281  80.6910038  22.0496368  81.5812302  69.4681883
  21.1372948  81.2947369  69.5104313  22.1862507  81.8108940  68.5490417
  40.8983755  93.1914520  53.4325504  40.0926971  92.7525616  53.7054920
  40.6818962  94.1236305  53.4525061  37.7176213  80.2169323  48.7574625
  37.5355768  79.5869923  49.4547939  37.3057437  79.8394918  47.9802084
  41.4110994  91.5332317  19.4938266  40.8327866  91.2606525  20.2062082
  41.0278368  92.3496819  19.1732740  51.2712193  71.6425467  65.3575850
  50.8460426  72.1655989  64.6779728  51.6853571  72.2868395  65.9317017
  87.9068757   9.7532100  40.7618141  87.3604346  10.5248374  40.6127596
  87.7010585   9.1693229  40.0317764  74.3838073   8.0535048  65.3686905
  73.7208844   8.3989448  65.9665442  74.7496129   8.8288039  64.9428606
  48.8350868  67.5404358  59.9338198  49.2784262  68.3042574  59.5646906
  49.1558933  67.4891996  60.8342028  16.8889892 100.6788349  79.1604424
  16.2534106 100.4068565  78.4983969  16.3951755 100.6797600  79.9804258
   7.1314621  81.5356064  89.7281456   7.9478812  82.0315933  89.7889042
   6.9886345  81.4236164  88.7883091  36.6950583  77.3489285  56.9413376
  35.9094095  77.4527884  56.4044952  36.4363766  76.7343283  57.6280594
  18.7462783  93.3466244  66.8557835  19.1854095  93.8566208  66.1751223
  17.8493464  93.2445526  66.5374660  35.3757516  18.5512370  51.2619019
  34.7202391  17.9447288  51.6063976  35.2273452  18.5525245  50.3162766
  66.0058428   1.1375827  58.0058336  66.3547588   0.2659339  57.8195095
  65.2272821   0.9750957  58.5384417  64.1203451  78.6665106  84.6139145
  64.1601706  79.3444395  85.2884960  63.4468889  78.9724350  84.0063763
  31.1707520  64.5379353  67.1774197  30.6976151  63.8325834  66.7359972
  31.8702269  64.0938187  67.6567173  27.1110153  82.3190498  60.1734924
  26.4693213  82.6905155  59.5681190  27.8367448  82.9431438  60.1658773
  23.7477326  68.4049702  70.5822515  23.6423159  69.3295956  70.8062935
  23.1623864  67.9445744  71.1836147  95.3835345   2.2405929  50.1559925
  95.0118447   2.4662990  51.0087109  94.6818352   1.7703551  49.7057343
  29.6181302  19.9961035   4.7539902  29.3811850  19.3192666   4.1199780
  28.9553647  19.9234955   5.4407978  39.2493534  82.2577858  72.2410488
  38.8746691  81.3976574  72.4308586  38.5776639  82.7029133  71.7244005
  70.9477758 102.3939133  61.9010592  70.2169800 102.6089573  62.4806452
  70.8984661 103.0454636  61.2015772  17.3177314  52.5403166  42.9456997
  17.5605595  51.6179705  42.8648090  18.1495798  53.0117846  42.9012156
  26.0599089 101.7767429  26.4423013  25.7767940 102.6911163  26.4392304
  26.7579746 101.7443562  27.0964313   7.1732891  78.6165190  38.1509137
   6.6562617  77.8235912  38.0088568   7.3923343  78.5959244  39.0824866
  25.2760386  92.4678040  58.7192631  26.2201166  92.5792599  58.8311863
  24.9039626  93.3144283  58.9662647  92.2360715  93.2611465  27.3302293
  92.6082012  92.4399185  27.6516771  92.6632807  93.4032631  26.4855218
  12.9987478 103.6908531  70.8691549  12.2420883 104.2576122  71.0191011
  13.1550157 103.2711506  71.7151260  97.6412345   9.4572085  42.7527666
  96.6968489   9.3063087  42.7128315  97.8235245   9.5894641  43.6830950
   4.5440206  86.3021660  62.7944803   4.3917903  87.0048237  63.4264040
   5.1540291  85.7111263  63.2358313  33.8636899  52.3830891  78.4560919
  33.2280016  51.6702366  78.5191488  34.6363044  52.0565033  78.9172268
   5.6430662  69.5829582  56.0680580   5.6126946  70.1394463  56.8462801
   5.1870471  70.0877810  55.3946829  38.5676742  81.2131882  78.2095623
  38.0457115  82.0085049  78.3156252  37.9432106  80.4984951  78.3340359
  35.2548957  52.9313183  39.0444493  34.3363452  53.1701946  38.9202046
  35.3695798  52.9066706  39.9944353  83.9996577  -0.1658708  36.6642404
  83.4315444   0.5231017  37.0089293  84.6929599   0.3046149  36.2014151
  51.2746000  91.3365269  65.3141975  51.7181253  91.9441223  64.7222996
  51.8576479  90.5788040  65.3605986  34.3488693  54.7260332  55.2371931
  33.7432981  55.4284620  55.0003195  35.0785851  55.1732874  55.6658125
  69.0962649   3.9925403  72.8409672  69.8059774   4.5736999  73.1144619
  69.3854309   3.6412353  71.9988298  17.2402287  62.7471781  41.4546680
  16.8326998  62.9772520  40.6196737  16.9521594  61.8499327  41.6226053
  44.5591354  77.1547937  58.0716133  44.8325872  76.5827131  58.7886763
  45.3521013  77.6345062  57.8322124  92.8563119   8.0053920  80.3532887
  93.3935071   8.7512511  80.6204128  92.4004985   8.3076495  79.5677233
  20.6672382  65.5577517  46.2977457  20.9197068  64.8831749  46.9281721
  20.6766033  66.3717270  46.8013144  64.6538163   0.4702300  41.4956760
  65.5284310   0.1315421  41.6868973  64.7081495   0.7763118  40.5903578
  40.5954885  95.1665306  56.6727924  40.9887934  95.9568977  57.0427513
  41.3418484  94.6170044  56.4336300  31.6912317 105.2936268  89.9673271
  31.9247031 104.6645451  89.2846966  31.2070918 105.9786701  89.5062828
  30.4991126  62.8945637  44.9169397  30.1221657  62.5067091  45.7066917
  31.4224839  62.6438189  44.9442291  29.2550182  62.9985428  62.0947075
  29.2921066  62.1813679  62.5917816  29.5480585  63.6682701  62.7126312
  18.4018219  83.5622692  45.8311796  18.6506820  82.8865528  45.2005434
  17.9397345  83.0869484  46.5216732  28.5124063  64.7488260  44.0593624
  28.9978552  65.3159714  43.4602690  29.1868830  64.2288494  44.4963264
  42.8652859  84.5729828  71.5989828  42.6400232  84.5274258  72.5281811
  42.0213175  84.5677280  71.1473989  37.1651268  76.2199497  37.9723501
  37.8484797  76.8804741  37.8584814  36.7663288  76.4309740  38.8165426
  78.3807220   8.9660781   3.9997101  79.1959186   8.6472457   3.6123657
  78.4226040   9.9168437   3.8971424  25.1531720  90.4945755  41.4242315
  25.5975533  89.9899769  40.7429504  25.8047152  90.5836010  42.1197844
  83.5858680  16.4997310  31.9704628  84.3637896  16.9890136  32.2381711
  83.9269257  15.7776755  31.4426851  72.6395989   0.5567664  81.9826221
  73.1307746   1.1582774  82.5422287  72.8348566   0.8455390  81.0911560
  39.6494586  44.1312427  62.3544884  39.7531036  44.7327537  63.0918312
  38.7051607  43.9866656  62.2942448  38.1138372  85.9385395  58.1487799
  37.3056531  85.8267879  57.6482010  38.6978197  86.4138889  57.5578117
  36.6213655  88.4891319  51.5661049  36.1659217  87.9454422  50.9232950
  35.9308839  89.0203857  51.9626379  63.1872463  97.5496769  39.6418047
  63.6541319  96.7511463  39.3956232  62.4077940  97.5523376  39.0862131
  65.7800817  95.2896595  65.2675962  66.0549736  95.6904125  64.4429350
  64.8684883  95.0380898  65.1194715  39.0958619  78.4104919  52.9313135
  38.7807202  79.3096638  53.0229902  39.7956967  78.3346653  53.5799360
  47.6434065   1.1279601  56.7091942  48.4177447   1.5616149  57.0677614
  47.5868262   0.3024405  57.1903992  33.1578970  88.9010715  54.6704912
  34.0656948  89.1107559  54.4510221  32.6520705  89.2115974  53.9195299
  28.3264542  39.1022372  58.2355547  28.7845278  39.6881723  58.8381195
  28.7407804  38.2497478  58.3690691   8.8203293  97.6732731  86.5497112
   8.9888996  97.0430660  85.8492470   9.4252342  97.4227619  87.2479725
  41.3875484  86.5231705  26.2947488  42.1159506  87.1012402  26.5216780
  41.7799473  85.6514931  26.2454295  56.6729213  20.0593776  38.2649851
  56.4135528  20.9768027  38.1795287  56.1565638  19.7321147  39.0015292
  31.8649173  70.8739901  66.7696905  32.3745489  70.4047298  66.1091566
  31.5986967  70.1972771  67.3921251  16.4618766  89.5315361  76.4817953
  17.0024347  88.7417984  76.4631128  15.8991075  89.4548512  75.7113123
  46.9240665  84.0852928  77.9408216  47.5674343  83.6512470  77.3805428
  46.7101097  84.8948860  77.4771261  22.7303600 103.9633083  53.6238003
  23.2356286 103.7084103  54.3957853  22.5321341 104.8894501  53.7623644
  49.1020334   7.3596210  49.2560434  49.7854341   7.2301692  48.5984421
  49.4485987   8.0424041  49.8304319  19.9735880  97.5331306  84.2606544
  20.6889796  96.9558716  84.5275211  19.3701816  96.9624710  83.7847519
  91.7878820  56.7608826   1.6939831  91.1735286  56.0421937   1.5446663
  92.4663545  56.3835614   2.2539330  23.2202935 104.1940212  49.4385815
  22.5713348 104.4653320  48.7893677  24.0210485 104.0546322  48.9330196
  95.1317549  12.4167651  64.9261999  95.3856040  11.5044707  64.7864914
  94.1806508  12.3875159  65.0300169  67.9398418   3.6623878  79.7872400
  68.4345580   3.1310767  80.4110909  68.6083389   4.1424674  79.2984915
  35.4378915  96.5143490  60.8009386  34.6122694  96.0471630  60.6732273
  35.8023047  96.1416245  61.6037512  43.2130718 104.7979832  74.0341043
  43.5421371 105.6652260  74.2703676  42.3974895 104.7087669  74.5271587
  54.8618437  16.6232318  23.9780188  54.2150844  17.0723742  24.5222664
  55.5955256  17.2355575  23.9233184  59.1051817  98.1276894  36.9192719
  58.8694334  97.2211552  36.7221594  59.2053699  98.1475925  37.8710079
  79.5196009  13.6341113  77.0113945  79.9337531  13.3058471  77.8094912
  80.0273419  14.4120425  76.7806244  29.8888850  95.7370567  87.4669838
  29.4569135  94.9028301  87.2834015  29.1725087  96.3373661  87.6735497
 111.5432750  78.6855268  60.8157110 112.0397274  79.4306183  60.4771709
 111.2634516  78.2091284  60.0340605  64.3552828  90.4689884  23.1121707
  65.1420259  90.3503323  23.6443210  63.9883757  91.3015938  23.4094453
  80.3031541   2.2390574  48.5642910  80.1805640   1.8912429  49.4475937
  81.2504483   2.2191638  48.4283733  36.6200638  99.6964455  44.2053318
  36.6440392  99.3185902  45.0844717  37.4900603  99.5224857  43.8460636
  76.4187217  13.1123275  62.8132296  76.3352586  14.0547008  62.6675940
  75.5373932  12.7684611  62.6674747   4.6932566  79.6203470  81.6832161
   4.0508723  79.7523689  80.9859848   4.1924918  79.2298841  82.3994637
  39.3998647  90.3457737  63.1108189  38.5983777  90.7825851  63.3989954
  40.0956631  90.9773159  63.2931566  10.0365261   1.3695640  53.0648565
   9.3336395   1.9170207  53.4148216   9.8482326   1.3076705  52.1284008
  56.5694619  18.6641044  50.7110214  56.5479983  17.9794616  50.0424147
  56.4667345  18.1940764  51.5385151  99.9687482  12.4022311  84.2007065
  99.9663544  12.2290534  83.2592964  99.6645928  13.3064670  84.2786694
  11.6375880  60.5726616   5.0794506  11.1209254  59.9623673   4.5533085
  11.3004498  61.4369576   4.8437214  91.7748690  12.7635974  49.5012856
  91.9447041  13.2154292  48.6747026  90.8494139  12.9306144  49.6797895
  51.4737762   9.8658675  58.9540911  52.3695148  10.1800460  59.0772676
  50.9448040  10.4188174  59.5291185  53.6058950  95.3827190  66.2524462
  53.8814974  95.2554703  65.3446531  53.2713032  96.2791729  66.2777519
 110.2322150   6.6868896  76.2717199 110.6677819   7.4821204  75.9649324
 109.6753264   6.9816035  76.9923067  25.2539639  75.2758305   9.1416550
  25.2770095  75.9475987   9.8231411  24.4984965  74.7326367   9.3662357
  77.1224952  16.2209815  55.5830622  76.6800714  16.6479033  56.3167000
  76.6269065  16.4959449  54.8116875  56.4236879  96.9532871  87.7366543
  55.6738091  96.3855934  87.9145145  56.1534071  97.4780750  86.9831467
  56.7897654 101.5928555  47.0911264  56.3496828 102.2553921  47.6236677
  56.1160326 101.2876987  46.4835072  28.1081796  80.8979702  70.3304815
  27.8792000  81.3256550  71.1556387  28.9676571  81.2546921  70.1062489
  77.9191733   1.3090056  83.2540798  78.5845280   1.8674106  83.6562347
  77.7406693   0.6371993  83.9121437  33.7088752  69.1390371  56.1715794
  32.7557945  69.0569782  56.2052441  33.9593863  68.6916876  55.3632736
  37.0296884  74.6889639  41.5338898  37.8332806  74.1989565  41.7081404
  36.6362882  74.8185492  42.3968363  67.4841595  86.5287018  62.1746874
  68.0124903  85.8961201  61.6879320  67.1387243  87.1183491  61.5044403
   1.0635023  38.4017937   6.6532135   1.3546281  39.3120568   6.7071152
   0.4934077  38.2872384   7.4135494  42.4009323  87.5944138  61.8844843
  41.6049910  87.6479149  61.3554716  42.0858908  87.4593353  62.7782011
  57.6477576  22.8107375  65.4433250  58.5639692  22.7566546  65.1715422
  57.4189854  23.7335128  65.3320408  58.8865376  22.3328990  56.4479399
  59.7757531  22.0630473  56.6775274  58.5228968  21.5832824  55.9766960
  52.6689029   7.7391166  83.0596733  52.1476985   6.9406528  83.1435394
  52.7042199   8.0963916  83.9470005  46.3840771 100.4062271  49.8135567
  46.6091728  99.8119068  49.0977812  45.5094004 100.7263947  49.5929432
  47.9271507  96.4687538  56.6199636  47.2145414  96.2394810  56.0234308
  47.5378513  96.4088249  57.4923706  28.7534308  88.9543438  60.3137445
  28.5191298  89.8065186  60.6813431  29.6825266  89.0339565  60.0976944
  42.6038790  92.7271748  59.7304344  42.5261164  93.4214020  60.3848267
  42.5482273  93.1825733  58.8903522   9.6004564  97.0477962  82.2700119
   9.6777666  97.9267788  82.6410007   8.9874357  97.1482563  81.5417576
  29.8617792 101.8811703  43.9136839  29.7921324 102.3688602  44.7343779
  29.0794587 101.3299179  43.8955212  34.7384048  92.8440475  42.6600504
  35.3019929  92.4662495  43.3352280  35.1487112  93.6822033  42.4469995
  39.9753761  99.8385143  51.3078165  39.3303466  99.3467236  51.8160582
  39.5656848  99.9563408  50.4507828  39.8653793  88.3494473  69.5863390
  40.4721689  87.9661369  68.9530039  40.2147007  88.0912304  70.4392910
  47.6676512  97.3297119  52.4299669  47.2405338  97.5258636  53.2638359
  48.0402517  98.1655407  52.1492720  25.8703041  57.6732922  83.5933685
  26.7843175  57.9560232  83.6229610  25.3901935  58.3672190  84.0452480
  64.0533209  77.5183964  45.6567287  64.9550104  77.3239040  45.9123993
  64.1262913  77.8680801  44.7686815 100.6851578   9.8701495  80.6636047
 101.0594416   9.7813529  79.7870970 100.6931449  10.8121795  80.8331394
  93.4793664  16.8985957  31.6006994  93.7673665  17.5498981  30.9610963
  92.6591302  16.5583724  31.2433600  12.3875594  81.6880703   7.9189736
  13.2364655  81.2495899   7.8612757  12.0308137  81.4092827   8.7623250
  45.4337883  87.0017529  39.7043705  44.9560690  86.1736870  39.7524428
  45.2263212  87.4460316  40.5264473  56.1825943  77.9928875  52.6549864
  56.2662029  77.6713419  51.7572975  55.9135246  78.9063692  52.5581169
  50.8442307   6.0496253  90.4574203  51.6974366   5.6263179  90.5526924
  50.3412176   5.4526919  89.9034500  48.5114574  77.1511984  67.9958820
  47.9082680  76.9520950  68.7119532  48.7674093  78.0614996  68.1444263
  81.6632415  25.6645602  67.0721054  81.4463902  26.2895698  66.3803196
  81.4691592  24.8083228  66.6907597  58.2539750  15.6463450  68.3998585
  57.5248361  15.9423751  68.9447927  58.5453249  16.4342422  67.9409790
  14.6934371  51.6903679   7.1400642  15.5885892  51.3550751   7.1902084
  14.7976832  52.6319592   7.0030499  14.8249650  99.5014858  72.3887062
  15.4547000  98.8615131  72.0569038  15.2122164 100.3507614  72.1765661
  96.0104895  37.7023334  38.6375976  95.9578944  36.7578525  38.7839460
  96.1328173  37.7918071  37.6924729  89.9956322   5.0465030  57.3724174
  89.3655158   5.7007712  57.6742792  90.2880431   5.3707141  56.5205908
  63.2356405  85.1078415  57.2170591  62.3936319  85.5616951  57.1814394
  63.0219269  84.1921425  57.0380116  51.4668883  14.0717429  38.7866688
  50.9736551  14.6412677  38.1962490  52.3840321  14.2845649  38.6140847
  85.6471252  88.0092144  72.5910854  85.0520706  87.6044941  73.2222319
  85.9841824  88.7833405  73.0420351  36.7096925  84.6794510  37.6948380
  36.6590190  83.8071156  38.0855966  37.2269797  85.1909065  38.3169818
  70.1060081  10.2403564  32.5817204  69.4454456   9.7561568  33.0771470
  70.8706737   9.6646041  32.5758195  60.7434797  80.5348015  44.9828672
  60.0966597  80.0053501  44.5164585  60.2228594  81.1095428  45.5439806
  15.1337588 101.8928814  60.6103659  15.2305555 101.1159897  61.1611032
  14.5971560 102.4903679  61.1312294  79.8594428   4.6481055  77.3717642
  79.7452641   5.4526156  76.8658447  79.0358687   4.5462626  77.8488302
  49.5031691  94.8377514  21.7576146  49.9546814  95.1393700  22.5459003
  49.5942068  95.5614185  21.1377406  75.7371140   1.4478988  91.0010433
  76.1745549   2.2719974  91.2149143  74.8825742   1.5126533  91.4274216
  57.3569202 102.6603699  81.1757278  57.3269463 102.9921627  82.0730782
  58.1348038 102.1030712  81.1522770  63.0869675  89.2918873  35.1676559
  63.7309742  89.5671177  35.8201432  62.2595358  89.2571259  35.6476331
  99.8055650   3.9927501  57.1865988 100.2733470   3.1597823  57.1267414
  99.8945571   4.2520541  58.1036949   2.2920656  86.5072536  56.9812059
   1.8512200  86.3813496  56.1409473   2.6734406  85.6525898  57.1820259
 107.2432137   3.3485240  62.2179985 107.0362950   4.2809886  62.2807550
 106.5013362   2.9697722  61.7464066   8.2013851  95.1624584  47.7200794
   7.4965763  94.8628712  48.2942963   7.7986813  95.8442020  47.1822166
  63.5867548  87.3158646  76.4322710  64.0404224  86.7787933  77.0818663
  64.0334606  87.1230412  75.6079483  84.4239093  11.5684909  46.9539642
  83.7742425  11.6897506  46.2615347  85.0016022  10.8809394  46.6226387
  41.6537046  81.3988495  50.4758263  41.5391350  81.6407490  51.3948441
  42.0812559  82.1581841  50.0797939  61.6081285  61.8173838  78.2027578
  62.1990061  61.9972706  77.4715042  61.0456705  62.5903320  78.2519388
  61.6139127   5.4401416  77.9066372  61.5044428   5.7665652  77.0134974
  60.9978414   4.7104854  77.9721642  35.8602357  70.0673771  61.5866137
  35.4800439  69.8336554  60.7398176  36.7119551  69.6306515  61.5954876
  54.0673018  84.8682213  59.5809603  54.8968887  84.4186783  59.4199038
  53.8769960  85.3213120  58.7595463 110.2332313  91.7784023  86.3563347
 110.5221450  92.6894188  86.4094353 110.7783027  91.3167572  86.9935226
  47.5028992 102.8586102  82.1205521  47.4480057 103.7850952  82.3547554
  47.0459700 102.7961254  81.2817764  61.1489344  90.3586197  42.0396471
  61.5611696  91.0248184  41.4896727  61.8211031  89.6852779  42.1446848
  29.1184354  84.8674297  69.2142487  28.6525345  84.9076366  68.3790541
  28.9248514  85.7041073  69.6370125  22.6745439  91.3340473  77.9951572
  22.4563861  91.2025166  78.9178371  23.1016803  90.5190182  77.7314901
  78.3642007  18.8442534  49.7488070  79.2508126  19.0436667  49.4481611
  78.4771252  18.1192893  50.3635359  78.3346463   6.2697524  30.6674099
  77.9378892   6.1763400  31.5334868  79.1632558   6.7202109  30.8308768
  50.9127498  14.8702163  83.0926132  51.8691171  14.8550529  83.0556965
  50.6541658  13.9555663  82.9794979  41.6135979  97.2178555  76.2564230
  41.3562012  97.8954124  76.8816471  42.5651121  97.1606445  76.3434601
  65.6603241 104.1926193  63.8987398  65.9220934 103.2807732  64.0261412
  65.3305292 104.2238998  63.0006933  71.9278742   4.8293895  72.6320124
  71.8127728   5.1666659  71.7436314  72.3408318   5.5487842  73.1096935
  94.7594596   9.9851722  36.2661743  93.9650584  10.4780978  36.4715648
  94.7459412   9.2453021  36.8733287  66.7604113 102.6829815  68.4948111
  67.2707033 103.1360817  69.1660261  67.4012041 102.4511051  67.8226137
  62.5177122  19.5316333  74.8275232  61.7689539  18.9901656  75.0773382
  62.8090788  19.1666430  73.9919901   6.5896229  27.6098054   3.3366394
   7.0382981  26.9138568   2.8564548   6.8016772  28.4088414   2.8541374
   9.3000225   5.8600539  60.4825640  10.1312164   6.0808963  60.0623512
   9.2689613   4.9035377  60.4640341  56.4698553  66.8626261   6.2080556
  56.8324900  67.7165365   6.4437801  55.5307627  66.9474697   6.3728082
  72.1152639  91.5024376  12.2950184  72.1853161  92.1226025  13.0207705
  72.9871130  91.1131096  12.2276545  53.1537771  85.2519226  88.9170933
  53.5990381  84.4162846  89.0573788  52.2220564  85.0338936  88.9413452
  70.4198265  86.5261269  88.6267471  69.6360016  86.4791107  88.0793476
  71.1397648  86.6346645  88.0053425  64.2407490  20.4661960  62.6238489
  64.7118307  20.9928626  63.2695484  63.5241795  21.0297126  62.3319340
  52.6628304  73.4234524  67.0133686  52.3298788  73.1961155  67.8815222
  53.5833263  73.6415815  67.1594334  62.7050352 100.9264469  64.6898985
  63.6453676 100.8068657  64.8229790  62.6368856 101.7245674  64.1658735
  47.9642057  97.3657131  46.3157082  48.3371019  96.6454601  45.8073664
  48.6841869  97.6648426  46.8710279  92.6310539  50.5506611  75.1413774
  92.4449921  51.2674618  74.5349026  92.7897263  50.9822941  75.9808683
  76.6757894  10.1078815  80.0865746  77.4914933   9.6337813  80.2480984
  76.2756062   9.6508903  79.3468189  41.7007113  94.0484142  24.0695429
  40.7726955  93.8930321  24.2452693  41.8614531  93.6155701  23.2310653
  71.4439822   8.0914420  82.4565983  70.9820820   8.8762492  82.7514839
  71.8637014   8.3541507  81.6374207  58.0422068 100.2894592  44.0066147
  58.8440657  99.8296547  43.7579393  58.3084011 100.8641148  44.7243500
  66.1286617   4.4640845  86.0336971  66.8512750   5.0177306  85.7378197
  65.6385017   4.2636317  85.2363300  86.7512465  28.9174193  42.9105806
  86.3817073  28.9333171  42.0277357  86.3637162  29.6765918  43.3461380
  87.7474234  82.1982002  65.1352501  88.5221478  82.6282597  65.4973125
  87.7892563  81.3041210  65.4745054  39.9891949 104.7664547  41.6773844
  39.8519564 104.6470547  40.7376289  40.9401131 104.7464085  41.7850208
  53.1897783  76.8573427  51.6396618  53.0565548  76.9235659  50.6940937
  53.9399815  77.4250269  51.8161821  13.9826834  74.8832035  44.4376659
  14.1236913  75.2425766  45.3135633  13.9234507  73.9375401  44.5734549
  64.8421813  13.6447543  55.1799583  64.4084597  14.3575973  55.6489754
  64.1452862  13.0109900  55.0099373  44.9642658  79.6722651  52.8437853
  45.9006453  79.8495626  52.7543736  44.6570635  79.5487118  51.9456816
  46.0667045  17.3238105  53.2209015  46.6306198  17.7599257  52.5821257
  45.3989363  16.8870849  52.6921368  48.3678413  55.7660216  17.1614933
  47.9450012  55.3117293  16.4327514  49.3049944  55.6736678  16.9898856
  45.8276737   7.6787395  83.6513615  45.1650829   8.0865401  84.2089462
  45.4127825   7.6190681  82.7908230  49.5182610  98.0674267  35.6334925
  49.6711063  98.1734943  34.6945477  49.4330931  97.1220589  35.7570052
  55.6175184  76.7255545  75.8308411  55.4877472  77.4839926  75.2614880
  55.7356930  77.0991087  76.7041826  46.5406322  98.6874008  59.4243431
  45.8788109  98.0753136  59.1025162  47.3541784  98.1830502  59.4229317
  85.3385783   4.9081821  72.2562027  85.8242560   5.7092875  72.4526501
  84.6194602   4.9030608  72.8879261  75.5542899   9.7563476  46.3229132
  75.3619314   8.9967746  45.7731104  76.3908053  10.0848311  45.9934139
  46.2079144 103.1428814  69.6188068  46.0987854 103.7835979  70.3215170
  47.0063019 102.6679420  69.8495674 100.9794626  83.0858231  89.5065880
 101.7745718  82.6268482  89.7774601 101.0286054  83.1064129  88.5508728
  44.7120619  61.1241722  65.5708981  44.8630285  60.3728008  66.1443806
  45.5632877  61.5584993  65.5160952  73.8144017  -0.0054532  56.7997122
  74.2086769   0.8501071  56.6300154  73.4220982   0.0797194  57.6686621
  56.5914965  83.0889416  67.1552563  56.3401604  83.5327530  67.9652500
  55.7924700  83.0816936  66.6282558  61.9223381   2.9438609  59.8712969
  61.8304086   3.8874549  59.7393560  61.3326169   2.7451438  60.5985975
 103.5318734  36.6114419   0.2433109 104.2709066  36.3743298   0.8035278
 103.1060006  37.3354428   0.7023239  96.9207288   7.6266688  78.1019163
  97.6562691   7.7282542  78.7059832  96.2132979   7.2756690  78.6428118
  57.7071071  19.6102637  26.5003133  58.2258034  19.3804854  27.2712803
  56.8311585  19.2756003  26.6925311  82.3630906  24.9459285  44.5841694
  82.1306992  25.5234546  45.3112745  82.9604197  24.3046493  44.9691343
   3.5670632  75.8366394  45.2807999   3.2106987  76.5864706  45.7572365
   4.4882920  75.8047915  45.5387831  74.6799732   2.2689551  55.9191418
  75.4053450   2.2608584  55.2946377  74.7473217   3.1192893  56.3534498
  62.5597095 104.7085667  54.3105125  63.3910608 105.0760937  54.6105385
  62.4574757 103.9026928  54.8168325  40.9738064  69.1898251  64.3089533
  40.1860428  69.4380856  63.8251877  41.5014219  69.9881077  64.3333578
   1.7933992  38.8802260  43.3137512   1.5377430  38.0869502  42.8430176
   2.7387194  38.9450568  43.1781149  50.3962946  76.0174322  60.7845449
  51.3303280  75.8212900  60.8576679  50.0305986  75.7603931  61.6309643
  39.9888253  97.4755096  47.2358418  40.2563572  98.0660534  46.5316248
  40.7638597  96.9405460  47.4072218  13.3504109  27.2133057  13.6752033
  13.7174849  26.3512652  13.4793186  13.6191945  27.7612679  12.9378223
  74.9922848   2.4071902  52.0581007  74.0867592   2.1110553  52.1505928
  75.3139783   2.4783820  52.9568100  68.6141420  31.1640471  32.6350856
  69.5281149  31.4292735  32.5323987  68.6374117  30.4775542  33.3017302
  25.1058877  12.0884246  72.8065872  26.0163415  12.2037715  73.0786180
  24.9810327  11.1396712  72.7839708  37.9540205  84.7512245  70.4209518
  37.6140380  85.6428432  70.4962206  37.1915269  84.2233562  70.1839066
  37.7275447  11.6222972  46.4658928  38.6839614  11.6591376  46.4539862
  37.4668423  12.3498744  47.0306015  10.8099318  77.9217672  54.1611433
  10.3379977  77.4454689  54.8442602  10.9940350  77.2618961  53.4926319
  81.8385554   3.3554572  16.7326677  80.9435845   3.2593459  17.0582700
  82.0937205   2.4713820  16.4689767   7.8698544  33.9373677  15.9778976
   8.3296160  33.3496659  16.5774441   8.5239749  34.1652291  15.3172588
  70.3610373 103.8481140  32.3493385  70.5981064 104.7509575  32.1374369
  69.4322252 103.7857723  32.1265030  38.3503962  93.7032223  34.6247745
  39.1466355  93.7649059  34.0971088  38.6545181  93.4108353  35.4839921
  74.2593528   8.5736293  27.6783013  74.4087411   9.2105407  26.9795442
  74.6119786   7.7531070  27.3338842  76.4918233  16.2682933  50.7586718
  77.1293355  16.1300677  51.4591742  75.7836533  16.7611808  51.1731339
 103.3445025   8.4218711  28.8566732 104.0875674   8.8439292  28.4254503
 102.9197455   7.9175490  28.1627917  25.3381924  46.1928361  11.6849327
  24.4362692  45.9449189  11.8881607  25.8544116  45.4160493  11.9002247
  99.1856003  89.1599274  24.7030687 100.0807381  88.9416695  24.4435906
  98.6369991  88.7684631  24.0233469  92.1308041   9.8907107  50.2596188
  92.3387719   9.8315162  51.1920786  91.6269494  10.7004184  50.1775312
  52.5743198  95.3979683  58.1125641  51.9228697  95.6993484  58.7458229
  52.9259872  94.5940018  58.4949255  38.8895607 102.9986286  60.2304649
  38.9807916 103.7273502  59.6165705  38.5216236 102.2878265  59.7054720
 107.3332263  21.3563365  31.6847444 107.1160126  20.6491202  32.2921181
 107.0370866  22.1516627  32.1274447  16.3990883  11.4428418  30.4995251
  16.7897086  11.8921607  31.2490368  15.5028252  11.7766516  30.4606342
 101.2242629  47.8235238  25.6557179 100.5064394  47.1965497  25.7444191
 101.3786699  47.8789799  24.7126770  35.1912427  79.0228939  64.5891571
  34.2538404  79.1054249  64.4139481  35.6069851  79.5919323  63.9414024
  66.4683199  64.0846443  75.2423048  66.5175915  64.9524593  74.8414278
  67.1581936  64.0878105  75.9058475   1.3599285  81.0241508  55.1256227
   1.6143470  80.5188560  55.8977509   2.1677630  81.1114502  54.6196413
  95.6194183  71.5359640  28.6417103  95.4161820  72.4713135  28.6349821
  96.4275727  71.4701128  29.1504169  60.6931830  31.6975516  37.9807377
  61.3798333  31.8421382  38.6317682  61.0826660  31.0889262  37.3529601
  99.9429513   6.5160865  53.5496283 100.8217479   6.3984603  53.9103413
  99.4335652   5.7952613  53.9200068  32.9559994  97.5696945  72.2610903
  33.6327171  98.2036781  72.4984789  33.0446744  96.8707848  72.9090834
   3.3884862  96.4701271  88.4839535   2.6833087  96.9467640  88.0460358
   2.9386783  95.8713531  89.0800858  76.6494370  31.6877479  40.8547211
  75.9019161  31.8453521  40.2780008  76.9599868  32.5624103  41.0887432
  58.1195308  14.3520278  81.3582420  58.5357548  15.1651591  81.0722351
  57.5974370  14.0727729  80.6061363 103.6537316  96.3402462  59.9367332
 104.0439335  95.8957291  60.6893158 104.3499413  96.3552666  59.2799997
  47.4605751  92.5398636  14.4066048  46.5626526  92.4621487  14.0842319
  47.5870895  93.4793949  14.5388925  96.5599371  67.9318230  19.5189285
  95.9027030  68.1806939  18.8690567  96.0511877  67.6773636  20.2887726
  55.1114368  94.7735786  54.9560881  54.2158890  94.9874592  55.2177811
  55.0100374  94.1003227  54.2832756  81.3594247  13.4410113  47.1736860
  80.4180241  13.5663432  47.0541763  81.7574263  13.8902682  46.4280367
  51.1425638  86.5728951  34.7903037  51.8016815  86.1878109  35.3678036
  51.5644503  86.6026020  33.9316082  71.7659593   3.4362620  28.6564589
  71.5756942   4.3369884  28.3942795  71.1206342   2.9084987  28.1860828
  45.8965921  91.5212727  51.8560410  46.1280632  90.7076836  51.4080191
  45.6666327  92.1260834  51.1506605  83.0090714  92.3930931  63.2967758
  83.9020157  92.5529957  62.9912949  82.4971581  92.2863770  62.4950409
  26.8829775 105.2134418  64.1502190  26.0057688 104.9241352  64.4012880
  27.0887661 104.7025394  63.3673620  10.7044864  89.9683189  69.2648458
  11.3709545  90.4085255  69.7923565  11.0443163  89.0821648  69.1403913
  79.6647896  62.1242039  20.4352474  80.5443717  62.4421399  20.2315807
  79.7925164  61.2084859  20.6830215  10.8552460  70.7147114  20.2839756
  11.7635779  70.6944172  20.5852318  10.3924994  71.2201779  20.9522629
  36.9787145 104.4305611  54.3809080  37.9201770 104.6033001  54.3745375
  36.6593409 104.8730183  55.1673365  11.4053158  39.2656319  11.5500355
  10.9314017  40.0970929  11.5675259  12.3199229  39.5140259  11.4157772
  99.2639399  11.8130416  58.2650185  99.3941689  12.7596778  58.3211851
  98.7777854  11.6860885  57.4502993  58.7413549  90.5147266  55.9441566
  59.5242357  90.0947094  56.3004017  58.9884996  91.4336872  55.8409548
  77.5621176  19.1839904  54.7359657  76.7196203  18.7594623  54.5740652
  77.9016639  18.7513846  55.5194187  60.2323890   9.8424644  46.1852646
  60.9427286   9.7941131  45.5454922  60.6087614   9.4831008  46.9886589
  57.1520853 103.7292862  31.2970185  57.1129274 103.9915562  30.3772831
  57.1264219 104.5538330  31.7825031   0.8307270  11.4641398  41.9701052
   0.7047609  12.0728892  42.6979733   0.3870586  11.8797511  41.2307453
  76.1899210  14.0179461  81.9194031  76.0570622  14.8676318  81.4991474
  76.3899828  13.4222716  81.1973286  80.1861954  98.6968708  53.8336802
  80.2538967  98.6471081  52.8801775  80.2126598  99.6339607  54.0270853
   2.0555691  23.2416076  45.0381231   2.8101019  23.2744235  45.6261969
   1.5637878  24.0389270  45.2347660  91.1999417  17.4543685  50.3400421
  90.5662680  18.1319446  50.5757761  91.2274409  16.8764323  51.1025858
  34.4758248 105.2806854  90.3357697  34.8883939 104.4188976  90.3935719
  33.5424304 105.0932026  90.2364731 101.1858559   2.5017184  46.7661715
 100.8884097   1.6857451  47.1685886 100.7637120   2.5129336  45.9071636
  59.2620659  92.5856876  73.1603813  59.6548748  93.3803654  73.5215282
  59.6912909  91.8711662  73.6309671  46.6418600 102.8601074  37.7472305
  46.7141533 103.7599277  37.4289107  45.9205008 102.4846649  37.2423410
  94.0354205  37.6496142  53.5996199  93.8688517  38.5725421  53.7911654
  93.2913495  37.3785132  53.0619431  82.9674626  21.4430732  39.6583438
  83.7308265  21.2969512  39.0996337  83.3355809  21.6667956  40.5131340
 105.2293874   0.2278155  54.2079258 105.5203248   0.3603095  53.3056879
 105.9794856  -0.1757413  54.6446466  14.0610412  31.5453261  69.0714741
  14.3108658  32.4374217  68.8306808  14.8518185  31.1719436  69.4606876
 106.8010283   8.9840716  24.5857620 106.3554002   9.8244876  24.4792485
 107.5425149   9.0279311  23.9820194 110.1721574   0.9431476  59.5888758
 110.5474044   0.1117057  59.8789167 110.4982043   1.5858096  60.2188873
   8.4363846  24.5160000   0.7073498   8.3150248  23.7640088   0.1276875
   9.0277772  25.0955765   0.2271652   5.1162247   2.2239036  54.8653126
   4.9832300   2.8867644  54.1876888   5.4948524   2.7057284  55.6006479
  58.9538170   4.7468871  59.7341061  59.5006872   5.0890178  60.4412889
  59.1815854   5.2828807  58.9744663  91.1697150  49.2292327  64.8594666
  91.6928769  48.4549636  64.6520090  90.2627278  48.9345473  64.7771645
  46.5172673  18.7405509  57.8392553  46.2905718  18.1514949  57.1196365
  46.3858689  19.6182937  57.4807453  93.4147263  13.7628097  51.8136501
  93.9016629  12.9646987  52.0189571  93.7751055  14.0545196  50.9762335
  97.6993848   8.1245059  57.2582293  96.7757607   8.3251876  57.4094915
  97.7783585   8.0631179  56.3062668   5.6168131  60.9230034  10.0241566
   5.3662305  61.6405194   9.4422436   5.1367383  60.1651375   9.6903801
  73.6848927 104.2938900  57.1020412  73.9612293 103.3935165  57.2729158
  74.3305635 104.6285725  56.4796877  77.0035076  64.0184450  80.8759022
  76.7862225  64.8261261  81.3413811  77.9596186  63.9787626  80.8985519
  76.5265156  12.2887343  58.1949282  75.7455922  12.1927184  57.6497936
  76.3988233  11.6636485  58.9085102  34.2685437 103.3149910  83.1953239
  33.6973071 104.0156364  82.8806591  34.0745115 102.5725937  82.6231098
  25.4702449  99.7429752  79.9303913  25.2666092 100.0139713  79.0352249
  24.8514628  99.0359211  80.1132107  58.9834118  74.5621061  47.2818899
  59.6614075  74.9985456  46.7660713  58.5581970  73.9672709  46.6641569
  87.8769637  26.6229552  77.1690226  86.9962550  26.8904609  76.9062901
  87.8584386  26.6446322  78.1257963  74.3720699  21.7206782  56.4836979
  75.2632595  22.0016879  56.6911745  73.8117076  22.3811549  56.8911171
 111.0835076  25.2225608  48.5499620 110.4412556  24.7540397  49.0830946
 111.0892440  26.1105651  48.9072418  98.3643819  27.3768443  30.2962327
  99.2201234  27.0999736  30.6237650  97.7509261  27.1257419  30.9867764
  59.9295568  85.0103474  64.5320845  59.9325943  85.5238533  63.7242842
  60.0870848  84.1109753  64.2447758  11.3742976  87.6656335  14.3916607
  11.8217234  87.9044526  13.5798645  10.6498723  88.2877820  14.4578266
  47.5663280 102.3466682  51.0719776  47.9702330 101.7754078  51.7252445
  47.1061945 101.7488766  50.4827785  67.7726746  97.3766422  81.8340492
  67.1547747  96.6546822  81.7191696  68.0511236  97.5973129  80.9452248
  87.9903746   0.1723117  57.2755861  88.3272553   0.9189338  57.7708530
  88.4557343  -0.5830556  57.6348829  19.0756992  17.1071929  54.5202398
  18.1480984  17.0996970  54.7563314  19.4763569  16.4620322  55.1028824
  79.1966725   4.3717498  73.7485743  78.4700871   4.4917697  73.1370974
  78.8805438   3.7163943  74.3705082 103.3845711  42.9242534  70.6069613
 104.2117930  42.7502936  70.1578712 102.7290822  42.4531764  70.0925159
  87.2386313  30.0928611  59.0760803  87.0165110  29.3740386  59.6678448
  88.1710101  30.2480430  59.2271328   5.7221798  16.9031543  43.3520317
   5.9060005  17.5865668  43.9965439   6.0400394  16.0976142  43.7598228
 108.4092046  13.0337161  73.6203051 107.7908564  12.7382964  72.9520178
 109.2610884  13.0129737  73.1843090  43.4924320  50.9502524  37.2885871
  43.6599831  51.7412585  37.8008866  44.3628792  50.6102294  37.0813847
  85.8584739  35.1462192  46.8583918  84.9495364  34.8777312  46.9924593
  85.9847070  35.8757228  47.4651241  93.1500340  27.4763984  87.5452614
  92.6955701  27.0150680  88.2501507  92.4599362  27.9608172  87.0921230
   6.3624481  15.0653857  54.9649429   6.8828968  14.2892856  55.1724052
   5.5335144  14.7171325  54.6365690  29.1832260  49.4020289   7.7606642
  28.5402397  50.1071948   7.8350490  28.6631493  48.5991496   7.7943242
  76.8137407  98.2397175  51.3412380  76.9211578  99.1862679  51.2477779
  76.9037056  98.0800724  52.2807312 111.1152745  16.4965362  34.7965479
 111.4467860  16.1998958  35.6440926 110.2538014  16.8651599  34.9920297
 111.6469005  71.9119263  79.4652557 111.3745937  71.4863110  80.2782345
 112.0367414  71.2088203  78.9457417  50.7567883  86.5386200  65.0710249
  50.3586721  87.2857666  64.6243620  50.5349064  86.6650391  65.9935331
   2.6581673  14.0890044  66.1746120   3.4097580  14.5611686  65.8162832
   2.0224480  14.7735805  66.3830566  80.9668685  16.6120357  44.8770189
  80.3022290  17.0029563  45.4441833  80.8042718  16.9979304  44.0162754
  96.5275718  32.7661914  37.5808644  96.4823724  33.3072871  36.7925715
  95.9110022  33.1754512  38.1879711   9.4774727  36.5144748  21.2193251
   9.7503475  36.3167686  22.1152520   9.4380669  37.4702949  21.1863542
  49.6056127  42.9081751  84.9063295  49.1603040  42.9692007  85.7514369
  50.5102300  43.1588103  85.0936234  83.0632211  29.2139453  81.8405437
  82.6619673  30.0528926  82.0672607  83.4274388  29.3511886  80.9660530
  84.7803497  93.1828117  25.9686732  85.2522850  93.5310745  25.2122188
  84.6796036  93.9331818  26.5543604  61.8243074  94.9489212  40.2835083
  61.9625711  95.1953506  39.3689656  62.4341583  94.2261696  40.4316425
  73.3774424 101.5712738  65.8928871  73.6843252 100.8480263  65.3461123
  72.4228287 101.5135765  65.8527088  67.9158974  11.7797965  71.6689157
  67.3391009  11.0953826  71.3296175  67.7747393  11.7644423  72.6155281
 108.2973042  37.7064323   1.1078847 108.6595246  38.3838868   1.6789208
 108.3357206  38.0870676   0.2304615  85.4570958   6.0980225  44.6210480
  84.8943946   6.3816220  45.3415823  85.4980943   6.8551803  44.0368700
   1.5930855  32.4456239  40.2887011   1.6627266  31.6401315  40.8011055
   1.8848129  32.1974301  39.4114733  91.2377045  30.2554131  41.6788912
  90.3827330  30.2723503  42.1089697  91.8610415  30.1104259  42.3906946
 100.3674266  44.4896746  48.0167532 100.8543536  44.3996811  47.1975851
 101.0336158  44.7073460  48.6687040  64.7025403  93.8639766  42.8390074
  65.5453005  93.6634558  43.2461691  64.9233838  94.1133743  41.9416428
 102.3895583  24.8007751  15.5361342 102.5199756  23.9883232  15.0471115
 103.1565413  24.8634410  16.1053813  36.0045838  47.6130629  23.3015180
  36.1893487  48.5521984  23.2908320  35.7719636  47.4250555  24.2107892
  85.9990928  25.1350284  50.4966259  85.2033827  25.1526284  51.0283852
  86.7131636  25.1330948  51.1340714   1.6194943  24.4224906  36.9291186
   1.3532901  25.3416657  36.9071603   1.4111301  24.0918517  36.0553360
  16.3885856  24.1330695  34.7161245  15.9513211  23.6282444  34.0304255
  17.0517588  23.5379171  35.0657344  71.9728979 105.6035914   2.3862773
  72.2785010 104.9020215   2.9612887  71.6981017 105.1551725   1.5865028
 100.7182416   9.7553760  46.1145782 101.2621459   8.9681435  46.1403751
 100.6321022   9.9565512  45.1827335  98.1687340  38.4574127  49.7203350
  98.5487089  39.2437673  49.3285465  97.2242221  38.5678220  49.6110678
  14.3098640  20.8660936  43.6654902  15.0723994  21.1802840  44.1513491
  14.5685887  20.0014043  43.3467293  90.0328419  30.2451801  50.5406904
  90.6222340  29.9195552  49.8603821  90.2147147  31.1838508  50.5859661
  87.4708816 103.9881134  64.5564508  87.5656661 104.2458132  63.6394739
  88.1318744 103.3075475  64.6835327  87.9826209   5.9711879  70.1688385
  87.0258924   5.9715962  70.1988792  88.2146975   6.8647838  69.9161386
  34.1262722  20.5732298  28.6066985  34.5803571  20.6747913  27.7702022
  34.5860767  21.1649776  29.2022204  45.3332567  24.8694468  34.8214126
  44.4159985  25.0920725  34.9805093  45.3121805  23.9554477  34.5378780
   2.0544541  41.1439371  41.0327339   1.2385245  40.6744862  40.8592176
   1.7746970  41.9847679  41.3946342  23.9114332  42.7695274  47.2887278
  23.5863733  41.8693304  47.2743464  24.2538309  42.9146576  46.4067221
  96.4159641  48.5312319  46.3067818  95.9234676  48.0564404  46.9762993
  97.2769222  48.1129599  46.3010550  13.9833629  62.6264429  49.6143341
  13.5116720  62.1820211  50.3187704  14.8926079  62.3471165  49.7214937
 111.8309679  47.6850891  23.1841040 112.1246026  48.5458994  23.4824610
 111.4220938  47.8525400  22.3349786  45.2147150  41.1596775  39.4950676
  45.1553869  40.9598398  38.5608411  46.0908365  41.5289545  39.6058440
  17.0220041  40.5327225  85.7549095  16.3191378  40.8008099  86.3468075
  17.7723217  40.3778267  86.3287258   9.8438537  39.8605776  29.6444893
  10.7679260  39.8660612  29.3949032   9.6099645  38.9329529  29.6767139
  38.0880189  10.0549793   7.2527993  38.6939001   9.8164266   6.5512049
  38.3799267  10.9210968   7.5371611   6.1274678  40.5971861  31.7620564
   5.8298457  39.7422433  32.0730639   6.4513546  41.0382843  32.5474000
 100.5980334  55.7420492  49.8290777 101.4795658  55.3722382  49.7803736
 100.3176078  55.5750275  50.7289076  19.9542379  40.1379538  13.4617710
  19.5125854  39.3846703  13.0696750  20.3961635  40.5651474  12.7279854
 106.9004312  17.9045486  50.4930925 107.4636790  18.2311881  49.7914553
 107.3777711  17.1582484  50.8556032  14.7589767  39.5734763  74.8435688
  14.6650910  39.0903497  74.0225887  14.8718762  38.8949442  75.5092096
   7.3780745  19.7569060  40.8276510   7.6418138  18.8551903  40.6443977
   8.1579494  20.1622033  41.2068081  16.4978552  30.7998729  70.1972437
  16.8269694  31.0051131  69.3221474  16.6422260  29.8584533  70.2927303
  32.6536298  14.1176271  56.2351751  32.8089762  14.7374976  56.9478178
  33.1493163  13.3374894  56.4839935  78.2091191 104.3923176  40.5617428
  78.2663756 104.0649491  41.4593935  79.1125628 104.3837610  40.2455950
  12.0065987  37.5267816  40.1173735  12.0052290  37.3499703  41.0580969
  12.8980708  37.8208780  39.9302387 108.1248739   3.6194625  15.4466367
 108.2470107   4.5658389  15.5220425 107.4323258   3.5186219  14.7936130
   1.9044268  30.8666658  19.5896065   2.5311705  31.3351130  19.0382624
   2.3227608  30.8299422  20.4497695 100.9535035  35.1270175  36.6375232
 100.9937355  34.2146230  36.9241405 101.2163410  35.6316781  37.4072433
  37.1147990   7.4930233  13.7530470  36.8885708   8.4217513  13.7028801
  36.7731762   7.1190798  12.9408324  22.7289343  36.3344574  54.9129486
  23.6134505  36.3060856  54.5481777  22.1533871  36.2818718  54.1499186
   6.9437331  30.4685640  73.6785269   6.4752370  30.7606483  74.4604683
   6.2532079  30.2093315  73.0684423 109.7191967  25.1306868  43.9127493
 109.6732911  25.8836889  43.3235884 109.3894815  24.3984985  43.3917713
  96.2343785  31.2819195  82.7785969  95.5603549  31.1728978  83.4494400
  96.0952708  32.1666908  82.4408627   6.5598595  26.3113713  24.0296626
   6.3864428  26.8345928  24.8122215   6.0982442  25.4874063  24.1853094
 107.2024131  41.8305445  23.7396383 106.5179780  42.1608257  24.3216133
 106.7262080  41.3923168  23.0343628  34.4710946  20.8410597  88.4147930
  33.9911938  20.8377290  87.5865936  34.2640901  19.9965179  88.8149548
  15.0181854  15.6617582   7.1624380  14.8110485  15.1364934   6.3895065
  14.3937933  15.3681719   7.8258938   3.3291104  42.3884344  36.1834860
   3.3782157  41.7349577  36.8811917   3.1333339  43.2084799  36.6367316
  71.9379463  92.7008921   5.2869350  71.7735981  93.4970337   5.7922846
  72.1546280  92.0401317   5.9447169  34.4911098  47.3587942  67.4886227
  33.9813209  46.9364977  68.1800079  34.0287066  48.1791687  67.3171616
  14.6801436  21.4186454  39.5008373  15.2863395  21.3269734  40.2359247
  15.1245761  20.9905958  38.7690687  11.0151219  37.4686146  74.6239614
  10.6964064  37.0570731  75.4272604  11.9215190  37.7059555  74.8197746
  28.4864230  79.1390060   0.6867981  28.4704382  79.9469303   1.1998558
  27.6233084  78.7494539   0.8264828  33.8141990  56.0380650  38.5924125
  32.8602695  56.1152077  38.6096931  34.1294050  56.9143105  38.8139439
  47.4286652  60.0708389   7.7259457  46.7268991  60.4144764   7.1730673
  47.4288893  59.1290379   7.5549537 100.6641361  32.4001861  60.8617115
 100.7144997  31.5436959  61.2861204 101.0163388  32.2535634  59.9838257
 104.4662371  27.3316598  58.5323858 104.3344471  28.2794356  58.5082293
 103.6783132  26.9909978  58.9558887  69.1877171  17.3557067  14.6591854
  69.1322848  18.2346344  14.2841601  70.0828835  17.0720971  14.4735086
  47.8030157  20.2466679  12.7194726  47.6618242  20.9789443  13.3195305
  48.2402897  20.6377077  11.9630933  64.4595332 103.9090974  90.5302401
  64.1220351 103.4807784  91.3169225  64.3494816 103.2581193  89.8371664
  66.2464139  21.3678288  35.9011602  66.9675586  21.2596750  36.5212297
  65.9629723  20.4747820  35.7053018 105.3966048  21.9494915  18.4394455
 106.1361936  22.5347877  18.2761323 105.4680488  21.2781739  17.7608728
  28.2656622  14.2759347  49.5174026  27.5215101  13.6864793  49.3948889
  28.0523944  15.0441933  48.9877558  93.9336737 105.5059182   7.4873221
  93.4135076 104.7061885   7.4092710  93.6819669 105.8736281   8.3344734
  21.2742877   6.9599175  51.7342854  21.4274096   6.1250222  51.2918663
  20.4944944   6.8084931  52.2683525  21.5876293  28.1785631  48.3522367
  21.6163158  29.1061378  48.1176853  22.4762440  27.9782844  48.6463165
  45.3597075  60.7260452   9.5419121  45.7175703  60.7240389  10.4296970
  45.8541495  60.0470732   9.0828323  12.5118065  31.6866279   0.7826179
  12.1739769  32.5684595   0.6261681  13.4499681  31.8114591   0.9258095
  38.0335379  19.7082484  58.1048822  38.8690615  20.1515388  58.2519436
  38.2766485  18.8270414  57.8209734 108.1802380  30.1148367   6.4465427
 107.5200638  30.7899451   6.2896061 109.0056208  30.5207872   6.1816287
   6.6606605  35.3462291  29.7511888   5.9989762  36.0357690  29.8054171
   6.5540653  34.8477411  30.5613613  26.3872695   2.9685077  49.4748497
  25.5444431   2.8839532  49.0290642  26.8327975   2.1386808  49.3041897
  61.6905089  95.9916353  87.8772259  62.5242420  96.2687212  88.2571507
  61.0422310  96.1872107  88.5537720  23.6608934  30.7248497  56.2752676
  23.1278896  31.5033364  56.1137295  23.0903244  30.1441836  56.7787647
  95.5674478  99.1697252  52.7110243  95.0586315  98.5432118  52.1964169
  94.9113556  99.6693402  53.1969833  95.3452381  44.2337561  64.2145348
  94.4801339  44.2258930  64.6241236  95.3476128  45.0244045  63.6749935
   4.3073565  32.4533415  70.9552050   4.2320403  33.0002236  71.7371798
   3.4178859  32.4142122  70.6037188 100.6669089  52.0323324  55.3431368
 100.8227834  52.9622221  55.5081749 101.1466119  51.5819883  56.0383415
  26.4360452  17.2674012  17.0193517  26.6367102  17.6276314  17.8831804
  26.3989615  16.3209152  17.1572649  86.1947200  16.0787618  48.4518051
  85.4037568  16.5403211  48.1732845  86.3718197  16.4155519  49.3301201
  12.2391284  26.6686606  65.1242876  13.1587803  26.7320204  65.3820801
  11.7810500  26.4256144  65.9288502  40.9078264  17.9359472  78.0071926
  41.6498137  17.4335837  78.3438158  41.2326479  18.3293641  77.1972847
  46.7628717   9.9274117  44.8264647  46.5162611   9.8061383  43.9095640
  46.3619232  10.7605529  45.0741482  15.5960953  63.6965227  21.7165852
  14.7129357  63.9074612  22.0195150  15.8274305  64.4181061  21.1317492
  15.8717680  29.7084951  78.0971289  16.2863791  29.7207856  77.2344732
  15.9985793  28.8131809  78.4110832  94.2233416  45.4395103  40.8574629
  94.8098859  46.0919714  40.4747200  94.7923431  44.8968267  41.4033270
   0.8990154  75.4656315  54.6855354   1.6703311  76.0319662  54.7094250
   0.4402387  75.7194233  53.8846970  47.3100424  71.0735512  62.8799677
  48.1235552  70.6252146  63.1111193  47.0171785  71.4752388  63.6979580
   0.1666815  36.7643595  63.2946253  -0.0650379  35.9266520  63.6956072
   0.9397570  36.5704632  62.7645445  -0.1700644  21.7587566  23.3463836
   0.4643935  21.1550379  22.9600954   0.0667278  21.7943621  24.2731500
  35.6771708  75.7848263  16.6515064  36.4391375  75.9792042  17.1972656
  36.0133004  75.8035755  15.7554603   7.4967587  48.0525112  44.3940783
   7.4172723  48.2948065  45.3166866   6.6106349  48.1465483  44.0445471
   4.6199700  29.0906048  79.8986244   4.0366232  29.6167397  80.4455471
   5.4538763  29.0909529  80.3685570  33.7327051  75.7653713  33.9905739
  34.5402598  76.2656212  33.8729429  33.4063959  76.0356712  34.8488832
  18.6841023  11.5925789  50.9661198  19.2839503  12.2944343  50.7135057
  17.8142512  11.9357467  50.7615995  18.7276638  25.7896614  42.4569750
  18.6045849  24.9271441  42.0605564  18.0859971  26.3485146  42.0185947
 108.2338345  39.0777516  54.9487495 108.3668670  38.1514287  54.7476053
 108.7936407  39.5409513  54.3256187   9.6734381  16.9076133  64.9356270
  10.2090931  17.4291027  65.5334139   8.9543146  16.5844178  65.4784298
   8.5415918  46.8441963  40.0352716   9.1684508  47.1790075  40.6765032
   8.9800829  46.0889387  39.6434259  13.7483549  44.0169716  35.2856851
  14.2781734  44.8127890  35.3325748  14.3619561  43.3088493  35.4813623
  13.9117122  54.4667768  33.4807873  14.7676396  54.0390253  33.4553361
  13.3146644  53.8315821  33.0854487 109.6722500   9.6718282  70.6738091
 110.0864263   9.9045682  69.8428345 108.7351531   9.6591353  70.4790783
   2.7605540  26.0267234   1.1448089   3.6362794  26.1438322   0.7765391
   2.8816229  25.3961730   1.8547261  30.9592700  16.2291718  27.1252298
  31.9135141  16.2520301  27.1968365  30.6540799  16.8406630  27.7954316
   2.6226959  36.5454435  62.2920084   2.8735086  37.4104738  62.6161194
   3.3836025  36.2462878  61.7942524   8.2696426  23.2784724  55.1739693
   8.5082340  23.9599133  55.8024168   7.3393428  23.4253550  55.0030899
 108.6602375   0.9362807  40.8639145 108.5365707   0.2258351  40.2344656
 108.1021598   1.6432281  40.5398655   4.5350009  29.0901780  24.2288375
   4.0784383  28.8188744  25.0251913   3.8552880  29.4929624  23.6884809
 100.0312552  29.5743489  35.7415152  99.6766695  30.4426789  35.9325743
  99.6598741  29.3461800  34.8893142  89.0592512 105.1837881  68.8208342
  88.2234009 105.1672238  68.3546638  88.8911267 104.7028343  69.6311712
  63.9365813  35.3881335  85.6206131  63.9150903  36.1809111  86.1565876
  64.8529956  35.3011918  85.3582096  10.9322619  40.3911400  35.1575780
  11.2650096  41.2203264  35.5010366  10.8610404  40.5341530  34.2138052
  10.6116378  41.6327238  38.2991672  10.4398227  40.7215023  38.5366106
   9.7647041  42.0686293  38.3936262  19.0181065  26.2390900  20.6043863
  18.5522890  27.0298600  20.8762813  19.9427962  26.4487457  20.7356310
  31.5932226  29.6584344  25.8461118  31.8624997  28.9300442  26.4057255
  30.9106684  29.2899466  25.2852464 101.9511214  29.7410488  38.0823994
 101.0876438  29.6002126  37.6940632 102.2640678  28.8619637  38.2957292
  19.8854136  33.9987993  17.5813842  19.1352201  34.0428233  16.9885075
  19.6652567  33.2975483  18.1945801  32.7510619  39.1913390  28.9112115
  32.1610832  39.8443627  29.2876625  33.2086611  39.6571541  28.2113194
   4.1132692  30.5855775  33.6819363   3.8030043  31.4389706  33.9847374
   4.2867088  30.7110214  32.7489758 109.4055115  39.3867946   4.0673625
 109.2648184  40.0574112   3.3989966 110.1134625  38.8454175   3.7181541
 106.6041455  13.7163687  65.9419489 107.4449247  13.4181011  66.2888765
 105.9578505  13.3936286  66.5699434  39.0638757  52.4565172  42.4258709
  40.0186968  52.4118996  42.4764204  38.7641716  52.1513319  43.2821846
 108.6941150   6.2641841  42.6186800 109.0390441   5.4095471  42.8772354
 107.8123817   6.0788155  42.2955418  93.6052534  29.2181730  27.3687291
  94.4325230  29.5120740  27.7501440  92.9655477  29.8716092  27.6516294
  36.6942048  35.0663996  15.9217906  37.6164794  34.9519324  16.1510098
  36.3096499  35.4982829  16.6845655  15.2648211   7.6120168  25.5701923
  15.5012071   8.3079314  26.1834264  14.5587206   7.1366382  26.0079932
  82.6785824  40.7687426   8.2206565  82.2665068  40.7519579   7.3568606
  83.4196851  41.3662767   8.1209117  22.7146173  15.1329434  57.6667643
  22.7327299  14.6193874  58.4743357  22.8807092  14.4945335  56.9731665
   3.7027168  97.8634178  13.6069441   3.4647989  97.6678413  12.7006447
   2.8657054  98.0062550  14.0488100  35.9158826  13.7252033  75.1506233
  36.8115258  13.3891559  75.1170874  35.3767848  13.0027437  74.8286629
  23.1868887  11.3303316  44.7919703  22.6758838  11.5638077  45.5669498
  23.5287094  10.4572344  44.9845695 105.0073192  42.7358103  24.6441436
 104.3477800  43.4193516  24.5257711 104.7453108  42.2867823  25.4478574
   4.4256312  78.2028294  49.0086555   3.9435369  78.2980824  49.8300838
   4.6403739  77.2711182  48.9636278  76.5330097  16.8230116  13.4089422
  76.9570205  16.3047206  14.0929174  75.8705875  16.2380683  13.0411530
 105.0721529  44.8005342  50.5415297 105.8249590  45.3252172  50.8139658
 105.4555926  44.0423155  50.1007223  76.0549471  29.5923615  62.1274853
  75.2617928  29.1489315  62.4283314  76.3664719  29.0570283  61.3976860
   9.3105912  46.0024071  44.7498512   9.6899867  46.5700150  45.4207563
   8.6152840  46.5291262  44.3557072  93.4566912  51.7144442  45.6170321
  94.2628929  52.0327044  46.0232115  92.9266033  51.4014196  46.3500071
  27.6406527  21.7244005  14.2540312  27.7177286  22.3795891  13.5604751
  28.5255289  21.6482687  14.6110046  40.8208990  38.0102682  31.2957764
  40.1238394  37.4727488  30.9197283  41.5675592  37.8770232  30.7118487
  14.8208928  33.1662393  46.9103050  15.2492952  33.1126952  47.7646112
  14.9463880  32.2991920  46.5246725 104.7186086  31.6669679   9.3593782
 104.1352370  31.0105777   8.9785099 105.4530552  31.1614418   9.7076052
  30.9648776   6.5088022  86.9567585  31.1926675   7.1972251  87.5815964
  30.0095630   6.5389925  86.9048500 100.9787460 104.9223726  82.5635910
 100.8596250 105.1439122  83.4871483 101.9170662 105.0326899  82.4099159
   7.0853066  29.7388721  22.9858613   6.2445742  29.3520498  23.2303405
   6.8940490  30.2503824  22.1997237  43.5847759  43.6749220  20.8858871
  43.0247831  43.2341671  21.5249276  44.0010738  42.9625750  20.4006147
  56.9084167  26.7545938  34.3196750  56.5033579  27.5963855  34.1110110
  56.5972376  26.5511513  35.2017260 110.6351087  31.2426543  53.3543253
 110.2442235  32.1138358  53.2873535 110.0502685  30.6782174  52.8487539
   6.2552643  14.5940852  33.4310007   6.7129993  15.2448189  32.8987837
   5.3408563  14.8769164  33.4211421  18.1242406  15.3930247  26.2268710
  18.2524848  14.4505084  26.1198759  17.2385359  15.4756284  26.5803361
  44.6718836  35.9041381  39.6843910  44.8288155  35.1007557  40.1805592
  45.3585052  36.5038371  39.9761796  79.7233769 102.4579808  64.0637112
  80.1263329 101.7852714  64.6126366  80.0821789 102.3010066  63.1902933
   1.7877515  67.9972887  27.4323010   1.2803765  67.3538113  26.9375944
   1.4651670  67.9177809  28.3299923 101.5958974  17.0014012  19.6848869
 102.1745309  16.8028367  18.9486885 102.0920005  16.7336094  20.4584503
   7.8228706  23.8643098   7.7425635   6.8703556  23.7835741   7.7918375
   7.9696614  24.6833014   7.2693413  99.1457173  61.5295601  72.7868271
  99.9011180  61.1045408  73.1929779  99.4087860  62.4448919  72.6909256
  32.1802425   5.6174272  38.4162045  31.4575434   6.2045479  38.6380792
  32.9686451   6.1187077  38.6244583  24.9785686  31.9378281  60.0627661
  24.7657919  31.0824919  59.6894598  25.2006316  32.4807525  59.3063593
  19.9320805  37.0589900  52.5239658  20.4375577  36.5625095  51.8803596
  19.2583537  37.5027084  52.0087576   1.8038778  18.8182461  66.0707283
   2.6276386  19.2622757  65.8695126   1.1389911  19.5031428  65.9994984
  39.0629125  19.9765575  45.8491230  38.5730195  19.5957434  45.1202774
  39.5767570  20.6792688  45.4511404  18.4155416   1.8330987  65.3588247
  19.0840149   1.2102415  65.0734711  17.6182508   1.3093345  65.4377604
   1.6176464  53.5334444  70.1155853   1.7436546  52.8259754  70.7479191
   1.0932833  54.1828728  70.5841064  66.8287327   2.5749232  69.9146485
  67.6932433   2.7584483  70.2823067  66.4366677   1.9502427  70.5248022
 101.5984485  37.7714777  60.9614515 101.5404639  38.1413865  60.0805235
 102.5215563  37.5398469  61.0636806 105.2126727  35.2144361  82.7885246
 104.7972497  34.3843031  83.0220509 106.1396304  35.0827384  82.9876137
 102.8740116 102.8591841  50.7250595 103.6166330 102.7851143  50.1256752
 102.1114393 102.9421259  50.1524925   7.1059495  50.6438446  55.4535866
   7.2017735  50.2252007  54.5981407   6.8463546  49.9334002  56.0401917
  97.2845408  45.1934290  45.9226465  97.5097606  44.3420744  45.5475330
  97.3632678  45.0669336  46.8681765  96.3214061  27.6329398  52.1674109
  95.5017683  27.2546911  52.4857712  96.9088027  27.6017785  52.9225445
  31.0306287   7.7735305  55.9251213  31.4379954   8.6311334  55.8034658
  30.1823330   7.8471178  55.4878473 102.7027711  46.6646767  44.8161888
 103.6066392  46.3500261  44.8004436 102.5078520  46.8790150  43.9038849
  83.5292657 103.9084632  72.9473066  82.8103568 104.3872164  73.3598566
  83.9643087 104.5584065  72.3954535 102.6898822  17.3751616  76.6668510
 101.9900772  17.3488200  77.3193932 102.2928199  17.8006053  75.9068680
  38.4080434  87.5878334  31.7521882  38.8817811  86.9913673  32.3318648
  37.8597665  87.0153236  31.2156677 110.1030676   6.0773814  84.0832806
 109.6562630   5.9437710  83.2473755 110.9527621   5.6510478  83.9715195
   7.6079631  22.2999811  43.0711508   7.0614731  23.0791044  43.1738615
   6.9840389  21.5778446  42.9971886 106.5272996  59.5176649  54.5193148
 106.0374269  60.1268435  53.9669037 106.5630266  58.7080812  54.0098715
 105.0017110   7.2144580  33.6311507 105.3721967   7.8313208  34.2623806
 104.0804639   7.4653655  33.5634613  11.0856581   7.3425698  52.4157619
  11.6265857   7.4227536  51.6301441  10.2808356   7.8144020  52.2015953
  11.5906858  29.0507770  60.4122496  10.6524622  29.1897130  60.5413389
  11.9616044  29.0862083  61.2939501  55.1762172 104.2645833  62.3465967
  55.7723805 104.3474869  63.0908775  55.7520970 104.1836378  61.5863085
  83.9270565  29.9580908  59.9758673  84.1508648  30.8586836  60.2105427
  84.7706482  29.5367408  59.8113918  33.5030746  30.9057522  52.9525185
  33.7221313  31.6886997  52.4473095  33.9012599  30.1858211  52.4632549
 103.0709621  20.3042459  59.8331976 103.8299498  20.4785872  59.2766237
 102.9917017  19.3503475  59.8382282 110.7480781  15.0027990  18.1462133
 110.1355444  15.6501210  18.4955108 111.4993071  15.5180764  17.8523159
 101.1040530  13.8143551  54.7569656 100.9092006  12.9950488  55.2119398
 101.9226047  14.1176021  55.1497078  18.9263678  68.3398628  64.4812632
  18.7559152  67.4282598  64.2442989  18.0994427  68.6500359  64.8503447
  12.5435948  27.5408506  47.3790932  12.5199008  28.4974742  47.4024153
  12.3061526  27.2736692  48.2670498  33.9230776  33.3722496  69.8904753
  33.8367200  33.7705731  69.0243816  33.5378885  34.0129638  70.4882622
  29.6057558  36.4424634  32.9161358  30.0803185  35.9800506  33.6069298
  30.2208543  37.1074581  32.6068377   6.7996114  27.7056313  44.0863323
   7.3943478  27.0880795  43.6607170   6.8871987  27.5172448  45.0207186
   1.7380315  46.8264818  56.1956501   0.8002883  46.7501926  56.3718557
   2.0085406  45.9414959  55.9509993  18.0699062  51.3781500  50.0960350
  18.3421028  50.4790640  49.9122143  17.4745286  51.3004780  50.8415079
  12.4372685  22.4249125  32.0646405  12.2843075  23.3491731  32.2610521
  13.2567012  22.2170711  32.5136018  21.8736196  41.7714167  65.3323984
  21.1259437  42.3610020  65.4303885  22.4113894  41.9357872  66.1070061
  36.5041614  11.9344532  81.5117550  35.6146336  11.7336571  81.8027115
  37.0141649  11.9880462  82.3199940  34.7916794  33.5934472  73.0414677
  35.5455136  33.6681914  72.4563360  34.4389534  32.7207994  72.8673887
   9.1194659  35.7898378  33.9276123  10.0058937  36.1133194  34.0883493
   8.5730898  36.5757632  33.9327741   5.2760220  44.0727186  34.6776128
   4.6228200  43.5748577  35.1692343   5.7303852  43.4159851  34.1498971
  10.7795370  19.4846666  25.7493591  11.5952027  18.9958751  25.8589220
  10.0929916  18.8611138  25.9861493   8.2024598  29.5642090  38.0948353
   8.0516326  29.5602179  39.0400696   8.4753889  28.6694336  37.8920627
   6.0930598  51.8384123  63.9248419   5.8092445  51.8683434  64.8385096
   5.3318453  51.5072012  63.4483099  21.1438227  56.1863804  46.5903854
  21.0410500  56.0218334  47.5277233  21.5023685  57.0724964  46.5406656
  26.4349604  71.1962223  49.4809484  26.3312936  70.7471132  48.6420345
  27.2271609  70.8155870  49.8601103 102.4819896  26.4025831  21.8363619
 102.6692554  26.3396168  22.7729511 102.4208364  25.4936004  21.5426970
  68.4683034  12.5087309  83.6532307  67.5883481  12.6098537  83.2903481
  68.3795306  12.7641344  84.5714474  76.7647383  61.7839146  57.6423788
  76.5436456  62.3732805  58.3634853  76.7541072  60.9108829  58.0347204
   9.7409105  23.2659101  41.3934278  10.5310178  22.9678750  41.8441343
   9.0330672  22.7577448  41.7896080  17.3684859  46.8659592  69.3712997
  17.4027634  46.3584757  68.5604239  17.9711521  46.4143610  69.9621391
  18.3462596  24.1750169  50.8067179  18.2539332  24.6532083  51.6307545
  18.6102474  24.8408294  50.1717043  40.7964039  22.8956914  88.5108376
  40.1365280  23.5880184  88.5493088  40.3168297  22.0955348  88.7252903
  77.7675100  80.9859593  87.9163617  78.6673828  80.9363372  88.2388484
  77.6668020  81.8924625  87.6259470  16.4959252  32.5277710  22.7603579
  16.4262962  32.5815558  21.8072104  15.8207393  31.8987584  23.0147171
  17.6813805  27.7850533  26.6716361  18.2383895  27.4789500  25.9559035
  18.2470465  28.3611703  27.1857810  29.8064780  64.8943281  40.4363155
  30.4054141  65.0044632  39.6978164  30.0053310  65.6284332  41.0175085
  34.2990804   7.5232589  53.2610512  34.3935275   7.6262891  52.3141098
  33.8773894   6.6706753  53.3683348   2.6162675  47.4102879  20.7163668
   2.1534751  47.1106005  19.9339068   1.9629598  47.3619604  21.4142799
  21.9987869  58.9643908  45.9292746  22.3860097  59.8096323  46.1570072
  22.1684957  58.8678885  44.9921942   5.6024158  34.8101664  14.7079444
   6.1573732  34.1375685  14.3131435   6.2109053  35.3700709  15.1901054
   4.7558972  24.2400551  24.7765779   4.3973619  24.6474814  25.5650496
   4.0814877  23.6198044  24.4996428   7.2233021  16.7416728  57.1809864
   6.7562568  16.3097632  56.4657545   7.2550577  17.6632583  56.9242668
  10.7708681  53.2479095  70.0347328  10.3058505  52.8971243  70.7943010
  10.1560998  53.8682842  69.6430349 110.8858299  35.4904890  34.5769358
 110.2241513  35.9862661  35.0592422 110.9679873  34.6680498  35.0597167
  26.9092870  41.8611670  28.7655520  26.6221595  41.9471884  29.6746111
  26.4533925  42.5642204  28.3028340  20.9935737  10.6569552  74.5469475
  20.6321025  11.5002549  74.2741489  20.5923748  10.0213861  73.9542198
  75.9797093  20.9038901  43.1529570  75.6877682  20.0938034  43.5710001
  75.1786086  21.2967253  42.8063297  23.9201427  42.5587511  12.4322522
  24.3707037  41.8300819  12.0053232  24.6250653  43.1170273  12.7603436
   6.4911603 103.8444571  66.1171436   7.0508527 104.6145081  66.2171412
   6.1254596 103.6992255  66.9897270   0.7371326  15.5053115  47.8307199
   1.1448464  15.5573404  48.6951828   0.2963496  16.3480866  47.7226830
   9.4138122  52.3713303  48.5104418  10.1167834  52.7659750  49.0265036
   9.0477985  53.0992794  48.0080938 103.1435749  50.8423042  62.2273445
 102.7647880  51.5138626  62.7945852 102.4820498  50.6995726  61.5504074
  32.0276523  42.1534443  33.4932041  32.1452951  42.8724670  34.1140079
  32.1581960  41.3621187  34.0156937  46.3114262  36.4602828  22.6644683
  47.0586300  36.6348767  23.2366848  46.4476013  35.5631685  22.3597193
   4.8903900  35.7434297  56.9961691   5.5692840  36.0806894  56.4117098
   4.5879203  34.9397278  56.5733147  86.9890329  46.8816280  46.8367147
  87.3580167  46.0296011  47.0693827  86.6888806  47.2478771  47.6685810
  90.0997922  41.1429930  14.5331204  89.4048282  41.1885643  13.8764775
  89.8190996  40.4504156  15.1312673   5.8396244  24.7522712  31.8560314
   6.4980966  25.3199267  32.2565484   5.3335798  24.4141364  32.5948238
  27.1484923  24.7189856  35.8510423  26.4940667  24.9241900  36.5187621
  26.9279218  25.2908015  35.1157832  23.3909392  72.7836943  58.6483765
  24.3084836  72.8002119  58.3762169  22.9980993  73.5398006  58.2122421
  77.4941513  62.4086761  61.0631895  78.2052204  63.0485630  61.0291338
  77.9358193  61.5645123  61.1556387  27.3426485  64.1898298  39.3631220
  28.2011604  64.4824886  39.6689582  27.2296309  64.6224451  38.5167742
  93.7746867 103.5518829  18.0202913  93.3306011 103.8497133  17.2263658
  93.6086365 104.2431330  18.6612535   6.3807386  44.3390417   3.1850350
   6.3260245  43.6045504   3.7963915   6.8887639  45.0022411   3.6522740
 108.4653249  19.2717659  48.6789560 108.2219574  18.5489893  48.1005144
 108.9983049  19.8479640  48.1310844  27.7526641  27.3028064  83.0591583
  27.4542093  28.1455374  83.4011555  27.3444128  27.2364926  82.1959305
  29.3317485  51.0792398  39.9414587  29.5083332  50.7634735  40.8276510
  28.4200573  51.3696718  39.9679089  28.6123300  39.8620033  35.5766320
  29.5655131  39.8083949  35.5073595  28.2985568  39.7118568  34.6848726
  53.4868551  91.4572857   0.3434372  54.3213380  91.0021804   0.4563427
  53.1336642  91.5333389   1.2298298  58.8188839  23.5876369  50.4877424
  57.8678370  23.5286832  50.5786180  58.9522076  24.0520787  49.6614552
  98.8961980  76.2514973  62.5569057  98.0027220  75.9742403  62.7595425
  98.8170788  77.1829700  62.3511505  16.0415077  39.4215512  45.5050087
  16.3555217  40.3138351  45.3585434  16.4445961  38.9078689  44.8050928
  19.5479000  59.9895477  63.1919241  19.1860819  59.9705839  62.3059464
  20.1991510  59.2880869  63.1997442 110.2384891  58.2811403  48.7706280
 109.7036594  58.1219625  47.9929066 110.6321169  59.1403580  48.6188650
  29.9588394  81.7770004  27.1777201  29.0810132  81.9231510  27.5302696
  29.8108053  81.5013218  26.2731099 108.4742972  65.8011293  46.1151409
 109.3110004  65.5258560  46.4898205 108.6332542  66.6918182  45.8026648
   7.0035243   3.1845933  73.0045223   6.6254729   2.5352296  73.5975122
   6.2776232   3.7744057  72.8009987  33.6009431  43.1776047  56.1689949
  34.4525290  43.0949306  56.5981817  33.1474996  42.3607349  56.3771868
   8.8971984  31.2090373  33.7627149   9.6418172  30.8731747  33.2637453
   9.2789018  31.8551970  34.3568659  38.1341219  27.9951501  56.3803816
  37.6979423  28.8012671  56.6563463  37.4741912  27.5295401  55.8666420
  19.9932611  68.4294605  36.6275072  20.9050584  68.1962681  36.4529157
  19.4932342  67.6588392  36.3585305  24.1187859  33.6745930  17.6619375
  24.5448184  34.4813800  17.9514647  24.7672796  33.2493472  17.1008205
  29.1447234  67.5912333  53.5969687  28.2685757  67.7203131  53.9601946
  29.5002174  66.8496799  54.0868187  -0.2143044   8.8980424  32.3145938
   0.4936719   8.2951880  32.0875096   0.2242829   9.6300703  32.7481937
   5.1436859  61.4019918  39.9825931   5.7737249  61.4657784  40.7003736
   5.2964097  62.1887541  39.4592214 104.1502616  54.0589476  68.9768362
 104.6680138  54.8626423  69.0241098 103.3881256  54.2321634  69.5294476
  52.0972967  72.2687292  69.5048428  52.2643995  72.7091074  70.3381348
  51.4499855  71.5956974  69.7152090 105.3347740  50.5436993  43.0118179
 104.7746357  50.1938772  43.7047100 105.4346302  49.8182392  42.3954058
   6.6791725  52.4960423  45.6578302   7.5921106  52.7678537  45.5635214
   6.2241727  53.2839584  45.9551382  32.1197057  51.6711473  60.8842421
  32.2157979  51.0151482  60.1938343  31.4324188  52.2559261  60.5650187
  25.9139252  15.0806534   2.2642176  25.9331203  16.0238671   2.1023166
  25.7062411  15.0016296   3.1952673   8.5156840  65.3098822  32.8720927
   8.8650489  65.0330114  32.0250273   7.6164287  64.9819708  32.8790355
  31.7667460  49.6007681  50.2799940  31.6891026  48.8021946  50.8019876
  31.5495753  50.3068542  50.8886957  50.8904457  10.3466618  32.3028398
  51.3951302  11.1552656  32.2151685  50.5321121  10.3829443  33.1896949
  42.9085684   7.2326952  17.7072024  43.5365677   6.9121027  17.0598459
  42.0646906   7.2053474  17.2562516  14.5409191  56.3793230  69.5058203
  15.4644489  56.3554335  69.2553091  14.1665113  55.5893087  69.1160440
   5.3762215  28.6446524  36.1368632   5.9155756  28.0978441  36.7081165
   5.9773904  29.3126845  35.8073807  27.6492572  56.7966938  44.1287708
  27.9067659  57.6818323  43.8709927  26.8985105  56.9249439  44.7085619
  30.9209776  63.9240360  53.8577175  31.4472604  63.2328939  53.4557438
  30.2160239  64.0838909  53.2302475  28.5632539  61.2176323  64.0127039
  27.9275560  61.5447950  64.6491671  28.3003330  60.3106737  63.8560963
  33.3180118  27.6132369  42.5497389  33.1164050  28.5453916  42.4680328
  32.4731469  27.1754575  42.4458933  35.2294922  63.2858515  38.9190602
  34.6783042  62.9922676  38.1936407  35.3010583  62.5210857  39.4902325
  21.8149257  36.7921710  80.1834106  20.9894824  36.4498830  79.8403120
  21.8492985  36.4745975  81.0857391  45.0057173  80.7427311  73.3935118
  45.5778122  80.5883026  74.1452360  45.4218578  81.4628887  72.9197741
  27.5754762  42.7536345  38.1062531  28.0824590  43.5406876  38.3056283
  26.7221189  43.0833721  37.8246689 110.4950152  28.9307356  25.2228546
 110.3998345  29.8120904  25.5839467 111.0410283  29.0480733  24.4454670
 103.9799461  70.1604414  64.3247843 103.2398567  69.5634365  64.4347143
 103.7997910  70.6164122  63.5026741  92.3369953  10.0123024  42.3241377
  91.8151137  10.2619338  43.0867338  92.2854659  10.7692111  41.7404699
 108.8809714  41.1838818  33.8250923 107.9613310  41.2489605  33.5676861
 109.2521441  40.5362368  33.2259083 105.8563003  44.7688723  77.4452162
 106.2616673  45.5687523  77.1103907 106.5415743  44.3544245  77.9694891
 107.5849926 100.7593155  23.1527948 107.7149081 100.9592247  24.0798283
 108.0757177 101.4386272  22.6902318  82.4417374  51.6915846  46.9367743
  82.5601003  52.6396656  46.9947910  82.8221771  51.3526821  47.7471066
  60.8405066  21.1416650  27.7121735  61.6987419  21.1152124  28.1352162
  60.2371502  20.8018684  28.3730340 110.4235822  40.9686804  49.8567390
 110.8940484  40.2260017  50.2353287 110.5848982  40.8998823  48.9157438
  84.4811865 104.7938348  43.1317616  84.3471809 103.8507280  43.2256985
  83.6098506 105.1723917  43.2488108  52.2672005 100.8424098  83.1275505
  52.4982114 101.7712695  83.1187618  51.9474228 100.6667478  82.2426116
 107.8257826  42.8163910  57.4208879 107.2808671  42.6631117  58.1927729
 107.7487877  43.7561560  57.2561359 111.5659747  67.1081257  55.5435038
 112.2354540  67.7579165  55.7575035 110.7691908  67.4399281  55.9573555
  20.4345942  64.1135359  14.2571926  20.3017592  63.9190674  15.1849699
  20.8180261  63.3137131  13.8973379  14.3016911 101.2564564  39.3088984
  13.3875167 101.0443401  39.1204119  14.3476307 101.2902451  40.2643967
  49.6984148  29.3565202  40.2953482  49.0476656  28.6952066  40.5307627
  49.9272346  29.7736979  41.1259079  34.9602842  81.8641949  68.6731100
  34.5489764  82.1044159  67.8428364  34.5237732  81.0521412  68.9305210
  15.7300484  81.3841915  51.6759634  16.3773978  82.0483875  51.9126463
  15.2064073  81.7946148  50.9877872  22.2798014  19.2367387  29.1767645
  23.1289124  19.6782267  29.1948652  21.8419766  19.5267069  29.9770522
  99.1792199   5.1860267  38.0025458  99.6872959   4.8377854  38.7352252
  98.8718209   6.0393691  38.3083963  17.0166385  35.4390073  27.9017425
  17.0079637  34.9675727  27.0687318  17.2732687  34.7802901  28.5470819
 106.0142210  60.4650831  50.5704403 106.2301764  59.6095085  50.9413624
 105.3895947  60.8436108  51.1891413   0.2759522  53.5679865  11.7519760
   0.6980085  53.9468050  12.5230742   0.9782548  53.1002808  11.3000298
  21.1053944  46.7097807  30.6267667  20.5323076  46.5445805  29.8780942
  21.4538884  47.5878334  30.4724765  19.0512204  28.9331222   4.4317114
  18.6663139  29.3333769   3.6520484  19.9793315  28.8369370   4.2181915
  28.5803223  38.8168526  42.4119902  29.5131040  39.0012884  42.3018312
  28.1597447  39.6756673  42.3697710  15.1133037  80.6400967  23.6467052
  15.0886834  80.8877850  24.5709777  15.9976721  80.8690453  23.3608627
  11.7873037  34.6743464  62.9360628  11.7365658  35.4187965  63.5356045
  12.5979745  34.8154616  62.4470520  93.4840450  49.7294950  20.4916596
  94.3720064  50.0403595  20.6680703  93.1134257  49.5592308  21.3576174
  12.8798628  59.4723129  64.6263218  13.3052695  59.2520523  63.7976217
  13.1432831  60.3764200  64.7978926  23.0164146  62.3666477  42.5803232
  23.1359100  62.8148794  43.4176064  23.8949108  62.3271465  42.2022772
  27.1759510  22.8922558  66.5838957  27.7082944  22.2498751  66.1146545
  27.4703717  23.7387276  66.2476873  24.4350386  67.3772955  58.0960798
  25.1741433  66.8588495  58.4141493  24.7320747  68.2846928  58.1640959
  17.8356326  65.5253315  63.9586353  17.6315022  65.3438997  64.8760462
  17.0749950  65.2023029  63.4756088  21.9719768  50.6435490  67.2455931
  22.3611259  49.9920797  66.6621685  22.7126741  50.9962940  67.7387142
  64.9638529 101.8351037  84.3548077  64.0324135 101.6817672  84.5133686
  65.0108738 102.7467115  84.0667224  20.7211804  58.3644152   5.6134468
  20.3208327  59.1187763   6.0457635  20.2548027  57.6084995   5.9702611
 103.8823959   1.9274308  88.6416060 103.0457851   1.4694001  88.7223703
 104.3237825   1.7688919  89.4760364  19.8284256  31.8667769  58.8135576
  20.3380775  31.8358898  59.6232080  20.2954078  31.2845659  58.2142353
  35.7533073  75.8211374  43.7171507  36.3792920  76.4523411  44.0720558
  35.0126553  76.3545656  43.4288406  14.7086120  30.0058222  54.5847845
  14.5283604  30.5760145  55.3321934  15.6592906  30.0424051  54.4794083
   3.7724152  61.3270044  25.7172656   2.9501769  60.8739901  25.5303597
   4.3676567  61.0380745  25.0255704  91.9098613  39.0573215  43.9065886
  91.7464730  39.3914604  43.0246115  91.7706558  39.8122787  44.4783354
 109.3574318  85.4412937  49.2834949 109.3405224  84.6992302  49.8878813
 109.1194636  85.0653934  48.4359741   4.7570765  49.3008709  19.4062781
   4.0224904  49.0641689  18.8400745   4.4946617  49.0015411  20.2767777
  23.8841915  79.8332167  65.9951258  23.8306689  78.8853788  66.1174822
  24.2052245  79.9414015  65.0998831  27.0402002  48.0858707  18.4471440
  26.7009115  48.9805746  18.4221315  26.3794804  47.5926638  18.9333820
  50.9169006  54.9814749   7.0369959  51.1167383  54.3513870   6.3446909
  50.1272154  54.6367884   7.4539143  37.2560883  37.4559546  14.9109459
  37.0371723  36.5550995  15.1492023  36.9895792  37.9757619  15.6692374
 109.5308840  21.4984751  38.4784937 108.5851941  21.3504815  38.4789324
 109.8049234  21.2991142  39.3736982   3.9802411  54.7361135  56.7547083
   4.2851198  54.7718143  55.8480644   3.1590384  54.2461681  56.7121363
   4.6041983  61.4563084  80.0229645   4.6260193  61.9948530  80.8139896
   4.1461217  61.9957924  79.3784809  31.8062162  57.3851156  19.2201495
  31.8955660  57.4663115  20.1697040  32.6920390  57.5207329  18.8837600
 103.4623799  66.8362856  19.8587596 102.8709486  67.2892046  19.2576730
 103.1569305  65.9291315  19.8571706  97.2827765  36.3940167  23.1215525
  97.8858456  37.1359062  23.1677985  96.9460461  36.3031483  24.0129495
  26.0360742  11.6902196   1.8887821  26.3467145  12.4919522   1.4681190
  26.6452360  11.0134053   1.5936972  86.9757769  25.1932502  47.7382183
  87.7108142  25.7977581  47.6356459  86.8488643  25.1289272  48.6847830
  45.6163120  73.6496973  53.9588261  45.7660818  72.7173519  54.1154766
  46.0150194  73.8161278  53.1046772  29.1292953  25.2203608  29.6027923
  29.3806338  24.7116256  30.3736687  29.9029231  25.7464194  29.4003224
  36.7507219  73.6418962  60.3949738  36.9888854  72.9296017  59.8015499
  36.9869852  73.3184671  61.2643433   6.3266963  45.1376581  36.9848561
   6.2607610  46.0788441  36.8234372   6.1720979  44.7365618  36.1296058
 101.9204393  82.9503727  57.7319908 102.1324953  82.3750305  56.9969749
 101.9104978  82.3714352  58.4942007  44.9435329  58.1871939  22.3952174
  45.3765202  57.5228310  21.8591428  45.5142593  58.9532328  22.3345065
  25.1116204  43.7027597  27.7400565  24.7992063  43.1316471  27.0383024
  25.0544286  44.5853281  27.3739481   3.9437371  36.8427253  34.6523428
   4.0851673  35.8972955  34.7012305   4.2832476  37.1788955  35.4817724
  17.5288928  27.8821540  73.3820152  17.1197069  27.0597434  73.6511612
  17.4303424  28.4580755  74.1401911  32.4478793  51.6949511  27.0051527
  32.3741364  52.4616051  27.5735140  32.7886343  52.0403814  26.1800480
  34.1305780  93.5663414  69.3485212  33.3507633  93.2335186  68.9042759
  34.6948123  92.7996159  69.4485617  20.7547855  58.1628323  36.6553807
  20.5567122  57.4793100  37.2955322  20.3369164  57.8631973  35.8480167
  18.1106353  66.0563898  60.9896374  18.1780601  66.2611198  61.9222498
  17.3133874  66.5022516  60.7035732  15.9767044  49.1202497  70.2587843
  16.6427350  49.4025421  70.8856392  16.3248336  48.3091545  69.8884296
   7.0359850  63.3746386  38.3236361   7.7326959  62.9184961  37.8516626
   6.6032273  63.9069510  37.6561069  92.3079273  90.1404285  54.9051428
  92.2633550  89.5700550  54.1377401  92.4698636  89.5450974  55.6369781
  26.0696459  87.6857376  65.3212547  25.5849528  87.0264530  64.8246145
  25.6504464  88.5149479  65.0912237  25.8749008  38.0203342  38.9906311
  26.5789890  37.5419164  38.5528994  25.9819126  38.9252377  38.6974978
  51.2691736  61.5672398  17.1978521  50.8540726  61.1881590  16.4231122
  50.5842876  61.5555334  17.8664553  19.8080695  61.8304157  52.9556227
  18.9376187  62.1406937  53.2051659  20.3957462  62.5466156  53.1963015
  63.3190393  46.9613600  15.7436824  63.7001371  46.5865755  16.5377390
  64.0501881  47.4044371  15.3131795 103.3619866  36.8139100  26.6894007
 104.3040010  36.7656636  26.5265703 103.1107917  37.6862001  26.3856912
  22.8178573  55.3821230  28.3999825  22.5039291  55.8143806  29.1942358
  22.4756622  54.4902945  28.4614396  98.6682364  29.8019767  82.5079727
  97.9188642  30.3969741  82.5334644  98.8921151  29.6592259  83.4276104
  42.8549194  38.8095903  62.3841619  43.1033516  38.5832286  63.2804155
  41.9135427  38.9763546  62.4314213  19.3505383  40.0672483  36.7954254
  18.8849032  39.9418569  35.9685683  19.2903793  41.0075712  36.9639707
  27.7791667  30.0520182  31.7083383  28.5135531  29.5331573  32.0365000
  27.0589423  29.4261789  31.6319704  41.9053602  62.5994539  67.1243429
  42.2972393  61.7546558  66.9030333  41.2701511  62.3962975  67.8109837
  36.9815111  73.0276155  56.4644098  36.1601043  72.5871515  56.6823816
  37.5018072  72.9745674  57.2661018   8.6097354  63.8255167  63.3895922
   8.4382355  64.3908262  62.6364326   7.8065062  63.3154774  63.4940624
  21.9925952  94.0772915  20.5442190  22.0320415  94.9145794  21.0064173
  22.5009298  93.4778976  21.0906267  54.7143650  27.7506900  28.6520934
  55.4699373  28.3260036  28.5322595  54.5683098  27.7410412  29.5980358
  43.0109453  19.3344343  46.0384798  42.9706478  18.4529257  46.4093590
  43.0321789  19.9139476  46.8000221  16.2126327  48.7279367  21.1964631
  15.4154158  49.2380762  21.0535073  16.2128103  48.0810881  20.4908991
 102.3431465  25.5305243  27.7393031 102.7845266  24.7304940  27.4540591
 102.9922912  25.9832644  28.2776999  10.7254553  49.9765062  57.4801588
   9.8467380  49.7431993  57.7795792  11.3092470  49.6191025  58.1492472
  13.3101380   6.5383273  69.1921282  14.1563678   6.8227625  68.8468409
  12.7442002   7.3048502  69.1005325  15.4527509  24.2641377  49.7760487
  14.6131194  24.1332412  50.2166319  16.0735703  23.7413239  50.2834749
  14.8467422  67.8461361   8.3597869  15.5368948  68.0988169   7.7465385
  14.5243895  67.0089674   8.0259109  24.6769595  18.5962725  46.3991070
  25.1576972  18.9366174  45.6445932  24.6488428  19.3282723  47.0152378
  13.1508124  60.6344032  61.2784910  13.4949219  60.3920794  60.4187822
  12.7026367  59.8471498  61.5876770  21.2003207  72.2194719  44.7085047
  21.8579936  72.8784990  44.9307299  21.7073536  71.4741945  44.3864679
 102.2720906  45.7275915  35.3477693 102.7460548  45.8243084  36.1737442
 102.8639600  45.2231979  34.7896409  25.2869201  74.7503519  34.9300408
  24.4898653  75.0540495  34.4956422  25.3909183  73.8458395  34.6346259
  17.5069308  48.4649467  59.8322439  17.3160851  47.6376295  59.3902493
  18.0731952  48.9374304  59.2220497  51.6996384  67.4237108  58.8196993
  52.3659801  67.2738934  59.4903517  52.1896744  67.7445984  58.0626440
  90.1462743  51.6082382  54.1469049  89.9840614  51.3496590  53.2396841
  89.3838927  52.1355057  54.3856430  25.3168249  37.2153282  25.4294872
  25.6658053  37.7702522  24.7319865  25.5683875  37.6608372  26.2384820
  46.0995102  33.0792570  19.0628135  46.2162733  32.5725198  18.2591867
  46.9483423  33.0300379  19.5024645  23.1376886  27.7339339  19.3790317
  24.0754652  27.8511882  19.2271888  22.7279496  28.4725738  18.9287472
   7.9678589  66.3598108  50.5136490   7.4739361  66.4070320  49.6950912
   7.3027295  66.2157297  51.1867571  12.6066625  52.0490456  17.1112370
  12.5181293  52.9917431  16.9708383  12.5619376  51.9431782  18.0615127
  18.1082320   8.3062500  16.8367314  17.5366068   9.0213817  17.1161282
  18.7014818   8.1711656  17.5756752  25.1753402  37.7415109  44.4858789
  26.0222244  37.7579045  44.9316931  24.9322104  38.6632872  44.3995905
  30.0880432  37.4462247  48.2933807  29.8129201  36.7650437  48.9070034
  29.5567679  38.2075119  48.5266638  99.2162904  32.6174045   3.6812520
  98.7497076  32.8402019   2.8757128  99.3287274  31.6678119   3.6380941
  12.5050795  40.2236700  41.7395067  12.6855111  39.9703550  40.8342409
  13.3548808  40.4957056  42.0860147  45.4859352  27.9203796  36.4602661
  45.0369883  27.2349215  35.9654665  45.4084778  27.6459861  37.3740149
  24.8193836  87.8416443  52.9000950  23.9325476  88.1687355  53.0509663
  25.1406431  87.6098347  53.7714672 100.0960073  78.3169651   6.9345218
 100.3494617  78.5070086   7.8377807 100.0125763  77.3638773   6.9046420
  55.5184507  29.3089986  57.9280281  56.4309597  29.5804191  58.0274439
  55.5625248  28.3605123  57.8069258 101.8759444  77.6866674  41.3586426
 102.6256725  77.5747490  41.9431210 101.2488720  77.0219231  41.6434717
  45.9150362  47.7765608  31.5625072  46.5120554  47.0405483  31.4280152
  45.3053713  47.7280712  30.8261728  82.4387869   6.0512091  77.7197969
  81.6560950   5.5036045  77.7810633  83.0972835   5.4838349  77.3189259
  88.7870094  46.5782356  69.8999929  88.3525965  47.1696281  70.5146217
  88.7010857  45.7125235  70.2992392 102.9789165  31.9547534  31.5004706
 102.3403606  31.6236854  30.8689070 103.5245082  31.1965036  31.7093205
  10.7485199  66.6921329  37.6266122  10.9468734  66.6828966  38.5629892
  11.3018286  66.0036230  37.2577763 108.4004647  58.6597967  31.7978334
 107.7877945  57.9246140  31.8172312 108.0516145  59.2446089  31.1251283
  18.2506192  13.7758398  56.7747879  18.7350917  13.4614420  57.5381184
  18.9151323  14.1871774  56.2221098  19.1189122  54.2830658  50.2082586
  18.5799432  53.5119343  50.0319099  19.1527760  54.3383026  51.1632633
  24.7751212  75.0153637  48.3014584  25.3277087  75.0829840  49.0801191
  24.8661208  75.8643055  47.8687286  35.9171414  63.7407017   5.9829092
  34.9821210  63.8382292   6.1630714  36.3460994  64.2891502   6.6397411
  18.9371109  78.2584047  52.3312521  18.1592917  77.8390980  52.6992369
  19.6259856  78.0919552  52.9746628  26.0535049  62.2103548  14.1071534
  26.2946248  62.5671911  13.2523096  26.3452530  62.8723335  14.7339678
   5.3248042  61.2583637  31.3213992   4.5115533  61.0976124  31.7999530
   5.0508898  61.3551378  30.4093480 105.2503589  44.6617699  31.4683914
 105.5732223  45.1843500  30.7342935 105.4081044  43.7552214  31.2047315
  53.0289745  30.6543231  57.8401804  52.6016378  30.0435328  58.4406424
  53.9651203  30.5050111  57.9727316  92.2203633  55.2561855  66.7003870
  91.6689178  54.7594213  67.3048401  91.6109917  55.8317423  66.2381840
   4.0730724  38.9499998  60.0033998   3.5260248  39.3695951  59.3393850
   4.1551733  38.0432224  59.7080231  26.6657376  51.6117668  26.8475103
  27.3858309  51.6526270  26.2182021  26.1248326  52.3743820  26.6423917
  10.2322662  41.2058401  64.3899822  10.1454163  40.2534723  64.3489647
   9.5245963  41.4861059  64.9704027 106.5174386  46.1132812  47.8561020
 107.4630722  45.9695625  47.8193283 106.4146331  47.0590639  47.7504587
  39.0947652  49.5083570  24.3557739  38.9349484  50.2043915  24.9931288
  39.9781513  49.6803331  24.0297627  35.7757640  45.8299541  28.6983991
  35.1477146  45.3490973  28.1593585  36.2025285  46.4323425  28.0891109
  33.7100244  23.3626008  26.2998772  33.9615965  23.9087343  27.0446467
  32.8294659  23.0550766  26.5149927  12.6483023  39.7287035  29.0443659
  12.7786648  39.0085578  28.4274149  13.4536338  39.7499847  29.5612979
  23.9252496  32.9676557  64.6288729  24.5783448  33.6660171  64.6734619
  24.0267229  32.4918413  65.4532099  49.4752645  19.8688126  49.6083975
  48.7348223  20.4683232  49.7009277  50.0387812  20.2832317  48.9549923
 110.7150131  55.4053354  45.4492331 109.9209592  54.8930454  45.2966881
 110.4711111  56.0265970  46.1353636  37.3836398  66.3415956  71.3274193
  37.6610708  67.0469189  70.7428026  37.6408243  65.5391026  70.8734369
  23.8755298  77.0073748  65.8358431  24.0233874  76.4603281  66.6072798
  24.4149423  76.6090155  65.1527834  10.1946270  45.1807642  38.1530666
  10.9174860  44.5716476  38.3036923   9.4359249  44.6182823  37.9974461
   6.2242985  56.5344191  52.5052404   5.9025496  57.4229670  52.3529530
   5.5833960  56.1464357  53.1010151   7.9596132  70.0009632  45.9301281
   7.6748472  70.8911848  46.1366415   7.3236197  69.6893692  45.2861929
  16.7923307  46.9819689  51.5283394  16.8553996  46.3866997  50.7814074
  16.2467754  46.5150881  52.1612930  82.2819271 101.6588881  16.4387131
  81.7639335 101.2703717  15.7337523  81.6340729 101.9415837  17.0841587
  10.5129147  63.5010958  10.1236928  11.4056540  63.1558752  10.1321507
  10.1250327  63.1425810   9.3254173  27.2027373  64.2209005  26.8022346
  27.6039672  63.6481380  26.1486363  26.7226052  64.8706436  26.2888741
  82.6424405  62.7582026  19.3234682  83.2018921  62.5532436  18.5743093
  83.1340381  62.4443722  20.0824642  16.9124687  56.6493845  55.9925318
  17.5941420  57.2699070  55.7346392  16.3130915  56.6283226  55.2465200
  59.7909594  27.0125747  19.4811070  59.1369867  27.4516892  20.0249147
  60.3687191  26.5758491  20.1069689  19.9886596  81.5030193  52.8115892
  20.7473993  81.9181633  53.2217169  20.3638005  80.8741570  52.1951294
  81.0140011  49.7849941  32.5213599  81.9617316  49.7099495  32.4099731
  80.8588192  49.5301962  33.4308815 103.1270245  59.7513723  59.6599007
 102.6083955  59.3039703  60.3285503 103.0491093  59.1954231  58.8846064
   3.8551742  64.0396881  66.1160707   4.5736504  64.3809652  65.5835724
   3.8760769  63.0941153  65.9687948  90.8319160  42.6530504  24.3890762
  90.9087822  42.1600294  23.5722184  91.5125629  42.2877026  24.9542952
  17.3745286  35.9435654  57.4518394  17.9355025  36.1652207  56.7085981
  16.6806686  35.4023409  57.0751905  11.1377776  38.4192371   8.6340588
  11.7510819  38.9205885   9.1713989  10.5716407  37.9767299   9.2664427
  26.2162590  82.9605103   5.9159046  25.9898877  82.0543098   6.1251450
  25.4078960  83.4503365   6.0670722  91.5806290  24.1104913  33.5473466
  91.4678785  23.3943224  34.1723442  91.8418309  23.6793613  32.7336311
  31.0779119  69.3943882  19.4673514  30.7710338  69.7179174  20.3143382
  31.6355133  70.0958300  19.1307676  20.1272225  71.7468834  41.3418865
  19.4589353  72.4036503  41.5375328  19.6350920  70.9958172  41.0103178
  39.4251013  37.3898363  61.4836025  40.2945995  37.4414039  61.0866880
  39.5081520  36.7128515  62.1551895  13.2547355  53.2719183  44.3798208
  12.4657047  52.8737974  44.0121794  13.0329430  53.4419394  45.2953148
  98.2909188  61.5766048  77.1382236  97.9903981  61.3432693  78.0165625
  98.6859927  60.7734346  76.7990160 110.1089457  38.8447952  26.0647368
 110.3991134  38.7562490  25.1568842 110.8971166  38.6872649  26.5845466
  20.6217432  38.8834977  30.3696108  20.0669765  38.3259344  29.8240948
  20.1588511  39.7205806  30.4050446  36.0304189  54.0930033  61.4204407
  36.1416960  53.4642124  60.7073689  36.9206095  54.3719053  61.6349316
  23.6450005  38.3828664  36.7208719  23.1942153  38.3481216  37.5645638
  24.0895557  39.2305708  36.7215753  20.7772541  45.9184599  56.1797810
  21.3532543  45.4970551  56.8176460  21.3667893  46.2262440  55.4913425
  20.1320887  25.1343012  16.9014800  19.8787558  24.2500973  16.6364551
  21.0035753  25.0294662  17.2832561  49.9180794  13.5349560  17.4937272
  49.7689152  12.6995122  17.0509911  49.0887451  14.0045607  17.4048293
  12.1634352  38.9318156  24.6579313  12.0655525  39.8820710  24.5974112
  12.7247262  38.7012219  23.9176536  39.3529105  55.8729744  74.6599579
  39.4658709  54.9534941  74.9008512  40.2156448  56.1467123  74.3485260
 111.2812088  50.5155373  77.7129459 111.4315966  51.2458181  77.1126890
 110.5408537  50.7961941  78.2508469  20.4978371  91.2124443  64.2378044
  20.8486128  90.5789185  63.6118364  21.2672591  91.6817570  64.5602417
  29.5680761  51.0508251  55.9667206  29.6011972  51.7536402  55.3177309
  28.8693953  51.3116407  56.5667629  31.4529920  75.3145647  38.3952355
  31.6748691  75.5003738  39.3076372  31.5870094  76.1468744  37.9418755
  35.5506563  71.5426064  43.0580187  35.7136512  71.5085602  42.1154165
  35.3314710  72.4583149  43.2302666  36.7870808  53.3892298   7.5924444
  36.9512916  54.2803669   7.2839946  36.3994098  52.9428387   6.8396646
  72.3709822  82.2526264  39.6956706  72.6871395  83.0563450  40.1083660
  71.5119696  82.1025944  40.0904083  29.6074629 101.5656662  56.4431047
  30.2450418 101.1655140  55.8518314  28.8622499 101.7802906  55.8820152
   1.4564210  73.6969614  32.1680427   1.2834530  74.0061951  33.0572486
   2.3293719  74.0321255  31.9634628  35.7771969  99.3325996  58.9218426
  35.0713444  98.8938808  58.4469461  36.1504483  98.6504459  59.4800282
  24.8390412  44.6740007  40.3635931  25.5523014  45.1226521  39.9095011
  24.3951917  44.1747570  39.6780372   9.3193102  38.7045836  26.1666226
   8.6838704  38.4115386  26.8197489  10.1695061  38.5890961  26.5909576
   2.3891105  58.4553909  18.9056051   3.0382198  58.1277561  18.2830751
   2.8195482  58.3884287  19.7579372  34.2710948  40.7481289  26.9031525
  34.1019988  40.3152895  26.0663199  35.0714850  40.3361082  27.2284913
  13.8163137  12.1710777  69.2496967  13.8967645  11.5145469  68.5577965
  13.1004131  11.8529260  69.7996950   0.9051142  38.6485195  20.5166507
   0.4797319  37.9988456  19.9570048   0.4923544  39.4782043  20.2768874
  44.3284607  74.0711164  57.4398136  43.7503052  73.3254194  57.2788572
  44.0658951  74.7225142  56.7894459  54.2094755  76.1094284  58.7620974
  54.9752140  75.8947086  58.2293940  53.4975815  76.2072134  58.1297350
   6.6664225  97.5953770  34.4976974   6.2487435  96.9526291  33.9244223
   7.3902190  97.1189880  34.9043918  15.5590868  86.2913895  79.4103575
  15.5362058  85.5632496  80.0312614  16.0982943  85.9722424  78.6867332
  35.8307695  66.7062378  68.6721373  36.2242961  67.3866558  68.1258821
  36.2370253  65.8932257  68.3718014  37.9039836  53.6162853  52.2236204
  38.0124092  53.1607056  53.0584383  38.7640786  53.9963627  52.0447016
  46.9013882  73.7597942  56.5605259  46.0128212  73.8358641  56.9082212
  46.7835951  73.7046003  55.6122065  42.9297972  91.0951996  50.7516527
  42.8168917  90.4500580  51.4497042  43.8569546  91.0383415  50.5206347
  12.8963649  44.2403030  41.5275621  12.0487750  43.8721466  41.7771244
  12.9482925  44.1023540  40.5817795  18.7330556  38.7694621  68.5211849
  19.5872283  38.3828878  68.7140083  18.4354889  38.3125925  67.7344465
  32.3378468  56.1454058  57.7168941  32.0299411  55.3712320  57.2456360
  32.7481222  55.7966423  58.5082626  18.1946659  51.9013023  63.9379644
  17.8318024  52.3698473  63.1862831  17.5011337  51.9321394  64.5969725
  45.2850103  47.2979355  24.6212244  44.8528528  47.2285509  23.7699580
  45.8156586  46.5039158  24.6858668   4.6807456  67.4375057  46.1051083
   5.2273685  68.2015228  45.9214878   3.8266021  67.8036594  46.3344574
  42.6801157  66.5024281   7.7637333  41.8687868  66.5494013   7.2579932
  42.7969933  67.3864651   8.1116593  33.5774493  83.8828087  42.2401333
  33.9545584  83.5884857  41.4110422  33.7549329  84.8231125  42.2635746
  25.1652837  56.6713095  40.0057125  25.8269954  57.0548820  40.5812502
  24.5217371  56.2888193  40.6021881  16.5393639  48.5560560  47.0325851
  15.9872055  48.8388586  46.3036299  16.6473830  47.6142740  46.8999004
  31.7065716  77.6647758  55.8902168  31.4113712  77.9854059  56.7424393
  31.6975331  76.7115355  55.9767056  45.4313135  59.4550467  67.8669214
  45.8175278  58.5792637  67.8587294  44.5355988  59.3189335  68.1757927
 111.2169168  35.4419518  21.9329119 111.8618008  35.4611945  22.6400089
 110.5367148  36.0547042  22.2123647   0.9205270  73.0945253  35.6342077
   1.6006789  72.4819517  35.3542423   0.1104812  72.5858402  35.5981755
  22.0500231  74.3874741  64.8048925  21.2451386  74.4479895  65.3194094
  21.8181515  74.7574377  63.9530706  31.7152572  57.1758652  31.6104579
  31.8213820  56.2264729  31.6706538  31.2785602  57.3152542  30.7701612
   7.8714496  86.2250805  76.2574100   8.2024395  85.8392525  75.4463482
   7.0188046  86.5889454  76.0190248  91.3303611  72.6133060  34.2284894
  90.5137059  72.4698687  33.7502337  91.8796930  71.8652630  33.9941859
  25.9529638 103.1405830  17.3488390  26.2477899 103.2423592  18.2537985
  26.3310623 103.8895702  16.8880844  56.3812304  85.7195377  52.2198057
  56.7612553  86.5548801  51.9477367  55.5356503  85.6841278  51.7726183
  27.2091532  84.3187904  64.7051001  26.4518881  84.8274422  64.4151974
  27.2707033  83.6006927  64.0751934  85.3604791  97.3294544  59.6039057
  84.8168728  96.7837620  60.1721764  85.7287762  96.7182922  58.9658880
  35.2521276  62.8195190  52.7598000  36.0096741  62.4451113  53.2094336
  35.3661394  62.5634146  51.8445683  35.4172516  52.6077175  58.7209177
  36.2773919  52.4645233  59.1157389  35.4896879  52.2286415  57.8449678
  40.3520250  75.2199984  38.8178635  39.6769571  75.8670998  39.0222526
  41.1615849  75.6038427  39.1547704 107.9571003  72.0234537  34.0564370
 107.6128265  72.7256298  33.5044813 107.6032633  72.2074699  34.9265933
  33.9397311  39.6744323  32.5634360  34.6321249  40.3200722  32.4221182
  34.1559649  39.2715096  33.4043455  38.6021900  59.9075317  52.8048372
  38.1105208  59.7741365  51.9944668  38.0537510  60.4960012  53.3236313
  25.4538774  22.5672865  31.2721133  24.9897504  23.3290148  31.6193748
  25.8509254  22.8789997  30.4588366  35.9511542  52.3034954  25.2918100
  36.4887404  52.9291582  24.8062348  35.7962227  51.5898895  24.6729445
  41.7641068  44.2441130  15.8916807  42.2443962  45.0067139  16.2141716
  40.8680248  44.5585632  15.7717347  38.0192089  53.3323288  38.6577773
  37.2053838  52.9006815  38.9177823  37.8790855  53.5765839  37.7429318
 102.8323677  38.9684391  19.0039718 102.8768900  39.4177890  18.1599736
 101.8964943  38.9145184  19.1975319  84.1294909   9.3727988  68.5012674
  83.6407185   9.4576282  67.6826477  83.4789229   9.0799445  69.1394138
  30.8632398  72.2233200  33.7349939  31.5546393  71.5653658  33.6621737
  30.7714605  72.3711443  34.6762443  22.0201516  54.9629164  39.2977262
  22.4407101  55.1654482  40.1333952  22.6568794  54.4182682  38.8349414
  33.8543081  54.3692875  29.4862747  32.9457688  54.0692139  29.4589448
  34.1471291  54.3296385  28.5758281  54.4735285  26.7327763  72.4413872
  53.9752718  26.0555293  71.9838846  54.3398448  27.5230910  71.9181693
  40.3804541  77.2912025  43.5362053  40.0602531  76.5381861  44.0328646
  40.6011820  77.9415560  44.2029524  21.2486219  27.1346211  41.6388845
  21.1585093  28.0310273  41.9622517  20.4832339  26.6766238  41.9862318
  46.5930653  59.4301271  25.1195049  46.0375309  60.0536823  24.6517515
  46.0238600  59.0624952  25.7955837 110.2283284  68.7409115  44.4956827
 110.2614255  68.5650969  43.5553503 111.0317080  68.3512545  44.8406219
  30.4239583  28.6159134  72.7330589  31.3472128  28.8005590  72.9055119
  30.0786686  28.3155751  73.5737753  15.4084575  82.7617836  42.2412252
  15.7960355  83.1395912  43.0307007  14.8605716  83.4612179  41.8850803
  24.1783023  64.2141676  28.1500816  25.0819063  64.5091391  28.2628894
  24.2467403  63.4420681  27.5884676  50.0182343  85.1303577  50.8226347
  49.5598841  84.4054604  50.3975868  49.3662405  85.5156136  51.4080620
  19.5995760  55.8857012  31.3367581  19.0682316  56.6782141  31.4131236
  19.0222704  55.1810360  31.6306925  25.4228997  75.7341099  64.0243769
  26.1845994  75.8956575  63.4676456  24.9980927  74.9706125  63.6334276
  36.2876487  45.7844925  11.8045759  36.1957502  46.2678242  12.6256597
  37.1312356  45.3388643  11.8820941  12.4949312  51.3013887  19.8174322
  12.2928286  50.4875422  19.3558693  13.0760837  51.0347795  20.5297613
  46.0910940  43.7447262  35.6634021  46.6655016  43.8416195  34.9038625
  45.2162838  43.9422560  35.3288627   3.4793487  84.1080093  43.8693190
   2.5506234  84.2454052  44.0559292   3.4919658  83.7016487  43.0027485
   6.2374550  83.2616520  40.8719540   5.5247569  83.6640167  40.3755665
   5.9946853  83.3926392  41.7885447  40.7544613  65.8808231  17.9194307
  41.4016056  65.4871702  18.5046446  39.9142814  65.5428219  18.2294083
  41.4500904  43.9577579  26.8247628  41.0263300  43.7628412  27.6606250
  42.2024584  43.3667946  26.7941022  53.5767841  78.2355118  41.4393568
  54.0485716  78.2153845  42.2719717  53.1480122  77.3813629  41.3863182
  26.2778091  98.2229519  56.3298368  27.0582271  98.2187748  55.7756186
  26.5732670  98.6040974  57.1566772   2.4167109  55.0656939  32.0457983
   2.9967880  54.4596767  31.5848374   2.9520881  55.4142714  32.7586079
  15.9613860  65.1609707  72.0509911  15.0778937  65.5282688  72.0233583
  16.2642395  65.1970005  71.1436796  43.0102301  64.6848392  54.8565960
  42.9586840  63.8467455  55.3161287  43.9236450  64.7493315  54.5777750
   7.3638040  56.5125561  26.5501022   7.5973684  56.1874580  27.4195790
   7.1814597  55.7232189  26.0402703  42.6857424  88.2529640  72.1592665
  43.5617399  88.4729290  72.4762392  42.7897978  88.1610489  71.2121868
  36.4503551  98.2112885  39.4506407  37.1270061  98.8835144  39.3701267
  35.7433629  98.6396790  39.9332118  32.2188997  46.0882854  63.6353111
  32.4419212  46.4692116  62.7859640  31.3134241  45.7943249  63.5356379
  33.6855483  30.4679060  36.6319585  33.4524035  30.0417066  37.4567199
  33.7172055  31.4005804  36.8449020  28.4289479  75.7496262  37.8310752
  29.3425751  75.9981489  37.9716229  28.2252121  76.0725069  36.9533110
  88.5518170   5.4784411  15.9519100  87.9337550   6.1267394  16.2894678
  89.0841676   5.9614486  15.3198171  22.1373582  85.0290585  20.3983784
  21.5048552  85.7397079  20.5039287  22.9527712  85.3788471  20.7575130
  88.3584377  75.0118351  51.4027071  89.0286157  75.3945255  50.8364534
  87.7691075  74.5558167  50.8018970  32.7068806  51.5120029  63.5685968
  33.5868549  51.8685055  63.6901712  32.4895906  51.7155075  62.6588678
  38.9157724  82.4020958  49.9050188  39.6068048  81.8097687  50.2014065
  38.4435320  81.9042778  49.2376423  27.1464539  66.4806461  46.4887333
  27.2979927  66.5158081  45.5442572  26.2907362  66.8922186  46.6094971
  13.2414961  50.1714706  28.5904860  14.0182126  49.6128368  28.6200166
  13.2600224  50.5614233  27.7165151 109.3816811  31.4986968  26.4360523
 108.6866373  30.8443069  26.3658953 109.2970589  32.0242095  25.6404972
  43.8280106  83.8360882  38.2863092  44.6051168  84.0869522  37.7869010
  43.3575964  83.2332230  37.7105522  39.7998738  33.6947227  56.2071419
  40.1874542  33.2153058  56.9393778  40.0950861  34.5971227  56.3286114
   0.9731240  84.6683311  44.0501642   0.5317244  84.6228886  43.2020330
   0.2674059  84.8155212  44.6798706  37.2565222  55.3619766  55.8063030
  36.8802166  55.6057930  56.6519833  37.6074672  56.1804724  55.4553890
  18.0358708  53.9847994  60.3848934  18.5413587  54.0973377  61.1899090
  18.0725384  54.8404837  59.9574614  14.6448791  87.2751522  51.7012691
  13.9073813  87.8851509  51.6862059  14.5052183  86.7116642  50.9402084
 100.3728232  17.0682311  69.9019575 100.6312487  17.9831147  70.0134706
  99.4332954  17.0607293  70.0848913  36.3943577  38.1502366  65.8862305
  36.8854952  38.9694214  65.9490871  37.0474768  37.4671459  66.0380745
  51.6659212  76.2363052  19.2743361  51.7756939  75.8207321  18.4190679
  52.5576687  76.4329147  19.5613158  31.6337729  43.4326220  45.7021713
  31.1972260  44.2834711  45.6607533  32.4561787  43.5621357  45.2298260
  32.3704672  81.0378551  55.8758783  33.3235455  81.0490322  55.9639072
  32.0480728  80.9513664  56.7729902  21.4719939  80.0453854  17.8578007
  20.8575773  79.3751764  18.1570411  21.8194175  80.4285622  18.6632192
  19.1800976  85.3492737  51.9681740  19.7670722  85.4307270  51.2164688
  18.6566722  86.1505032  51.9512653   7.7686805  95.4495907  56.6906977
   8.6872721  95.1861668  56.6356707   7.2783041  94.6423531  56.5353394
  48.6226034  80.0165749  43.2479572  48.1701708  79.3818331  43.8035154
  49.5221567  80.0228691  43.5750580   3.4690428  32.1495533  50.1214123
   2.8506145  32.2897577  50.8384323   2.9569411  31.7027569  49.4473505
   9.9075913  89.4385147  41.0686445   9.5154083  90.2256012  40.6905937
  10.2764690  88.9710712  40.3192043  36.0699892  51.6434669  88.4579277
  36.2358832  50.9419918  87.8281403  35.3672838  52.1592188  88.0624008
  13.8965213  54.7843361  13.7707424  13.2180524  54.1344452  13.9539325
  13.8438463  55.3985119  14.5030296  34.0196061  82.5396919  66.2026548
  34.3762517  82.3646927  65.3317881  33.0804372  82.3774624  66.1138916
  21.4799047 101.5843391  31.7846417  21.2042499 100.7881451  32.2388673
  20.7726955 102.2089767  31.9456315  25.7902884  66.9509268  13.4898365
  25.4681587  67.8330088  13.3043611  26.0018158  66.9645405  14.4232714
   9.5428592  31.9704676  42.5116158   9.5468217  31.9913459  43.4685802
   8.6189163  31.8816137  42.2778082  19.3781686  72.3349953  50.4935694
  20.1869750  72.6458073  50.9003401  18.8109875  73.1056643  50.4688549
  25.6678605 101.3048458  11.1933482  26.2922525 101.7547989  10.6242251
  25.6785893 101.8092823  12.0067716  29.3509293 100.1482105  34.5051980
  28.8407087 100.3616524  33.7239528  28.9977551 100.7211208  35.1858377
  37.6401305  76.6447020  27.5754166  36.7582345  76.9866467  27.4285698
  38.1888509  77.1222210  26.9532323  25.6349015  25.5008054  38.1779265
  24.7637177  25.5456781  38.5719562  25.7006526  26.2970614  37.6507807
  30.2153254  66.5541077  42.5518560  29.8952270  67.4219990  42.7978992
  30.9239483  66.3760042  43.1702137   6.5369827  72.2307634  35.9471703
   6.1207086  72.1568203  36.8059349   7.4756223  72.2243500  36.1346436
  35.7268238  66.6030884  50.9408331  35.5768991  67.2617960  50.2627039
  34.9942470  65.9938669  50.8490944  33.5124302  46.0907125  48.1966448
  34.1121340  45.8255434  47.4993134  33.7294579  47.0079803  48.3632517
  31.4510942  88.3271217  62.4479675  30.5981135  88.0347061  62.7691364
  31.2487483  88.8472843  61.6703320  28.8575840  97.5766754  54.8609257
  28.8182163  97.2830200  53.9507341  29.4612241  96.9658852  55.2837610
  24.5015955  75.5752277  68.1055832  25.4046488  75.8247566  68.3017015
  24.0939188  75.4574966  68.9635849  22.9798818  59.5489264  66.0140610
  22.8066134  59.1300297  65.1710081  22.6654768  58.9197111  66.6632652
  19.0267277  72.0020723  66.5042543  18.5826933  72.8500319  66.4987040
  18.8001335  71.6075325  65.6620979  30.2027917  78.1458807  21.1638665
  30.8585238  78.3546495  20.4985380  30.7044673  77.7593279  21.8815947
  38.1405997  45.9942198  66.9257832  38.2308626  46.0587263  67.8765297
  37.3085785  45.5395412  66.7944813  45.5152655  91.4064026  19.1837609
  45.2561808  92.2186279  19.6189570  46.4569855  91.5011120  19.0408528
   1.7794479  52.2770405  57.5846052   2.1689415  52.0057058  56.7534018
   0.8549469  52.4186897  57.3809767  54.3802977  33.1311226  20.7530522
  53.4766436  33.3561802  20.5317140  54.8866653  33.3876443  19.9823260
  61.1364508  90.1107597  57.0571423  61.5682459  89.5262623  57.6801586
  61.0265589  90.9322453  57.5360155  25.5765057  38.9531541  12.7476299
  26.0713673  38.1338549  12.7572989  24.9125051  38.8399458  13.4277165
  42.7108843   6.7147750  42.2075510  42.2793884   7.2029037  42.9088211
  42.5965423   7.2611541  41.4299679  31.1391664  85.5150318  63.4955597
  30.6152844  85.7167339  64.2708635  31.7646742  86.2370205  63.4346914
  21.0387993  69.8396683  17.4640572  20.3907585  70.4268456  17.8532791
  21.8723917  70.2975702  17.5721478  17.8019619  79.5285130  71.7353106
  17.7436411  80.4207230  72.0770502  17.4186110  78.9833355  72.4223757
  35.1913857  69.5198393  59.0302706  35.5507469  68.6527777  58.8423967
  34.3846226  69.5611382  58.5167933  23.4152389  62.2496557  90.8272266
  23.9731979  63.0184364  90.9450817  23.1718063  62.2699976  89.9017239
  34.9555588  41.9142914  41.2208414  35.2294397  41.4595461  42.0173502
  35.6436181  42.5614405  41.0658932  24.4610858  79.7258043  48.7888527
  23.9021373  79.4740534  49.5239925  24.9783921  80.4592705  49.1214943
  21.1313558  66.7311716  54.0739441  21.7488885  66.8838882  54.7891808
  21.6847467  66.5886402  53.3060408 108.6263871  77.0119286   5.7987988
 108.5726005  76.1666059   6.2446350 109.5116428  77.3249102   5.9847987
  28.1019998  76.6708422  64.1053152  27.5402999  77.2692633  63.6127567
  28.9816976  76.8330431  63.7646437  17.8777993  70.3318357  54.0558529
  18.7126589  70.7856989  54.1709614  18.1060362  69.4024086  54.0734720
  39.0689039  78.4648895  58.0742407  38.2899308  78.1497765  57.6158333
  39.0120363  78.0683565  58.9435816 108.7493494  35.6268930  72.1668816
 108.2163301  34.8369551  72.2569847 108.1312922  36.3478661  72.2870398
  26.9493294  80.4360580  75.5129337  27.3847556  80.6992912  76.3237000
  27.0838547  79.4895554  75.4652166  32.5158024  48.7484074  24.8513913
  32.7635980  47.8446388  25.0464058  31.6767597  48.6739302  24.3967557
   2.1713555  53.5550737   5.6333447   1.3278115  53.2295656   5.3191620
   2.7765387  53.3886194   4.9106562  15.9510601  65.9182119  77.7848625
  15.1946115  66.1669254  77.2536802  15.5839443  65.7195616  78.6462593
  46.3074923  67.3736286   1.5847664  45.3968954  67.4935150   1.3151854
  46.8128777  67.4912691   0.7804170 111.2944415  62.6088285  15.8115995
 111.9848664  62.0942926  15.3935111 111.4656826  63.5090160  15.5348885
  50.3276730 100.5903171   3.0908108  50.5061401 101.5040229   2.8682804
  51.0620130 100.1045202   2.7153397  12.6287174  58.5041237  48.4838152
  12.4422729  57.9439878  47.7303457  12.8020406  59.3657637  48.1046486
  28.1771493  62.7001238  18.5554969  29.0466928  63.0018330  18.2926333
  27.6022625  62.9746962  17.8411114  51.5732956  77.0185184  57.6019669
  51.2201548  77.4984121  58.3511162  50.8270025  76.9125700  57.0120096
  38.4626555  71.1558437  53.4962749  38.4517336  71.9098473  54.0858459
  37.6931310  71.2757683  52.9397821  22.7166295  64.4082451  44.5909834
  22.0223045  64.8308420  45.0965118  23.5275126  64.7684526  44.9500847
  34.8631406  38.9687538  34.9208570  34.6280193  38.5981703  35.7715130
  35.8199048  38.9967537  34.9279928  32.3662758  47.0013189  57.6929712
  32.5187230  46.8727732  56.7567730  32.2671056  46.1160517  58.0432606
  54.6911478  67.5809288  75.2379370  53.8322258  67.3604107  74.8775768
  55.1420116  68.0314493  74.5238018  21.3442850  56.5711164  26.2145090
  21.2283087  56.1570311  25.3593397  22.1319985  56.1626673  26.5735459
  15.4691100  77.2424889  11.8705630  16.2644398  76.7811680  11.6043520
  15.7753742  78.1039762  12.1538794  93.1826545  15.6381457   6.8126011
  93.5548796  16.1736767   7.5132370  93.6915638  15.8719103   6.0363293
  36.3419747  65.8276701  39.0012503  36.2662697  66.1846209  39.8861718
  35.8454537  65.0098133  39.0295959  17.7376163  55.1981688  35.1242161
  17.0122528  55.7956696  35.3060865  17.5049078  54.3918419  35.5845523
  52.0817995  99.8471451  50.0456142  52.8668308  99.8472023  50.5932999
  52.4111032  99.7261238  49.1550255  13.5156631  77.1581745  43.0395031
  13.4956396  76.3017321  43.4665155  13.1114995  77.7511454  43.6729574
  13.5686600  64.2629814  52.6949263  12.9206014  63.8781500  53.2849741
  13.1158781  64.3325567  51.8544626  37.2009516  74.5529652  48.9148331
  37.8262687  74.3008423  49.5942736  37.3534155  73.9286757  48.2054329
   8.7088972  83.8085365  58.5790205   9.6048492  83.8739109  58.9095163
   8.7483412  83.1207657  57.9144526  29.8886776  52.8027201  59.4509840
  30.1410222  53.5594034  58.9218473  29.1088414  53.0913401  59.9250984
  53.3897877  82.1220970  60.3579187  52.8203154  81.7004395  59.7143841
  53.4468937  83.0323124  60.0672483  24.2705679  83.4797096  59.0286350
  24.3832040  84.2977715  59.5127058  24.3409204  83.7341976  58.1085730
  27.0154262  60.6345129  23.6151338  27.2914457  60.0711727  24.3381143
  26.5502596  61.3563156  24.0380406  20.1451731  73.6873341  58.9244699
  20.4874349  74.5806885  58.8927078  20.4824352  73.3307076  59.7462368
  13.0940855  63.6220932  71.1069155  13.4586787  64.4937277  70.9534359
  12.6278853  63.4116125  70.2978516  36.5502620  81.7737770  38.2923865
  37.1602654  81.2203026  38.7800288  36.5971732  81.4478302  37.3936152
  48.1823349  90.3283119   9.6924436  47.4952507  90.3638172  10.3579402
  47.8307962  89.7496033   9.0158772  47.3598671 105.1851559  17.0918512
  48.0380726 105.8567333  17.0194542  47.5086403 104.7859383  17.9490149
  60.8046293  75.5128717  55.5281019  60.4145670  76.2878847  55.9323835
  60.9622526  75.7702398  54.6197271  71.4144373  80.1791954  47.5428009
  71.0966825  79.6315813  46.8248987  70.7905865  80.9039211  47.5854588
  85.1429415  21.9911212  46.8675995  84.7447873  21.8539161  47.7271843
  85.1653195  22.9423350  46.7630863  52.8484154  74.0594530  59.9869490
  51.9406366  74.0747595  59.6837378  53.2991266  74.6902323  59.4255209
  43.7232685  92.3612785  40.0128460  43.0947733  91.7822838  40.4441166
  44.5185280  91.8345642  39.9330616  57.3476839  66.6425037  14.6248925
  57.0491791  67.3851681  15.1498449  56.6064644  66.0368490  14.6235156
  65.2222753   0.6879539  29.4774127  64.3852449   0.6971473  29.0131688
  65.7401467   1.3707847  29.0510583  40.2875137  87.4123859  23.8649011
  40.6079578  86.8567371  24.5753956  40.3539515  86.8638611  23.0832791
  49.6491051  78.2373619  59.4584560  49.7854137  77.4549103  59.9926996
  49.4568300  78.9291048  60.0915098  57.6238585  90.3815556  67.3904657
  58.5206318  90.6416893  67.1798515  57.7229071  89.6069050  67.9439497
  10.1895666  91.4973831  39.0913057  11.0355425  91.2765026  38.7017274
  10.1237500  92.4477482  38.9980435  57.2834206  80.0899410  58.7664938
  56.6668510  79.6265125  58.1996489  56.8507481  80.1164341  59.6199131
  39.0454984  87.7023888  41.9355440  38.2720041  88.0822277  41.5188169
  38.7229156  86.9072056  42.3596430  92.3557281  93.6777973   6.2758309
  91.4586067  93.8887596   6.0171670  92.4834728  92.7754402   5.9831572
  33.1673551  84.8426437  31.6328287  33.3853626  85.1420021  30.7501674
  33.6278009  84.0083694  31.7233491  49.8002386  75.5466461  79.4688606
  50.1173925  75.7422209  78.5871601  50.4278278  74.9114943  79.8137426
  93.2091614  26.7093445  74.2509925  93.8263413  26.7762591  74.9795830
  93.1518682  25.7709624  74.0710390  31.7078185  81.3658810  58.9371729
  32.1403265  82.1644115  58.6346436  32.2973251  81.0117245  59.6029711
  39.5714140  94.7775650  73.0761003  40.4999447  95.0098515  73.0659246
  39.5630956  93.8296890  73.2091236  49.6331882 105.1574230  54.5937538
  48.8383341 104.6243382  54.6097994  49.8257828 105.3280735  55.5157185
  52.4780083  67.1860647  67.5063276  53.2726669  67.4572563  67.0467520
  51.8061018  67.1553898  66.8252754  93.4942818  81.3134289  35.7002497
  92.7842140  81.6408539  35.1481509  93.6627769  80.4292870  35.3744483
  53.5084248  98.3170700  42.3342276  54.1601133  99.0054321  42.2012186
  53.8233185  97.5837708  41.8056965  64.5808411  71.2909317  43.0658913
  63.8949347  71.0476494  43.6876488  64.9422979  72.1057320  43.4147215
  35.1041412  93.9664936  66.5306520  34.7537684  94.3667507  67.3264360
  36.0458875  93.9023018  66.6894817  29.1532183  57.8083754  24.2151737
  28.5824084  58.4708929  24.6043777  29.9330711  57.8081751  24.7702050
  21.0427475  92.3306847  67.9093027  21.4849329  92.3383331  67.0603943
  20.1102304  92.3442841  67.6937580  33.8500428  97.0228767  15.1973653
  33.5286331  97.5171757  15.9514153  33.1995249  97.1800613  14.5130050
  76.0310555   2.1544093  45.9439135  76.5868784   1.5447635  45.4585028
  76.3372422   2.0893878  46.8484879  52.7346420  61.9181776   1.7005365
  52.0205879  61.5866041   2.2449724  53.0885124  62.6580191   2.1941400
  15.4958332  80.4777813  46.5255165  15.4263222  80.2042484  45.6108665
  14.8115635  81.1388302  46.6304827 111.0349757  97.6781750  47.4597883
 110.3851607  98.3663750  47.3170996 111.6308862  97.7531910  46.7144728
  30.0441265  99.1217613  28.6190796  30.5817580  99.9035072  28.7458014
  30.4396582  98.6781025  27.8687787  35.9914660  64.4332457  16.3577902
  36.8997765  64.7348690  16.3427567  35.9495878  63.7651682  15.6735754
  41.3464212  96.7291451  51.5922356  41.7195320  96.8854332  52.4597597
  40.4185581  96.5615654  51.7572165  16.1422873  67.5066948  59.5002604
  15.7781935  66.6271925  59.6009970  16.3080513  67.5911951  58.5613155
  32.8536439  71.1832857  70.7462645  32.7474737  70.7079601  69.9222326
  33.7515616  70.9935427  71.0182428  69.8822451  76.2564516  63.1592941
  70.6717300  76.1101389  62.6382065  69.9077415  77.1884012  63.3762169
  43.0732584  59.8712683  59.9872684  42.9032898  59.1475868  59.3842554
  43.0942965  60.6484222  59.4288588  21.3149357  74.2173958  41.5357733
  21.2619162  73.2635069  41.5950823  20.6213140  74.4581032  40.9216213
   4.2356738  94.1068172  67.4751568   4.7088897  94.9387264  67.4600172
   3.5362852  94.2173481  66.8310499  33.1413245  87.5277233  75.9284258
  32.7749991  87.8811741  75.1178026  34.0571237  87.8060246  75.9187365
 111.4623025  87.8479862  45.8625078 110.8086576  88.3368397  46.3625097
 111.4263644  88.2285309  44.9849415  33.1040335  71.7835093  10.5508626
  32.2435141  71.3706446  10.4781711  32.9149866  72.6904488  10.7915866
  34.4613504  75.9811115  37.0297122  35.4027343  76.1508799  37.0644403
  34.3124819  75.3182602  37.7040267  48.8058376  96.2138557  38.4901929
  48.8490534  95.7833862  37.6363420  49.7051907  96.4915466  38.6642122
   6.1773479  52.8970909  29.4846368   6.5459913  52.0963383  29.8576331
   5.3186035  52.9810905  29.8990464  17.9128766 103.1257153  28.6213851
  18.3359861 102.2737980  28.5143518  17.4721575 103.2808971  27.7859712
  31.3522124  83.6044407  53.9936209  30.5448079  83.4156322  53.5154152
  31.4335227  82.8850460  54.6197939  24.2900610  74.5747948   4.7978008
  25.0223255  73.9640617   4.8815963  24.2048550  74.7187090   3.8553247
  25.2515507  86.3186550  50.4560184  25.3799987  86.9025040  51.2035799
  26.1007261  85.8937263  50.3353024  33.4353280  62.2422409  44.7207260
  34.2260599  62.7316380  44.4938564  33.0657840  61.9800138  43.8775730
  36.5207314  76.4757156  14.0750074  36.9974279  76.1068344  13.3314228
  37.0989823  77.1583605  14.4153821  11.6468596  63.4484720  45.9881306
  11.5412462  63.6437273  46.9192362  12.5931096  63.4681559  45.8451128
  20.4842162  72.8206110  30.9290576  21.0216355  73.1096792  30.1915932
  21.0408926  72.2032499  31.4036179  37.7443314  61.6043615  45.7702065
  38.2846212  61.0836792  45.1758909  37.1910024  62.1299648  45.1924562
  20.0815344  76.0932922  44.8263884  20.5009294  75.6379461  44.0963173
  20.7915831  76.5803528  45.2445221   6.9929600  73.7238741  13.0140245
   7.0273304  74.6756554  12.9182863   6.0583830  73.5206318  13.0526173
  47.8861726   1.4126414  37.3677826  47.0833290   1.5828818  37.8604221
  48.5782982   1.8177337  37.8903699  50.4108000  82.4775410  47.3439646
  49.9196339  82.4208069  48.1635809  49.7740841  82.7974319  46.7048264
  37.6704597  67.5921583  54.1115856  37.4615717  68.5255051  54.0733719
  37.9768348  67.3790073  53.2301474  24.5365882  62.1481037  26.6317320
  24.3017650  61.2600374  26.9008613  24.7196794  62.0740080  25.6951308
  66.5093708  80.2629089  46.5143013  66.9214964  80.9526825  47.0344925
  65.5841064  80.3006554  46.7565680 109.3951502  84.7100830  36.3809752
 110.0943613  84.9326420  35.7663202 109.2328629  83.7785721  36.2320638
  48.6211872  80.2396393  49.2196417  48.2242870  79.8992682  50.0214195
  48.9765120  79.4664192  48.7813425  42.1473551  75.4956150  58.8133478
  42.8216934  75.8387947  58.2270670  42.2923756  75.9553432  59.6402979
  40.8768129  70.2984476  48.6310387  41.0783195  70.9554815  49.2973232
  41.3449049  69.5145273  48.9184237  32.3585749  57.6077700  62.1799755
  32.2407031  58.1973505  61.4351702  33.0541992  57.0105362  61.9049358
  57.1053457  66.7819834  65.2767420  56.2971640  67.2817373  65.1613379
  57.6782751  67.0873260  64.5733595  51.5868998  86.1990261  46.6060114
  51.6553593  86.3430691  45.6621933  52.0507193  86.9401646  46.9956684
  29.7966552  95.2541828  25.3828740  30.4794002  94.9022675  24.8116875
  29.6953988  94.5948982  26.0694027  10.5443621  66.5490055  62.6924562
   9.6218681  66.2947845  62.7171373  10.5846834  67.3545551  63.2079124
  12.9330313 100.1446533  67.5231647  13.1443143 100.5086327  68.3828831
  13.7833011  99.9390221  67.1345949  23.3534956  62.1980238  69.2564392
  23.0929732  62.6382160  68.4473705  24.1042042  62.7012062  69.5718384
  39.9967051  72.3046637  38.8241577  40.5920458  73.0519199  38.7657261
  39.1266775  72.6805210  38.6899209 103.9014450 100.1478958  30.0694442
 104.6627554  99.5999146  29.8787570 104.1140595 100.5724430  30.9005809
  46.2816238  96.1474895  34.3572474  46.5315771  96.0247326  33.4414482
  45.7498312  96.9433689  34.3557644  18.3541346   8.9833552   0.4902242
  17.6390791   8.8330835  -0.1281178  17.9738712   9.5473731   1.1636600
  11.3208870   9.4876594  41.4297056  11.6869072   8.6222953  41.2469864
  10.4707531   9.4858855  40.9898186  49.2968941  84.5870590  18.8213980
  49.0940762  85.5191994  18.7426221  50.2129316  84.5637989  19.0981007
  79.9878836   0.8452815  60.5531073  79.7287322  -0.0010091  60.1885796
  79.2255641   1.1333388  61.0552216  24.4993281  80.0608158  63.4316778
  23.8269496  79.3921566  63.3011818  24.2207980  80.7914925  62.8796244
   9.7196770  42.2179508  76.8976545   9.2899626  42.1079636  77.7458763
   9.0600175  41.9490194  76.2583160  36.5423775  92.4228191  46.3668251
  37.1453881  92.0684910  47.0203161  36.0766649  93.1223774  46.8250465
  31.8300438  83.0266380  17.7953815  31.6584516  82.4344063  17.0632243
  31.8359184  82.4591255  18.5661817  73.4572602   0.6173152  36.9432998
  72.8871609  -0.0311166  36.5300846  72.8574181   1.2799090  37.2859263
  54.6051693  94.3331242  32.6559019  54.3573332  95.2161789  32.3820043
  55.5322695  94.2630959  32.4282861  51.9155121  97.9076576  44.4520760
  51.8055630  97.0319366  44.0816021  52.5616264  98.3283234  43.8847923
  39.5045996  81.0769939  54.0536976  38.7465096  81.2091064  53.4844208
  39.5176649  81.8497849  54.6183681  45.9359503  99.5262146  68.5851049
  45.0716400  99.8533821  68.8344240  46.1324167  98.8502216  69.2336941
  60.3533220  94.2220306  31.5696383  59.7488880  94.4556522  30.8651471
  61.1923695  94.0850925  31.1297750  34.3372798  84.4259834  35.2688384
  34.6347189  84.7926617  36.1014915  33.7573862  85.0954533  34.9058390
   8.3808279  95.5972767  35.2727246   8.7491202  95.6016922  36.1562252
   9.1094267  95.3333569  34.7108340  24.7367120  97.0695591  62.2749949
  24.0006113  97.4756908  61.8173409  24.9444366  96.2941074  61.7536879
  46.8560934  75.0485420  44.8337269  47.2884607  75.4885912  44.1018486
  47.3376417  74.2278910  44.9380302  66.2528826  22.2758693  63.2177448
  67.1106172  22.6979465  63.2664394  66.2378979  21.8627471  62.3544121
  39.0472984  62.9443502  59.0559626  39.2663932  63.5222340  58.3250141
  39.2595720  63.4552002  59.8371172  15.6313002  80.4073811  19.1663384
  14.7599316  80.2242374  18.8150501  16.0339975  80.9857082  18.5185623
  60.0690508  81.8914700  33.5925698  60.7597971  82.0141315  34.2437649
  60.2403212  81.0257244  33.2219052  49.6169853 101.1290073  32.6620436
  49.7953653 102.0482159  32.4633622  50.2756643 100.8929539  33.3152294
 104.6099664   3.7622756  57.9966307 105.0686980   2.9224605  58.0190563
 105.3074361   4.4170875  58.0280828  61.9225311  68.8392258  60.0656843
  61.8441343  69.1739655  60.9590149  62.4928570  69.4680405  59.6234751
  88.1225920   9.8707122  61.7902851  88.7199879   9.2106456  61.4386272
  87.6701928  10.2181167  61.0215998  35.3770185  48.6628389  72.5188541
  35.2075934  48.3684969  73.4137821  35.2201128  49.6067715  72.5434303
   6.0568649  85.2041912  30.3241920   6.1871254  84.3412495  30.7173872
   6.5885168  85.7937717  30.8589482  63.6117601  76.7869663  12.6447654
  63.6593866  77.5667238  13.1978869  63.8372087  76.0639524  13.2301307
  45.6736040  90.2258301  63.9297247  45.8321810  89.3513966  63.5741234
  46.4700699  90.4337978  64.4182158  42.1808147  81.7182827  53.2187223
  41.5494823  81.4228344  53.8747406  42.9430628  81.1540985  53.3487272
  25.2621055  43.8058996  58.0235243  24.7877359  44.6028137  57.7866077
  25.0597906  43.6731100  58.9496279  34.2895055  64.3005419  50.4993391
  34.3538213  64.0355015  51.4168644  34.9495077  63.7721205  50.0505638
  16.8121207  59.2325735  34.3874478  15.8636343  59.1364193  34.4732428
  17.1518600  59.0466547  35.2628016  67.1714878  65.5174828  54.2243052
  66.8470764  65.3078794  53.3484888  66.6309452  64.9901485  54.8124933
  42.9675007  61.2053108  63.4054947  43.5367203  61.0933018  64.1668606
  43.5650253  61.4203453  62.6892853  45.1429796  88.5620594  60.7814264
  44.2292976  88.3241463  60.6239271  45.1661015  89.5121956  60.6676626
  53.6839008  86.9053364  51.9792747  53.2995462  86.1372852  51.5566730
  53.0475569  87.1532345  52.6499796  90.8627459  64.1079950  41.4174175
  90.8424947  64.9478054  41.8762589  90.0625417  64.1026783  40.8921814
  16.8669152  67.9575491  40.5719090  17.2771704  68.7301636  40.1833391
  17.0176864  68.0536842  41.5122604  18.5737658  89.3594074  26.9434738
  17.8033340  89.4183540  26.3785028  18.5263610  90.1400566  27.4953580
  49.1393423  91.3849831  32.7714586  49.4460297  90.6676960  32.2167635
  48.9691877  92.1031761  32.1619773  50.9265757  88.3817196  56.5901566
  50.1608133  87.8282547  56.4368010  50.9953976  88.4366322  57.5433016
  40.9634876  81.4421177  66.2604713  41.8314171  81.2165642  65.9257269
  40.3811550  80.7859707  65.8776045  69.8087121   3.4035892  42.5629044
  69.0893675   3.1541461  41.9827652  70.4774833   3.7575454  41.9766521
  43.7836266  75.3807640  55.0847816  44.3279362  74.7914171  54.5626402
  43.0018377  75.5210114  54.5505810  36.9473124  78.4516716  50.9730196
  36.2280679  77.8265715  51.0633898  37.6112843  78.1436396  51.5898561
  48.7204981  92.6414204  62.3306370  48.4444046  92.1613598  63.1113720
  49.1983318  91.9963360  61.8093157  36.4164424  67.7566290  48.0628777
  36.1180019  68.5702229  47.6563883  37.3682690  67.7741528  47.9631233
  34.5290709 104.2716312  40.0717831  35.2423000 104.3046951  40.7093096
  34.9432278 104.4919300  39.2374134  24.4007921  67.5359058  64.1764021
  23.4496093  67.4711752  64.0910006  24.5353007  68.1586838  64.8907423
  35.5170870  87.9723740  35.0837064  35.0264215  87.9971218  35.9052086
  34.8484468  87.8556061  34.4087839 102.0419312  94.8543549  75.0606203
 102.7409554  95.0458050  74.4353580 101.7829227  95.7110596  75.4000378
  30.5782604  67.2374868  77.2194672  30.9087777  67.3055172  76.3237190
  31.3636374  67.2534752  77.7664185  47.6094198  94.5289612  77.6106501
  48.4002972  94.0675354  77.8896332  47.2531939  94.9025917  78.4167099
  20.7651377  84.2827988  39.0925860  21.6372681  84.1895390  38.7092805
  20.8871245  84.8932171  39.8197317  59.0365839  65.9805727  35.3205562
  58.2748604  66.4309072  34.9555755  59.5737267  65.7626820  34.5588255
  21.7608142  97.5882149  25.2071810  21.4563227  98.4709644  25.4176211
  22.4099326  97.3914051  25.8825660  32.7704263  70.7270813  35.4972696
  32.2796464  70.6202602  36.3121057  33.3538151  71.4673424  35.6643343
  34.2880964  77.3790741  54.9220705  33.4040952  77.6187325  55.2001619
  34.3391681  76.4352894  55.0733566  18.5763501  44.2842413  79.3625665
  17.9785680  44.9277426  79.7430813  18.0937146  43.9177538  78.6216307
  30.4852223  83.8207436  42.3749876  30.4869699  82.9771519  42.8272867
  31.4045238  84.0870762  42.3612928   6.7726225  82.5193596  50.4364443
   7.3785204  81.9343758  50.8913183   6.3595665  81.9672108  49.7725487
   9.6345097  72.7201462  18.5687673   9.4891471  73.3674955  19.2587245
  10.2445793  72.0916033  18.9547443  34.6879911  75.6111431  66.6906595
  33.8459969  76.0641861  66.7356873  34.6568584  75.1293850  65.8641195
  68.2667208  16.3660831  55.7879305  68.4563137  16.8799800  55.0029469
  69.1018463  16.3233775  56.2537336  20.4608750  82.7543831  29.7674847
  20.1508641  83.6393261  29.9598670  20.7106447  82.3975182  30.6198287
  59.1814280  72.2141981  72.2890615  58.5918045  72.1475983  71.5379667
  60.0270414  72.4528599  71.9093132  46.1911058  79.1242552  29.4385862
  45.2752495  79.0618420  29.1673970  46.5028238  78.2192373  29.4395423
  66.3458968  14.4425887  72.9518700  66.5973807  14.8827094  72.1399117
  65.8750177  15.1104182  73.4503794  36.0357046  76.9449329  40.3383684
  36.2957120  76.1911392  40.8679199  36.2855625  77.7047014  40.8642578
  48.9763451  75.3219366  34.6538329  49.6873760  75.9606552  34.7058296
  48.4016323  75.5431223  35.3866458  51.9292641  85.3453350  56.9001198
  52.5870609  86.0336685  56.8014717  51.6990280  85.1037216  56.0029888
  39.1882324  62.8144169   7.8786331  39.4664860  62.9927540   8.7769663
  38.2420111  62.9586792   7.8878742  14.6259058  79.5004940  48.9573336
  14.7691500  80.0715542  48.2026148  15.5061936  79.2591429  49.2455673
  46.0173130  88.1290722  23.8688874  45.1465464  87.7764416  24.0523243
  46.3463354  87.5918484  23.1482196  20.3254724  40.1978016  46.5002871
  20.0135779  40.9829855  46.9502258  19.6612871  39.5345330  46.6878080
 101.7766239  39.0834706   0.7445717 102.2874762  39.6722119   0.1890087
 101.1955358  39.6630852   1.2371349  84.5935918   1.4844245  70.8140230
  84.3964625   2.3974341  70.6047535  83.7909318   1.1521453  71.2159681
  28.0252028  83.3112335  31.4635253  28.6059165  83.1333351  32.2033620
  28.4443235  84.0355396  30.9988308  39.5713592  90.6596184  38.7552261
  38.8116956  91.0623074  39.1759133  39.2078114  90.1862144  38.0069232
 104.3018628  16.1219520  31.2625742 104.0849114  15.5187434  31.9734168
 105.1181508  15.7793921  30.8984923  40.3077030  99.0683270  56.9225550
  39.5770335  98.7387466  56.3993597  40.7402754  99.7061539  56.3548517
  77.6505613  75.6996632  39.8030543  77.5997925  75.6626797  40.7581902
  78.1844378  74.9426031  39.5620871  83.6664295  81.8303585  83.4974289
  84.4186592  81.9668770  84.0734005  84.0038872  82.0013332  82.6181507
  66.1145378  17.3656959  41.5949535  66.5947891  17.4228210  42.4209833
  66.2199522  16.4551848  41.3190985 109.0834380  15.7687587  39.2494559
 109.4977999  15.8245296  40.1105165 109.3651534  16.5633697  38.7961698
  59.7387028  98.0725479  23.8384295  59.4185209  98.0307388  24.7395229
  60.6919909  98.0491447  23.9216423  89.7003461   5.7849044  80.6062794
  89.2654801   6.1404723  81.3813210  89.0095855   5.7357043  79.9454737
  47.3486805  94.0454388  52.4843121  46.9219351  93.1915951  52.4131393
  46.9152880  94.5856285  51.8235540  83.7938309  78.1261301  39.0449214
  83.0065346  78.1599998  39.5882845  84.3546200  78.8197184  39.3923092
 108.8592101  29.9117583  51.9470549 108.8464690  30.3963298  51.1216688
 108.4215022  29.0845889  51.7459583  38.6570001 103.6261463  46.0171461
  39.0433097 104.4703102  45.7839584  37.8498363 103.8516808  46.4795876
  59.6630621  85.2251148  49.7900820  59.3464327  84.3246365  49.8616552
  60.0628233  85.4067516  50.6406307  61.6114998  99.3979645  11.5670478
  61.7153931  98.4475327  11.5211046  62.1290541  99.6589375  12.3287988
  39.2472219  86.5585899  16.7446637  40.1628923  86.8348026  16.7831886
  38.9981818  86.4265823  17.6594234  80.0610829   4.4812221  26.5992880
  79.5705176   5.1396102  27.0913243  80.2873898   4.9160499  25.7771301
  50.2840853 102.7488899  42.2131109  50.9580946 102.8030586  42.8906107
  50.7725477 102.6342392  41.3979435  92.3954154   5.7146091  22.8412557
  92.9637767   5.9845561  23.5625935  92.3649884   4.7600001  22.9046488
  94.9198437   3.7899131  38.6077785  95.4662467   4.4289893  39.0652204
  94.9380160   3.0143184  39.1684508  64.1277838  73.4693766  22.1563840
  63.7197924  73.7246323  22.9838014  64.6451998  72.6939344  22.3736548
  74.5450974  97.0926666  29.9131536  75.2139902  96.5298367  30.3030753
  74.7509813  97.0970821  28.9783669  59.2293119  95.0215912  79.8791647
  58.9545059  95.4440022  80.6929684  58.4137678  94.7215176  79.4778156
  89.4243861  22.8468436  50.6999302  89.6454716  21.9195384  50.6136084
  89.2627049  23.1390399  49.8028755 104.0737630   6.0212058  67.6260757
 104.4815207   5.2424830  67.2471905 103.4388591   6.3034934  66.9677114
   6.0872368  59.8046035  36.2712574   5.7105354  60.6845397  36.2634420
   5.4564718  59.2697448  35.7892942  39.5640612  92.6873493  43.4925222
  40.4134846  92.2507095  43.4288406  39.7639275  93.5472679  43.8624239
 101.7800618  13.5813159  18.0089235 101.4550401  12.7245921  17.7321339
 102.3074198  13.3976764  18.7863553  64.6740580  92.4443817  62.9481554
  65.3801823  92.2384548  63.5607052  63.8918161  92.5060654  63.4963560
  76.4660454  92.7597141  25.8148241  76.0839653  91.8923473  25.6809545
  76.3897896  92.9122448  26.7567110  74.0967346   7.6111621  20.2241373
  74.1651107   6.6755218  20.0340724  73.7395168   7.6498717  21.1113381
  72.7783298  89.7395992  47.5347376  72.3755693  89.5593166  48.3841610
  72.6770544  90.6841469  47.4172783 100.7547379  95.2064228  27.4606037
  99.9265480  95.2985954  26.9896054 100.5832195  94.5309258  28.1167507
  47.1594620  74.4184208  63.1638575  47.6247692  74.0886974  62.3950911
  47.2920465  73.7450695  63.8311291  85.2582169  94.6603489  56.6866302
  84.4606495  95.0303078  57.0650959  85.0744534  93.7241936  56.6087198
  53.1634760  67.1042776  82.0773411  52.3711586  67.0844936  82.6140690
  53.1558514  66.2699747  81.6081905  58.9594936  66.3629484  76.0910082
  59.3787003  66.9925690  75.5044317  58.3870029  66.8949175  76.6437197
  55.0116968  96.6404819  26.6641474  54.9756908  95.6982613  26.8289447
  55.7376528  96.9507313  27.2054148  71.6798401  82.2986984  70.0188160
  71.8389559  83.0705452  69.4755363  71.9106913  82.5777340  70.9048605
  11.2095550  11.7385024  56.0551262  11.7540363  11.0266227  55.7189751
  10.7274441  12.0529574  55.2903271 107.3224831   6.3652057  32.2742128
 108.1188012   6.4837665  32.7919555 106.6104699   6.5758056  32.8782916
  40.3330326  80.3843594  42.7074242  41.2353325  80.6318188  42.9095459
  40.2775145  79.4605923  42.9519796  64.7436333   0.8328551  46.3677931
  64.4735647   1.2395209  47.1911478  64.5611621   1.4959163  45.7019949
  68.0032444  74.8339653  37.0894504  67.3439026  74.1408634  37.0562387
  67.5280666  75.6015253  37.4077129  45.2628803  75.6159925  87.2082138
  44.7046232  76.2488985  86.7565441  44.9979877  74.7671890  86.8538189
  58.9145399  11.6955680  44.4991446  58.9043451  10.9197921  45.0597620
  59.3997551  12.3488921  45.0030947  24.2423539  21.8614047   4.0539837
  23.5169701  21.2746232   3.8401222  24.3313508  21.7955630   5.0047588
  81.4599705  35.5424232  25.5025172  80.7023812  34.9776382  25.6552052
  81.1076022  36.2907809  25.0208259  85.1008988  19.8853034  78.0386162
  84.3457938  19.8401088  78.6251354  84.8992444  20.6076068  77.4437666
  68.0063486  84.7451782  56.6835785  67.5466633  83.9257526  56.5006638
  67.4505663  85.4227066  56.2984848  74.8107315  29.1920966  40.7042789
  75.4675532  29.8570556  40.9107685  75.3186155  28.4407348  40.3981066
  87.4055576  84.6935558  58.0370378  87.9074478  84.1491985  58.6436844
  86.8960094  84.0692425  57.5204802  54.6502209 105.6236935  67.6615810
  54.7303438 104.6710110  67.6144600  54.9548292 105.8464527  68.5412502
  34.2705488  82.5861263  39.9130797  34.9189448  82.5566864  39.2095542
  33.4564114  82.8393745  39.4780183  97.4838448  77.6790953  38.7973309
  98.3672333  77.9605150  39.0353680  97.4420547  76.7631483  39.0721536
  30.7167363  79.1884804  48.0055332  31.5480924  79.2097092  48.4794760
  30.9629655  79.0102863  47.0978689  83.0327416   9.4114703  48.9036465
  82.3056126   9.8903960  48.5059738  82.7517319   9.2546672  49.8051310
  47.1926069  29.4632651  91.1505277  47.1903276  30.4156424  91.0545920
  48.0123090  29.1834570  90.7430690  56.6224051  80.4969501  42.0221901
  56.5587664  79.8563766  41.3137770  55.7203293  80.6156826  42.3194885
  63.3825636  68.3750582  48.9750528  63.7739706  69.1667318  48.6058855
  63.9835215  67.6725960  48.7268066  35.8563519  98.6901474  46.7391634
  35.1422286  98.2159138  46.3132954  35.4188943  99.3569374  47.2685480
 104.8949767  16.1377925  23.9507127 105.5739356  16.4163035  23.3361554
 105.1867104  16.4736194  24.7982621  40.9966850  71.9236469  63.8510466
  40.5213261  71.5238237  63.1227541  41.0792255  72.8452587  63.6060047
  95.8388663   9.3857402  30.0818539  96.1692668   8.4920901  29.9898958
  94.8882151   9.2856902  30.1316690  63.8260484   4.3275661  49.3299007
  63.9998580   4.8403281  48.5405397  63.2259084   4.8706073  49.8409510
  56.5383577  91.6718960  59.8564577  56.0062313  92.4658680  59.9083138
  56.1850119  91.1017227  60.5393076  35.1944041  81.6187668   7.8448898
  34.9231625  81.5423012   8.7596643  34.6304035  82.3029041   7.4842215
  56.2808800  64.4619131  29.8509645  56.8745899  65.2037096  29.9670601
  56.7122078  63.9096928  29.1988587  68.8205957  79.9507523  44.8443937
  68.5785246  79.2605686  44.2269135  68.0992794  79.9733257  45.4732227
  63.1032896  86.6367340  30.3788471  62.5809288  85.9886551  29.9062371
  62.7309704  87.4796104  30.1196551  53.0804205  92.1330643  23.5484123
  53.5796165  92.9494095  23.5730481  52.8964090  91.9927788  22.6196003
  40.4833460  97.6092911  35.5562377  40.7973909  96.7217922  35.3831291
  40.0125265  97.5390339  36.3866735  55.5849218  82.5037289  48.9246988
  55.7682514  82.7848721  49.8211241  55.2309799  83.2833862  48.4968090
  46.5325594 100.4062843  72.5947046  47.1354580 100.1739120  73.3009291
  46.3960218 101.3481998  72.6965570 108.8424159   6.3569945  58.8669348
 109.5815802   5.8034247  58.6150885 109.2405606   7.0872516  59.3406725
  71.0344028  65.6514549  41.3805056  70.2735424  65.4236746  40.8462429
  70.9305191  66.5860891  41.5590858  10.1805118  43.2118148  32.6287365
  10.7187466  43.7382907  32.0376706  10.7513622  43.0311984  33.3755565
 100.0089931  43.8686895  38.4858465  99.2679977  43.2810593  38.6336446
 100.0973797  43.9078665  37.5335407  96.8010283   5.8081740  39.9870300
  97.1064044   6.1640758  40.8214808  96.8380452   6.5494460  39.3825746
  42.0412445  74.6138287  48.0900335  42.2844601  75.1954079  47.3697233
  41.6495848  73.8527441  47.6615667  62.4228191  90.7626343  54.7988701
  61.9961119  90.2881622  54.0854073  61.9326067  90.5101585  55.5812931
  53.4664583 103.0747032  35.4783058  54.4005775 102.9287529  35.3287816
  53.2813263 103.9067650  35.0428438  18.6608982  90.8909702  15.3756738
  18.3448863  90.1148033  15.8381975  19.5993400  90.9156704  15.5626178
  56.0555887 105.5248165  70.3121471  55.4028702 104.9859142  70.7591057
  56.7858553 104.9285221  70.1466942  -0.0996967  25.0780887  60.3569365
  -0.6517788  24.3793506  60.7079411   0.7949594  24.7597045  60.4771614
  78.1893253  91.3135052   5.6070912  77.2383022  91.3162518   5.7156628
  78.4521151  90.4180622   5.8200526  68.5473775  40.8395220  83.4437609
  69.5008420  40.8479334  83.5278743  68.2524251  40.2322794  84.1223532
  12.5025753   3.5325927  48.2245970  12.6333717   4.1082973  47.4711466
  13.0470089   2.7675456  48.0388212  39.8391891  87.3975563  61.1434746
  39.2656136  87.6913071  61.8512535  39.5944762  86.4832401  61.0007238
  33.6386466  90.0275517  43.8348293  33.2947946  89.6772861  43.0130577
  32.9716182  90.6481266  44.1284084  74.9699307   6.5445918  25.7099915
  75.0305749   7.2418136  25.0569749  74.0324665   6.3653869  25.7826805
 111.4438289  97.2369862  52.0326281 111.7922914  97.3374844  51.1467934
 111.3877114  98.1307220  52.3707485  82.2840405  90.7478714  25.4542589
  83.2189941  90.6135654  25.6093693  82.2135544  91.6672039  25.1971579
  98.0818749  16.0528106  66.1303854  97.1353436  16.1946410  66.1164093
  98.1810237  15.1130313  66.2827778  64.8988104  75.0142956  77.2174883
  65.0209188  75.8893108  77.5858212  64.4209385  74.5342684  77.8938341
  87.7046538  14.5154780  54.0084553  87.2496272  13.7180251  54.2791080
  87.5613833  14.5639342  53.0632782  91.4653683   7.3411483  59.8514700
  91.2926436   7.1085280  58.9391708  92.2719289   7.8555697  59.8188972
  79.3066741  28.2243747  65.2993107  78.7572242  28.7764472  64.7429323
  79.3584586  27.3902816  64.8325920 105.2975655   8.7898749  14.8965001
 105.5767537   9.6263427  15.2688086 105.6336499   8.8025016  14.0003288
  95.3834201  29.4807452  88.9589596  94.7447444  30.0890941  89.3307686
  94.8596478  28.8732165  88.4366608   2.3506974  37.3263289  88.5921359
   2.7188491  37.7331854  87.8078121   2.1936630  36.4166953  88.3388710
  94.5348740  69.0718699  71.4882374  94.1162872  69.0890169  72.3488903
  95.0451660  68.2620382  71.4861727  12.0147613  15.8257979  50.3067255
  11.9321636  16.7788428  50.2733850  11.5543274  15.5733317  51.1070347
  96.2030506  95.4345322  55.0898933  96.2242222  94.9234581  55.8989573
  95.2936459  95.3803921  54.7961283 100.1535750  20.8446521  56.2998724
 100.2776623  20.1163692  56.9085026 100.7850409  20.6815261  55.5992460
  62.6052284  75.1658916  43.3712053  61.9791222  75.8592701  43.1627512
  63.0290794  74.9669886  42.5363302  56.8065262 104.8069096  43.4833813
  56.7231560 104.0378761  42.9195690  56.4821815 105.5318832  42.9491138
  28.4629583  92.2704697  32.8940010  28.1864309  92.5734138  32.0291376
  28.3873034  93.0431175  33.4539247  47.0775975  16.5622634  41.2219000
  46.6421217  17.3934478  41.4109135  47.9430319  16.6489715  41.6215706
  99.3116999  29.9546546  53.7150574 100.0969029  29.7346324  54.2163372
  98.9802218  30.7524985  54.1271067  72.7447344   2.1235293  42.2381163
  73.0885196   2.1492785  43.1310797  72.0308209   1.4869517  42.2745848
  48.5536481  23.6223144  55.6042290  49.2853928  23.3621615  55.0446701
  48.0424882  24.2257422  55.0649452  17.3891406  59.1010373   6.8170166
  18.1549601  58.8817589   7.3477364  17.7529006  59.3996327   5.9835052
  98.4305335  40.3441733  42.6576185  97.8024579  39.9331969  43.2516289
  98.3098984  39.8850173  41.8264389  55.9324551  75.6865692  64.3747282
  55.7094574  76.5943432  64.1686773  56.6679001  75.7529306  64.9837828
  37.3148489  87.7199650  19.2283392  36.4727569  87.3476505  18.9666307
  37.4373794  88.4687805  18.6448121  43.4268332  55.7743692  60.3213120
  44.0685368  56.3768530  60.6974220  42.8428221  55.5614662  61.0492086
  61.8221140 102.2830009  45.4084826  61.0527802 102.8417492  45.2982187
  61.6181469 101.7424583  46.1716652  48.0425835  80.8149719  22.7287722
  47.7656746  80.5442429  21.8534088  48.0533838  81.7713833  22.6914668
  62.0615078   5.3449172  80.8951950  61.3238455   5.9330577  81.0570145
  62.1841002   5.3699702  79.9462128  38.7908649  78.1750965  14.6913397
  39.5684886  78.5595322  15.0959921  38.9287424  78.2895708  13.7510645
 103.7300730  35.0545234  21.6734838 104.2067338  35.7701892  21.2529588
 104.3391181  34.3163699  21.6527915  33.0895567  90.1434517  57.3271561
  32.7624702  89.7779369  56.5051794  33.1529117  91.0842609  57.1624994
  17.3048377  75.3174353  68.0416965  18.2610357  75.3455210  68.0081129
  17.0307624  75.3927565  67.1276712   7.1133381  87.0897675  61.5411425
   7.7977705  87.4423218  60.9723806   7.0073175  86.1827087  61.2544060
 110.8963443  16.6460914  65.4714537 110.6530762  17.3168582  66.1095238
 110.1164532  16.5395659  64.9268007   9.9507526  21.5365714  37.7276349
   9.4917110  20.7207221  37.5278687  10.8102135  21.2568301  38.0427599
  97.6653863  10.1315993  24.6424890  97.8015042  10.4027576  23.7346482
  98.1491805  10.7754249  25.1598597  30.5958486  75.3126812  50.0583458
  29.6949458  75.1237297  50.3208447  30.9847784  74.4524097  49.9005508
  26.2617874  63.3286142  44.6924257  26.9979930  63.9190388  44.5323420
  25.7159901  63.7929392  45.3270435  67.3291969  85.5090237  38.4692597
  67.7355623  85.7615566  37.6402092  68.0636120  85.2567959  39.0289426
  36.6477394  97.6064873  53.1502151  35.9685779  97.0290375  53.4988213
  36.3119531  97.8838634  52.2978449  83.4899665   5.7101649  46.7009497
  83.8492633   6.3466376  47.3190451  82.7149630   5.3604716  47.1406269
  48.3336973 101.1993313  53.7941074  49.0688419 101.7493725  53.5234499
  48.6712122 100.6960106  54.5350409  16.9475654  14.4612617  37.5073028
  16.9959835  13.5453528  37.7811480  16.2492470  14.4790000  36.8528843
  59.7724342  98.5182190  89.9254990  58.8239098  98.4086895  89.9928379
  60.1326323  97.8517628  90.5105877  46.6394711 100.9968567  57.4281168
  46.5118837 100.2288532  57.9850054  47.5803566 101.0119343  57.2527933
  85.4153442  95.2931786  35.8573103  85.0448227  96.0539532  36.3047099
  84.6705914  94.8931217  35.4083824  85.4064799   1.1623210  49.0161467
  85.4481364   0.3700847  49.5517349  85.6199694   1.8722743  49.6216440
  21.0637764  17.8064269  62.4518156  21.1724762  18.2975787  61.6374493
  20.2837662  17.2710341  62.3063183  71.3978100  99.1778374  53.9425039
  72.3027134  99.4367504  54.1166973  71.0653305  98.8838100  54.7905827
  71.2103415  94.7653294  22.2548294  70.5596590  94.5953941  21.5736794
  72.0525646  94.6292877  21.8207979  77.7934742 103.0466843  43.1678295
  77.0496559 102.9273319  43.7583542  78.2837963 102.2270775  43.2315540
  42.8770828  82.5231743  34.6093416  42.9512644  81.8165398  33.9679408
  43.5531044  83.1507206  34.3535948  47.1169996  76.2316179  36.5984082
  46.1640501  76.3092041  36.5526319  47.3305321  76.4364481  37.5087285
  35.4883838  89.5428085  61.9096041  35.9853888  89.1907406  61.1711836
  34.7446012  89.9902630  61.5061235  59.3383932  73.9916563  57.5225306
  58.8592720  74.2674446  58.3039474  59.9424458  74.7126627  57.3450422
  70.5853128  86.3480377  46.8967295  69.6528578  86.2335587  47.0801973
  70.6128693  86.9917488  46.1888409   5.2825694  33.7284558   5.6799126
   5.4821639  34.1990655   6.4891911   4.9966101  34.4095032   5.0711155
  44.4581223  88.3139420  66.2693405  44.2975283  89.1884327  65.9147882
  43.6632299  87.8221703  66.0630798  36.3717079  95.2121544  36.4643097
  37.0164275  95.3706837  37.1538281  36.8953848  95.0350285  35.6828880
  68.4006119 101.4042187  33.6303520  68.2735300 102.2466087  33.1939316
  69.2991209 101.1553383  33.4136271  69.8088885  42.4491328  77.9691267
  68.8825727  42.4293250  77.7287531  69.9779034  41.5842647  78.3428478
   9.4032244  40.7394211   8.2622910   9.8501782  39.8981850   8.3559704
  10.0109057  41.3766186   8.6377239  71.1185265  27.5485057  36.1950707
  71.9145203  28.0017108  36.4729810  71.3794304  26.6306418  36.1196494
  60.6561899  99.3505096  63.4271002  59.8050690  99.7570324  63.5900831
  61.2493944  99.7819614  64.0420723  71.4380813  23.4028548  88.8982868
  72.2591782  23.1453341  88.4790993  70.8136535  23.4769076  88.1765938
  57.2484589  68.3236694  28.6342502  57.5908089  67.4630547  28.8758492
  57.3603249  68.8557196  29.4220567  59.2715645 100.8787918  80.2584362
  60.2033710 101.0796642  80.1711750  58.9209223 100.9795666  79.3734932
  38.2593560  94.7379494  68.2167959  39.1153169  95.1566219  68.1258440
  38.1020045  94.7171211  69.1607475  90.8535004   7.9483623  45.5035543
  91.3319875   7.1317595  45.3605604  91.0871506   8.2100696  46.3941431
  59.5301485  86.2729073  70.3865671  59.9787569  86.5625095  71.1809921
  58.6033630  86.2610912  70.6256390  79.1427326 103.2240486  61.3195419
  79.5783472 104.0449047  61.5490437  78.2101393 103.4083748  61.4314604
   7.0594978  81.6200186  75.2741683   7.2405147  81.9917990  76.1374474
   6.1854171  81.2385870  75.3561449  49.1698599  85.1178169  45.9226418
  48.6467505  85.9158707  45.8471775  49.9975967  85.4092598  46.3049364
  78.8286305  10.7739944  56.6410494  78.1231690  11.1431521  57.1723461
  78.4232045  10.0379962  56.1826038  98.9373160  13.3174819  38.2184005
  98.9823247  13.5856265  39.1361690  99.0237523  14.1336841  37.7258849
  56.6534376 103.5188293  73.9565897  57.3048687 103.2915974  74.6200943
  56.7007685 102.8053474  73.3202457  85.1910210  96.4758205  32.9609966
  85.5277157  97.2513676  33.4097576  85.7193661  96.4111710  32.1654415
  87.0215893  97.9737186  77.9341269  87.1479416  97.6253796  78.8166952
  86.4533997  97.3349476  77.5035858  75.9188890  87.8914356  67.3094463
  75.2666712  87.4687958  66.7506790  76.1429644  88.6991501  66.8472624
  55.6997646  22.9889220  38.3089137  55.1013017  23.3394641  38.9686060
  55.3185118  23.2572669  37.4729300  47.7736568  91.3005447  85.9497547
  47.7562618  92.0944691  86.4841843  48.3082104  91.5342903  85.1909161
  14.3067173   1.3392085  43.2683420  14.0104202   2.2396487  43.1355333
  15.1088814   1.2721557  42.7503872  57.3565865  70.6317616  25.5606246
  58.2454300  70.7435894  25.8977890  56.7926216  70.9759283  26.2532473
   3.8480667   3.0158252  41.5998459   3.2289509   2.4059505  42.0010757
   4.1164926   3.5907477  42.3165369  65.1804138  16.9530505  29.6054912
  65.5434800  16.2159366  29.1145062  64.9618173  16.5858859  30.4620171
  69.2794824  11.6806716  37.1957922  69.2686463  11.9437331  36.2755132
  70.2067781  11.6777724  37.4331641  50.5280161  66.7728043  62.4174023
  50.9503841  66.4695120  63.2210493  50.0538111  66.0074234  62.0925045
  22.1077991 103.0611515  20.4104495  21.2461638 102.9349709  20.8078122
  22.6727057 103.3168888  21.1396337  59.5116068  16.6467494  38.1431746
  59.5113135  16.1466712  38.9593577  59.6415663  15.9894485  37.4595904
  79.7424603  83.7573433  34.5165038  78.8296652  83.5066795  34.6586418
  79.7842026  83.9946461  33.5901260  71.2979269 101.3176346  33.2529020
  71.0942507 102.1760750  32.8816485  71.1102390 100.7002735  32.5458884
  34.3688798  73.7904215  38.6931300  33.8737679  73.9926767  39.4869757
  33.7031698  73.5371780  38.0536532  42.8882360  71.0614729  54.0930462
  42.5554705  70.1641178  54.1086435  43.4484863  71.1226511  54.8667431
   2.9948810  53.3098811  39.6321511   2.3101047  53.9251918  39.3700361
   2.5545172  52.6988334  40.2228546  59.4579744  82.4137592  74.8294592
  60.1860857  82.1809101  75.4055405  59.8344278  83.0361843  74.2072773
  66.2284613  71.7341518  37.1824956  65.9201527  71.6446114  36.2807417
  66.0341215  72.6426411  37.4129677  78.3529472  80.7666492  28.2296324
  78.9628267  80.0296116  28.2620454  77.5425529  80.4236984  28.6063051
  98.8510513  65.7006598  58.6150646  99.4041252  66.0514927  57.9170179
  98.0197906  66.1652994  58.5184002  36.9177580  95.2225399  74.3761063
  37.3016167  94.4816208  74.8450613  36.6668153  95.8379555  75.0649643
  98.6201955  16.8269462  13.0273056  98.8024188  17.6393241  12.5550127
  98.5157252  16.1687297  12.3402333  72.7163125   2.6391047  70.8731699
  72.8156687   3.4313697  71.4010620  72.2990609   2.0099563  71.4616442
  39.3233418  89.4879627  51.1413383  39.5918083  89.1080475  51.9778967
  38.3851075  89.3066120  51.0860252  59.7328663  70.3750706  53.7013483
  60.1151323  70.6356335  52.8633690  59.7403526  71.1749458  54.2270613
  41.8552780  72.0712376  80.0712299  41.7221594  72.7997589  79.4647932
  42.4464083  72.4199629  80.7384491  57.5238991  95.6202507  39.5946240
  57.3161459  95.1295471  40.3897905  57.6552296  94.9481297  38.9258575
  68.2219744 102.2402287  52.8045082  67.3213673 102.5623322  52.7672911
  68.3914900 102.1102333  53.7375689 111.5347433  63.0308199  71.7022228
 111.7346166  62.7245378  70.8176470 111.6510541  63.9799452  71.6590452
  53.9448632   0.1516456  32.4493074  54.4431794   0.1242465  31.6325092
  54.5597339   0.5029410  33.0933285  95.3826094   5.9592456  19.7884738
  96.2251139   5.5095309  19.8531008  95.5837537   6.7817039  19.3419898
 109.8503876  85.5055332  55.7909870 110.3868008  84.7218037  55.6715441
 110.1624107  85.8865261  56.6117859  35.6547189  89.6976948  47.5541401
  36.4583111  89.7493172  48.0716419  35.5898404  90.5516911  47.1266842
  46.3606930  94.5251369  11.3744187  45.7615042  94.0787506  10.7761335
  47.0110559  93.8607121  11.6020048  67.1313143  68.5391903  29.4615412
  66.7473650  69.2759752  28.9861870  67.7764034  68.1736326  28.8561821
  58.8448000  87.3738289  11.7302871  59.0517616  86.4438725  11.6376340
  59.6914816  87.8153896  11.6639972  77.9085350  73.9889002  24.3335891
  77.8956842  73.0319023  24.3187022  78.0847740  74.2402029  23.4269381
  27.4092817  88.9537621  56.3463545  28.2997084  88.6037350  56.3755465
  27.3381352  89.3555355  55.4804754  59.4325686  95.2505302  53.8788414
  60.2721500  95.6930923  54.0032101  58.8670683  95.9156132  53.4862757
 104.2770291   4.8878497  35.4497313 105.0196982   4.5651835  35.9601879
 104.5772219   4.8524970  34.5415092  33.6100626  61.0098553  76.9525099
  34.0438128  60.5626297  76.2258196  33.3841562  60.3092337  77.5643349
  54.4742775 100.1207161  58.4644938  54.3722630 101.0070801  58.1178236
  53.6622524  99.6745777  58.2240820  19.3352079  92.8505230  46.7030334
  19.0468681  92.8904915  45.7911682  20.2879071  92.7745819  46.6498709
  56.8574238  81.8004036  80.8493805  57.6047277  82.2192192  81.2764072
  56.9698620  81.9999981  79.9199963  79.8428393   5.6548232  53.8465357
  78.9557505   5.5914516  54.2004967  80.3758908   5.9450358  54.5867157
  37.9323697  96.3092422  59.6959066  37.7331305  95.4136562  59.9688101
  37.4177098  96.8596077  60.2862072  89.1216278  86.5878391  40.0811386
  89.3164635  86.2154293  39.2211509  89.9741745  86.8535328  40.4258156
  76.0872078  69.9654341  22.0304489  75.5535030  69.3560457  22.5403857
  76.4740038  70.5490637  22.6831365  86.5921307  78.5886002  69.7882891
  86.8398380  77.7279282  69.4504690  85.7200050  78.7459612  69.4265509
  83.1565762  84.4687176  76.4057064  82.8888130  85.3834152  76.3169956
  83.5542774  84.4188023  77.2749376  53.4582580  18.0030746  25.7229638
  53.0605496  18.8673705  25.8281040  52.8692938  17.4100513  26.1895180
  98.1330539   3.3164805  24.5181251  98.3204079   2.5218123  24.0184975
  97.8461028   3.9505118  23.8609362  78.2371378 103.8164234  56.6902256
  78.7195110 103.5104561  55.9221506  78.7971449 104.4929695  57.0709038
  73.5073305  20.9525031  41.6852903  73.2726503  20.2135962  42.2466993
  73.8054586  20.5487937  40.8701992  82.6852989 103.3377743  62.1780872
  82.8270912 103.5871601  63.0912876  83.2907581 102.6110268  62.0314884
   5.7188147  97.1241474  31.6738653   4.8091793  96.8372631  31.7544532
   5.9444964  96.9509697  30.7599115  58.8931370  77.8909492  59.1922235
  58.5340691  77.0554447  59.4909477  58.1523037  78.4960985  59.2268276
   3.7747387  12.3291034  46.0468388   4.1284851  12.4579829  45.1667929
   3.0358557  12.9353541  46.0991287   1.9855789   9.0607947  48.5399151
   2.1363977   8.7757224  49.4411469   1.8596701   8.2483977  48.0496216
  46.7294073  69.0362883  14.8018479  46.7085886  69.6611500  15.5266559
  45.9449100  68.5016108  14.9239576  50.7468843  92.3084927  24.9338865
  50.9628344  92.4044800  25.8614540  51.5882397  92.3814106  24.4832969
  87.0363045   8.5457343  38.3791089  87.3240805   7.8042811  37.8465033
  86.3080693   8.9254588  37.8874612  93.8827658  14.8234576  47.0098448
  93.4650517  13.9729136  46.8744755  94.6472598  14.8091907  46.4340162
 102.8252221   7.9456443  45.6573439 102.7467204   7.5543040  46.5273571
 103.5640145   8.5496444  45.7321739  77.1885109  73.7820148  73.0823851
  77.8357935  73.8422346  72.3797941  77.7092266  73.7019920  73.8815594
  78.3738375  93.0772972  72.7304411  77.5021553  92.7205944  72.5596905
  78.9721680  92.4578762  72.3126507  38.9829516  78.8233519  25.5030560
  39.5161510  79.3939066  26.0565853  39.0885210  79.1789436  24.6206498
 106.6793824  16.9955272  61.2393236 106.3904286  16.0861129  61.1637831
 106.0193635  17.4112529  61.7941046  53.9920616  78.4306431  38.6030889
  54.6189594  77.8393602  39.0197587  54.3451929  79.3057585  38.7634110
   8.9880184   4.7551650  27.5435066   8.2312397   5.1216048  28.0009294
   9.0060238   5.2146453  26.7039919  65.2874804 100.7325363  54.9221754
  64.9458933 100.0028706  54.4053125  65.6170893 100.3250599  55.7231426
  88.0576945  35.5149764  44.7632647  87.1705437  35.1568812  44.7944117
  87.9705382  36.4015883  45.1133394 101.0938645  27.4779815  57.7774048
 100.2809144  26.9727439  57.7858591 101.5275813  27.2476310  58.5990286
  73.8850737  85.3108597  32.1700406  74.6288300  84.7083187  32.1675086
  73.7593842  85.5400753  31.2492275  84.0656853  11.2482661  52.9836321
  83.2931138  11.6101474  52.5495720  83.7196971  10.5655116  53.5584068
 102.6229621  11.2575740  64.0969372 103.2923699  10.5738849  64.0708590
 102.5997020  11.5352077  65.0126934  92.1919490  26.8861598  32.0102477
  91.3699485  26.5671367  31.6377330  92.5656081  26.1244792  32.4534726
  12.2234157  20.6274432  38.8649797  12.4811748  19.7078246  38.8010740
  13.0480293  21.0999507  38.9789462  78.5446739 105.6006527  48.5559511
  78.3767414 105.3916550  49.4748354  79.2415380 104.9978256  48.2966948
  56.0233927 103.1402206  34.5723581  56.2921190 102.3591995  34.0886021
  56.7808723 103.7235260  34.5253062  64.2188407   5.1910132  76.8030357
  63.2838918   5.1115054  76.9921875  64.6179510   5.3939933  77.6490545
  68.2454777  77.6472139  20.3225446  69.0769148  77.7410364  20.7874608
  67.6932001  77.1418667  20.9190726  11.0444646  30.2587884   9.2771530
  10.7185273  29.4071190   8.9861965  11.1155467  30.7750695   8.4742641
  99.1791249  51.6271037  38.6736083  99.1122676  51.6000194  39.6280861
  98.3259726  51.9492740  38.3827949  43.6370234  27.1157401  13.5181999
  42.9934172  26.5861981  13.9889240  43.8847022  27.8002064  14.1398048
  64.4854879 101.7493725  76.8590975  65.0130844 102.5480175  76.8658304
  63.9749527 101.8063831  76.0514259  81.5414333 104.2361927  35.9857249
  80.5861187 104.2295361  36.0454440  81.8006992 103.3386517  36.1941338
  30.8596253  95.8797073  34.1768217  30.5924797  95.0109291  34.4769692
  31.5551376  95.7102108  33.5413980  82.7849961  15.9421367  34.5825148
  82.7745105  15.9481448  33.6253905  83.1959296  16.7725867  34.8227525
 104.9544669  12.3682994  36.9557500 104.1448594  12.4375552  36.4498091
 105.6388903  12.2488421  36.2973237   5.7281307   2.1029872  51.4683628
   4.9258951   2.2043818  51.9805813   5.7080559   2.8295535  50.8455181
  13.9402187  94.9705219  32.6640487  14.6359360  94.3150616  32.7148247
  13.8994515  95.3451824  33.5439348  73.2299757  82.5628662  65.5424786
  74.0577936  82.6020145  65.0635052  73.3229494  83.2168007  66.2352705
  93.1998063   0.9597320  39.4365478  92.8008319   0.9149760  38.5676122
  93.0068255   0.1100272  39.8327637   8.3343986  41.9240493  74.4247484
   8.8168625  41.9745177  73.5995722   7.4528793  42.2259349  74.2056322
  72.4651695  16.1271876  16.5532446  72.2012044  15.7505149  17.3926961
  73.1526209  16.7542953  16.7776918  78.6686230  15.5175323  29.2250276
  78.5143090  14.5929069  29.0314245  78.9869548  15.8850020  28.4004879
  68.4115076  91.3834953  32.5748420  68.3314323  92.2854519  32.8851509
  67.6118422  91.2316132  32.0711517  28.7126545  11.2354201  59.4756985
  28.6022285  10.5048293  60.0841999  27.9228596  11.7639464  59.5901823
  10.3458122  19.3246860  54.1913652  10.1513008  20.2126330  53.8914537
   9.9464992  18.7565154  53.5326052  69.9687338  92.6840973  20.2058339
  70.0809765  91.7768002  20.4894662  69.0456867  92.7457523  19.9600375
  62.6677132  82.5137711  50.1530790  63.0705452  82.1523285  50.9425831
  62.7867699  83.4599876  50.2351332  66.5011979   4.0183658   5.5819893
  66.5056539   3.2232017   5.0491470  66.4398695   4.7319144   4.9469081
  93.8288021  78.1976366  54.3852329  94.0286160  77.2652149  54.3021965
  93.2403564  78.2503414  55.1383543  35.4000858  20.8344192  52.7787876
  35.4359630  20.0283927  52.2637463  36.2366489  20.8592814  53.2432938
  88.2815696   8.3138675  30.4437876  88.8117076   7.5187415  30.4982662
  87.4611569   8.0851287  30.8806372  54.9065733  95.9546852  90.5466843
  54.1453028  96.4679432  90.8173561  54.6583700  95.5872250  89.6983910
  96.2777377   1.2401694  26.5514612  96.9268943   1.7670173  26.0853505
  96.7379857   0.9267158  27.3300219  29.2282776   1.7799109  72.5708437
  29.6088222   2.1809024  73.3522701  29.5770363   2.2949904  71.8433094
 110.3745366  39.9014968  31.6993022 110.3763200  38.9477462  31.7804289
 110.7050133  40.0673884  30.8164120 110.6430150   7.3990268   3.3320457
 110.1333810   7.9493350   3.9267418 110.2153493   7.5047130   2.4822436
  74.6002031   4.0160960  37.5539017  74.4482399   3.5195750  36.7497826
  74.8165775   3.3518523  38.2082677  77.1883488  84.4145584  68.9921808
  77.0982885  85.3629017  69.0857792  76.3487482  84.0637589  69.2892313
  18.7670807   2.4812716  68.3072090  18.5786537   2.3602504  67.3765755
  19.6332077   2.0923251  68.4287739  66.0904360  97.5751781  48.1117535
  66.8746567  97.0294952  48.0530024  65.8248758  97.5148773  49.0293980
 102.1983624  27.0873469  38.9356756 101.7464162  26.3856715  38.4670281
 101.8083812  27.0814342  39.8098111  80.3017426  78.9820957  28.0412555
  81.1507702  78.9686775  27.5994420  80.1554966  78.0741405  28.3067012
  95.1023913   7.0664233  36.3434005  95.3961993   6.1766738  36.1478448
  94.9139977   7.4501246  35.4869413  90.9173393  79.6586180  47.6010513
  91.6366386  79.4505644  48.1973314  90.9308720  80.6133270  47.5333548
  91.7444324  63.6597729  54.6474075  91.8659306  62.7181625  54.5255899
  91.5012646  63.9840555  53.7802601  42.4338675  58.6899519  22.7820802
  42.0461655  57.8279400  22.9332733  43.3775759  58.5300112  22.7737880
  93.8225555 104.5760345  60.8283949  93.9325237 104.9482059  59.9533939
  93.7864208 105.3360748  61.4091396  74.0247393 104.4153976  78.6655474
  73.5269976 104.2388058  79.4638586  73.4141016 104.8917294  78.1030035
  99.6560145   6.4686030  44.3588781 100.5429412   6.7635650  44.1525221
  99.4059087   6.9811934  45.1276016 111.0680866  56.3120842  43.0134583
 111.0359001  57.2681475  42.9797506 110.7577991  56.0928202  43.8920259
 105.4658032   8.1686992  47.0776272 105.9472943   8.7276000  46.4676857
 105.8372641   7.2962016  46.9472504 107.3588277  12.9565448  26.9102526
 106.4862300  13.3288783  27.0374346 107.5242234  13.0489272  25.9719872
   0.5275778  25.8006114  57.2967672   0.4012922  24.9153632  57.6382399
  -0.2433678  25.9594840  56.7521238  86.7598010  28.4821338  46.9755459
  87.1047021  29.3224639  47.2773933  86.0851813  28.2561797  47.6159048
  90.1075459  21.8030852  46.6376495  90.6274129  21.3791293  47.3204613
  89.3762112  22.2038383  47.1075201 108.5036135  10.9156722  51.7855597
 108.6329699  10.7583064  52.7208281 107.7640153  10.3561515  51.5485764
  53.0783229  70.4644673   1.6853809  52.7386717  69.6210282   1.3862515
  53.9193396  70.2537530   2.0909977  78.3386087  71.1800861  24.1043139
  77.5383329  71.0707378  24.6179652  79.0101814  70.7178831  24.6059060
  99.3857288  94.5169163  33.7030125 100.2969074  94.7353745  33.5073733
  98.9013290  95.3212643  33.5169697 108.0232430  15.3906077  51.5989304
 107.6812793  14.5590133  51.2706804 108.0244160  15.2900714  52.5508356
 109.3225766  33.2163924  50.4458761 109.5756770  32.6673335  49.7037840
 110.0988580  33.7460822  50.6276655  79.0980149   8.1043166  48.1938982
  78.4893275   8.6554069  48.6858702  79.8839331   8.6422080  48.0977440
  80.7738781 104.6857071  39.8538160  80.9585571 105.6220245  39.9274302
  81.6145325 104.2936134  39.6175861  54.2242527  81.3199997  44.3620539
  54.1179276  82.0936489  44.9155807  54.5191956  80.6349468  44.9620104
  72.4421501  86.4048862  29.9944210  72.0528650  86.5540600  29.1327763
  72.0581865  87.0822048  30.5512357 107.5109626   8.8870830  28.6026692
 106.9105435   9.0523643  27.8757524 107.6573754   7.9413623  28.5820937
  67.3468494  99.7906685  70.2513027  67.0904922  99.2942047  71.0284996
  66.6409349  99.6347904  69.6239090  90.4909230   8.1016559  78.7675571
  90.9268332   7.6151485  78.0678940  89.9380303   7.4523562  79.2022467
  81.0356713  12.2188014  25.7116795  81.7103387  12.0761317  26.3755322
  80.4140330  11.5031070  25.8442926  96.1198521  94.1870213   3.6365846
  95.8114529  94.5802879   4.4529596  95.6542397  94.6644115   2.9498991
  64.2102385  99.6793175  41.2125731  63.4882641  99.1059113  40.9552956
  64.3691397  99.4664574  42.1321774  52.4207152   2.0537013  78.0458498
  51.4691938   2.0468635  78.1497383  52.7056874   2.8459376  78.5012388
 104.1461421  11.3499564  74.1987085 103.2568599  11.0146255  74.0848589
 104.0719653  12.2886867  74.0268755  50.6788635  90.4024506  69.1553593
  51.6234493  90.4925728  69.2813301  50.4158688  91.2161636  68.7253189
  94.0962601  99.6396923  73.1959677  93.9781857 100.3409481  73.8366938
  94.9401474  99.2484665  73.4218550 100.6180573   9.0214938  63.5456324
 101.2634803   9.7282523  63.5577393 100.4029036   8.8778037  64.4672060
 105.3870440  26.6819591  36.5662265 104.7524024  26.5751761  35.8576679
 105.1652146  25.9927577  37.1923423  77.8699207  88.9415932  39.9519134
  78.2707119  88.3394432  40.5788279  78.3738327  89.7505188  40.0410223
  85.5782796   1.0613650  26.2836123  85.4407168   1.6612262  25.5504894
  85.7225371   0.2092761  25.8720565   4.3400577  14.5776671  11.4936149
   3.4553341  14.2138976  11.4593518   4.6103147  14.4647712  12.4049044
 104.9740554  54.5800895  28.0902624 105.6914378  54.9860686  28.5768628
 104.4503022  55.3172034  27.7762938  81.1489677  81.1131859  53.7567997
  81.1084843  81.7420197  53.0362749  81.6696930  80.3875732  53.4124470
  98.9310932  94.6095371  42.3755407  99.4272995  94.2876053  43.1281137
  98.7209797  93.8225555  41.8728018  47.5182009  85.8499813  21.2358332
  47.5439024  86.3560009  20.4237247  48.1327009  86.2982845  21.8169093
  53.9007009   6.3404769   6.0522681  54.4551314   5.7812900   5.5080736
  53.6357868   5.7788676   6.7807293  39.5731831  95.1307392  45.2752733
  39.5806670  94.9974060  46.2231159  38.6448169  95.1834965  45.0481510
  61.1675049   8.2397956  54.6868372  60.9814931   9.1188354  54.3567848
  61.0577942   8.3117789  55.6349993  51.5620279  98.1203079  37.6817608
  50.9477997  98.6363888  38.2038903  51.2005186  98.1422424  36.7957234
  63.9932156 104.2616272  42.1873808  64.4579601 104.5199299  42.9833269
  64.6857882 104.0080261  41.5772533 103.2866383  92.4482155  45.4092216
 102.6972866  92.6569939  46.1340046 103.6216164  93.2972050  45.1207256
 106.8377591  21.7772120  10.8757901 107.2925044  22.5977248  11.0660553
 107.3080779  21.1186141  11.3869452 108.9633179  43.7610263  34.6986771
 109.1580821  44.2660827  33.9092398 109.2347193  42.8683394  34.4849300
  93.5629464   6.2714309  63.4708309  94.2816640   6.2632960  62.8386784
  93.6562491   5.4481715  63.9501715  57.6865005  99.0934944  62.3052645
  57.6369333 100.0416279  62.4270535  56.9006491  98.8749599  61.8043518
  52.7700853  68.9550781  70.0017548  53.7104368  69.1072083  69.9077702
  52.5824451  68.2355595  69.3990040 101.1652232  29.1475314  55.6051064
 101.8834353  28.6202449  55.2552891 100.8475781  28.6498279  56.3585138
  91.5128756  38.4029025  38.8006306  91.4208890  38.7343806  37.9073811
  90.7580233  38.7608546  39.2678571  70.4038931   4.5455855  38.9009571
  69.9400736   5.1124972  39.5171666  69.8617912   4.5550937  38.1121182
  66.2937880 100.9276962  23.2801533  66.5417480 100.0402737  23.5394382
  65.4964638 101.1086941  23.7779021 100.3997040  70.0492239  45.0687456
 100.0506401  70.1385641  44.1819477 101.0729504  70.7268381  45.1305294
  53.2271147  73.8765526  50.8672428  52.9745483  74.7391033  51.1965656
  54.1516685  73.7924623  51.1003923  82.2087718  21.5568465  36.3029504
  82.7690078  20.7952804  36.4525890  82.0707179  21.9275970  37.1745682
  80.9948111   7.8805179  45.9880018  80.6052066   8.5280723  45.4005384
  80.2616072   7.5641459  46.5157795  97.6491165  70.3655481  48.3585739
  97.7522945  69.9325848  49.2059994  98.1867218  69.8486948  47.7585077
   7.8245644   2.4191016  28.3545828   8.6266712   1.9109935  28.2333517
   8.0305103   3.2814807  27.9938650  88.5507393  70.5255842  29.7322202
  87.6175976  70.3560019  29.6028948  88.6048031  70.9141541  30.6053305
  84.0173054 101.3148117  65.8457375  83.7636566 101.2803841  66.7680740
  84.3911934 102.1886826  65.7326174   1.7365602  42.8489703  86.2267685
   2.4500135  42.7202720  86.8517971   2.1528486  43.2607478  85.4695606
  66.0904741  99.8913002  57.2734690  66.2782621  98.9607143  57.3958397
  66.9276237 100.3274536  57.4321413 101.5350295  26.0093898  76.8405724
 102.2686959  25.9553451  77.4529791 101.4661504  25.1290816  76.4710474
  68.1219912  82.3251534  42.9647732  68.6292696  81.8319511  43.6094809
  67.5527096  82.8889942  43.4884453 109.1275216  10.8996886  31.0640025
 109.9579144  10.4239100  31.0816550 108.5244704  10.3121394  30.6086588
 100.6033087   6.5407199  40.6471872  99.9621964   7.2198886  40.8568192
 100.8273125   6.1534232  41.4933825  81.8618965  93.5204029  24.4101453
  82.4639034  94.1973495  24.1010118  81.1477470  93.5257721  23.7728143
 103.0071116   9.8338241   7.0263201 103.1764365  10.5374354   6.3998282
 103.7165929   9.9057788   7.6648265   4.3260864   7.2995872  25.2318621
   4.6835045   8.1445617  25.5047798   5.0963215   6.7617625  25.0482631
 102.5658322  13.9376182  39.9112821 103.3234645  14.2443961  39.4131708
 101.8140460  14.3383903  39.4749022   3.4659342   9.3165225  70.1979923
   3.9889721   8.7323874  69.6489429   2.9796986   8.7294597  70.7769251
  13.1098656  14.7346133  68.3189392  13.4043316  13.9965552  68.8525867
  12.5010685  15.2106875  68.8837051  83.7267447  24.6301002  52.3998451
  83.0733443  25.0643558  51.8514633  83.7567569  25.1563281  53.1988573
  81.1829663  16.6781825  68.3753109  80.5529071  16.4358920  67.6966715
  80.7966901  17.4452895  68.7978840   1.9072107  26.3922709  22.6275635
   1.7109541  25.6202811  22.0967603   2.8217796  26.2788600  22.8862691
  72.1107149 100.5090332  46.2116480  71.2762117 100.8685207  46.5126514
  72.7098179 100.6478500  46.9451571 103.0968762  22.9800815  50.2988482
 102.3814679  23.1901378  50.8990955 103.8568211  22.8535766  50.8669186
  81.5598965 101.4307880  41.5063953  81.2246323 100.7735062  40.8966255
  80.7924366 101.7055893  42.0081139   7.6604656  13.8496417  18.4319687
   7.2355369  13.2394904  19.0347922   8.4852127  14.0758056  18.8619268
  96.1702777  13.2147140  20.6614780  95.4801560  12.5840968  20.4558635
  96.2463284  13.7521094  19.8730278  73.5529114  12.9207343  51.2189054
  73.2636452  13.0495185  50.3155947  73.0895210  12.1350497  51.5090799
  83.4432317  27.2090072  32.8364968  83.2573796  26.4530200  33.3934307
  83.1676532  26.9354743  31.9615865   1.1640123  18.7878150  69.7890425
   1.1068157  19.4666213  69.1166019   1.4696697  18.0113238  69.3201351
  81.6549016  12.7824325  61.4442539  80.9765292  13.1858558  60.9026909
  81.9135905  13.4711570  62.0565987  76.2540865 100.3525257  34.0064621
  75.3971052 100.6507015  34.3112707  76.0563946  99.7374439  33.3001852
  71.2310005   2.4164599  68.2862473  71.6419507   1.6396445  67.9068899
  71.7177010   2.5739688  69.0952873  36.6271404   9.4166202  17.8333676
  36.3843349   9.6992702  18.7150609  37.1142105  10.1563472  17.4703360
  96.8040419  17.8894824  63.8148355  96.3014413  17.3552913  63.1998062
  97.7161885  17.6512546  63.6491156  98.0556679  94.8063755  78.9560890
  97.9737091  95.0988483  79.8638201  98.3497524  93.8979149  79.0227795
  55.5925131 100.2460194  41.9995785  56.0163593 100.6946182  42.7312469
  56.3143969  99.8528671  41.5091133 101.4660645  78.4316826  51.9862413
 101.6841030  77.9932451  52.8087139 101.0753059  77.7454567  51.4452839
  69.6829224  60.4124260  49.4702864  70.0282335  61.3044548  49.5059681
  69.0145826  60.3867435  50.1550436 100.1896286  89.2519379  44.8807859
  99.6026134  88.9060307  44.2084789  99.8749161  88.8628578  45.6967592
   8.9154343   4.3708152  42.0084047   8.7673191   4.6345252  41.1002493
   9.3327526   3.5118407  41.9433594   8.1251148  21.7546958  69.5579815
   7.1929077  21.9499988  69.6533012   8.5540108  22.6095981  69.5957232
  95.7575130 100.2822495  77.1969557  96.0962486 100.6255817  76.3701439
  95.8225727 101.0176086  77.8062487  94.3870736   2.3297900  62.3111963
  94.4883109   2.8261107  61.4990091  93.4705592   2.4563426  62.5565720
  82.2979260  27.9391307  60.3450584  81.4945412  28.3034534  60.7166386
  82.8674651  28.6975307  60.2158642  28.7081813  60.0230147  83.9258605
  28.1972360  60.1237036  84.7289968  28.8499831  59.0795065  83.8488960
  87.4839973 102.7470112  74.9004650  87.6187801 101.8664169  75.2506447
  88.3651924 103.1140327  74.8295593  40.2446795 100.0771046  36.6821623
  40.5954313 100.7854939  36.1423588  40.3457785  99.2926216  36.1430907
  91.1247206  18.1973189  43.3033371  91.5796805  18.3004207  44.1391659
  90.2261973  17.9734344  43.5457468  62.9547644  94.1304111  30.5855775
  63.0872583  95.0773048  30.5401444  63.7930298  93.7857723  30.8934212
  76.6068506 100.9578037  12.4381375  75.7838583 100.4891968  12.5771499
  77.2858715 100.3180027  12.6521742  47.8506422  95.8282185  70.4814053
  47.8197479  96.3059616  69.6525240  48.7838221  95.7573128  70.6823444
  85.5216361   0.7240981  66.6028357  84.6463919   0.3843898  66.4163399
  85.7934285   0.2630443  67.3964262  79.5716763  64.5734900  51.3352346
  80.2105046  64.3708152  52.0186520  78.8090945  64.0378112  51.5537357
  98.4314490   4.5980090  54.7647190  98.8441802   4.6013659  55.6283617
  98.6470128   3.7398547  54.3995762  94.7242261  41.0171813  59.3372869
  93.8653661  40.5953235  59.3624306  95.1562119  40.7290858  60.1414156
  91.4230490  48.0687350  14.6156394  91.7552520  48.9603156  14.7203648
  91.9943906  47.6762504  13.9555287  87.3326206  96.5683937   9.1039729
  87.6034832  97.3799992   9.5331109  87.3953056  96.7597866   8.1681997
  67.5254297  81.5282440  48.9821911  68.4483480  81.4865112  48.7317562
  67.5395823  81.6149998  49.9353456  84.1405774   6.7793960  52.4121237
  84.5828677   7.2964019  53.0854082  84.1630698   5.8824462  52.7455997
  77.7829600  12.2426623  34.1529465  77.4660683  13.1280917  33.9745307
  78.0229045  12.2563190  35.0794840  83.7256813 102.1211433  20.4157233
  84.0822601 102.1510220  21.3035250  83.3756065 102.9997826  20.2685285
   9.4106106   6.7760390  25.3532124   9.6424774   7.6791591  25.5696416
   9.8192696   6.6213626  24.5015645   8.0207733  11.2318439  15.8792698
   8.7991146  10.9184188  15.4186356   7.8259949  12.0764560  15.4731631
  94.6921539 105.0649357  37.2840095  94.7364902 104.1645718  37.6059008
  93.7561703 105.2363491  37.1801519  51.4125443 102.7221203  56.0152626
  51.9363451 103.0650043  56.7393446  52.0243168 102.6695919  55.2809572
  93.4958076  79.6781301  48.6116076  93.7558174  79.3593693  49.4759083
  94.3214703  79.8895502  48.1759310  87.8162909  27.0819587  79.8852777
  88.3937312  27.6435393  80.4024029  87.7412415  26.2778014  80.3990269
  56.6271353  88.9786530  37.7734351  56.1482811  88.3138752  37.2784567
  57.2486925  88.4805489  38.3042741  35.2965760  90.2501392  19.2019057
  34.9428940  89.6157360  18.5784698  35.2662206  89.7992325  20.0457025
  86.1313915  84.3647003  35.0912523  86.5573692  85.1106262  35.5135942
  86.3319874  83.6210251  35.6595397  95.7680417  31.9788665   8.8446587
  96.7014552  32.0992297   8.6700636  95.6804133  31.0474414   9.0471566
 111.6908599  37.2845859  28.6193943 112.2912551  37.6583404  29.2644286
 110.8284760  37.3481101  29.0298629  34.6806721  14.1686839  61.2538147
  34.0900520  14.9089355  61.1144257  34.9226383  14.2260760  62.1781445
  68.1369257 104.0301228  47.8447819  68.5127592 104.8621368  48.1324053
  68.5038757 103.8906002  46.9717932  78.0575705 104.7074699  17.6520324
  78.6759710 105.1886654  17.1022439  78.6053848 104.2768097  18.3082843
 106.2611581  45.1843757  54.5346737 105.4027129  45.1917094  54.9580479
 106.8373442  45.6327838  55.1536846   5.5946545  24.0841884  42.8926039
   4.7379164  23.6833304  42.7458191   5.6694416  24.7474784  42.2065401
  42.7876759  93.1072426  81.2965393  42.3075724  93.9344692  81.2587643
  43.3366108  93.1843376  82.0769024  89.6224547  20.8968467  32.7540874
  88.7043477  20.8946723  32.4833441  89.7492982  21.7525405  33.1638694
  92.4163199  49.8826331  25.8672762  91.7627812  50.3920001  26.3465142
  93.0875302  50.5209083  25.6258106  92.5393964  85.4689330  48.4326792
  91.8190432  85.9602279  48.8275719  92.2644711  85.3272933  47.5268173
 110.4117823  16.0400599   5.8479512 111.2152911  15.7844371   6.3010103
 110.6522132  16.8275565   5.3598183   0.4901413  27.3711986  53.4116364
   1.1887936  26.8579501  53.8174438   0.1576046  27.9242152  54.1186237
  35.5710149  94.4392967  31.5146589  35.9121704  93.5706997  31.3016200
  36.3479805  94.9961090  31.5648103  12.7371792  19.8721522  52.9615211
  11.9649223  19.6776408  53.4925747  13.2182697  20.5258960  53.4688711
  86.5238285  93.5131931  13.2671452  86.2732792  93.3720779  14.1801333
  85.6940842  93.6467743  12.8089833  77.8719759 101.8224525  10.2826345
  78.2181168 100.9548664  10.0735462  77.4339485 101.7086697  11.1260891
  17.5029854  20.4976100  28.1399536  18.2973293  20.4713553  27.6065111
  17.8063492  20.7620067  29.0084553 109.2950297  49.6773166  31.4041281
 109.5470191  50.2417583  32.1349740 109.4494439  50.2112407  30.6248307
  91.0798168  85.2849388  72.9449463  90.4471016  85.8655453  73.3677912
  91.1278534  84.5224476  73.5216045 110.7039214  17.7358836  31.4401150
 110.3408290  16.9660110  31.0022926 110.2584840  18.4771174  31.0297656
 105.2853585  10.1577491  33.1522775 105.4482175  10.0732917  32.2128224
 104.3344355  10.2403373  33.2240438  48.8432455 102.7821255  28.1083584
  49.2452478 102.0662308  28.6004162  48.2743406 103.2186890  28.7423849
   3.6853937  45.2378387   4.0720096   3.9950851  44.8721427   4.9006191
   4.4844059  45.4247016   3.5791659  98.6362934  99.0070248  23.5953569
  98.7114620  99.6221828  24.3248463  99.2812252  98.3265686  23.7884426
   5.3009704  31.3835639  25.6992698   5.3266863  30.6028480  25.1460528
   4.9782471  31.0683650  26.5435052  10.0968937  47.8739661  37.4682188
   9.9770550  46.9481868  37.6798749   9.7813133  47.9567164  36.5683317
  12.6866344  14.4459075  26.4281869  13.2180599  15.1476401  26.8041992
  12.8409199  14.5074767  25.4855108 106.8765593  41.3234347  55.2593470
 107.4374009  40.5533237  55.1665163 107.1282817  41.7029590  56.1012650
 100.8778477  33.7523860  54.1129732 100.5151225  34.5417995  54.5148277
 101.2634660  34.0572566  53.2916403  91.0254383  99.7246170  57.7710867
  91.4225960  99.6073055  56.9081068  91.7568016  99.6476364  58.3837986
  22.7825931  12.8910274  71.2073612  23.4155468  12.5886554  71.8586493
  22.4194149  13.6939448  71.5810823  21.5616421  14.0055102  46.6326904
  22.4866680  13.9585132  46.8742228  21.2873558  14.8813933  46.9043875
  96.8981552  91.8218899  27.1870756  97.8013039  91.5476131  27.0279408
  96.8923950  92.1090031  28.1001830  81.3160801  98.6159611  21.7873478
  82.2518063  98.8101959  21.7332101  81.1068821  98.2090950  20.9465575
  89.0636779  13.4493274  49.7817135  88.4066058  13.5111350  49.0884113
  89.6902419  14.1444415  49.5805407   9.4494060  36.8056697  44.5604038
   9.9846081  37.5695819  44.3453741   8.7390236  37.1547622  45.0986576
  24.1297249  17.6761359  15.3139257  24.7341350  17.3065013  15.9575832
  23.5849575  16.9365996  15.0445855  97.4146653   5.9145755  12.6267982
  97.2671986   6.4190692  11.8268132  96.5363026   5.6883067  12.9325986
  46.6481638  91.8060780  40.0126696  46.6775370  92.4447060  39.3002605
  46.5458918  90.9617901  39.5734143   9.0613941  17.7938384  40.3141069
   9.4312958  18.6216849  40.6208181   9.3010239  17.7528399  39.3882966
  85.9337330 104.2745972  49.3240595  86.8257332 104.6207237  49.3517923
  85.9149837 103.6057281  50.0085306  34.5669889  93.6065388  54.6393633
  34.4137287  93.0728912  55.4190874  35.1961374  93.1020451  54.1237211
  60.2360678  71.1465740  51.0125875  60.0620556  71.9930744  50.6010103
  60.6240940  70.6168747  50.3161049  97.2402621  47.8366965  88.3241367
  97.3308373  46.9696540  87.9288197  98.0651475  47.9750747  88.7895775
  10.5028919  28.6341304  16.6869318  10.8513550  29.0866107  15.9187746
   9.5753387  28.8699550  16.7035258  13.9541439   6.7435950  11.8628430
  13.3152393   6.0317058  11.8273544  13.6012653   7.3498744  12.5141037
  14.9597553  61.0841292  27.0863366  14.9735073  62.0405692  27.0508623
  15.2703003  60.8726043  27.9667091 105.7207537  29.3054122  49.4852257
 105.6190301  29.8627013  48.7136555 105.0577307  29.6222514  50.0986147
  64.9794436  97.5795460  51.0243130  65.2008009  96.6524410  50.9364748
  64.0239716  97.5934219  51.0800695   1.0280231   9.3700141  61.6842175
   0.6989864  10.1309222  62.1627474   1.5520672   8.8913936  62.3265028
 111.8198567  25.8152509  27.9612303 111.0377603  26.0073471  27.4438763
 111.5686483  25.0705385  28.5076118  13.4438200  68.5836966  87.9509705
  13.8775750  69.3357069  88.3541664  14.1048165  68.2100768  87.3681125
  98.2661029  84.3107539  54.0716505  97.9105636  84.5871454  54.9162960
  98.7199660  83.4893256  54.2600584  12.7578199  19.4516814  18.2152128
  12.8057134  20.1280689  18.8908148  13.3378780  18.7580204  18.5292172
 105.6850114   7.5177377  79.5020056 105.1277950   7.5479233  80.2797127
 105.0720552   7.4381191  78.7711334  15.8718728  83.1880575  78.3215284
  15.7572459  82.3986059  78.8505459  14.9867725  83.5374218  78.2177305
  25.6440091  33.4682465  33.7639499  24.9644709  34.0889645  33.5009503
  25.4364300  32.6675534  33.2822537  67.5766983  83.6513716  18.7158620
  68.2954761  84.0468102  18.2226896  67.2420450  84.3620521  19.2628300
  11.2668800   5.9214300  66.0208893  12.0287645   5.4732656  65.6535864
  10.5268383   5.3559387  65.8000040 109.5341218  23.2016706   2.9511255
 109.3483715  23.9567637   2.3929456 109.0483892  23.3747053   3.7575716
  44.3001938  13.8197827  67.4186134  45.0565481  13.6648118  66.8528032
  44.5456886  13.4314322  68.2583427 110.1242581  31.3184166  37.0595479
 109.9214719  31.5490365  37.9661465 110.8055092  30.6496263  37.1291733
  36.8306780  27.3083806  23.9145875  36.8455791  27.5412154  24.8429179
  36.4305925  28.0641484  23.4844947  19.3653059  31.3368821  10.6751728
  19.3950915  31.1692667   9.7332329  19.4173217  30.4686141  11.0747147
   4.1388831   9.3792647  12.4502444   3.2324868   9.2142057  12.7099228
   4.5704320   9.6651453  13.2553971 110.4049410   6.4099026  32.3729587
 110.6766139   7.3272848  32.3440504 109.8701720   6.3432902  33.1640434
  33.0786848  33.8346934  10.6722474  33.0097651  33.8188457  11.6268313
  32.2614694  33.4410763  10.3665411  86.4338419  22.5807261  20.0445747
  86.4584157  21.6957498  19.6806490  86.0958335  22.4652076  20.9326291
  29.3449020  31.5305018  26.4826083  29.9759912  30.8637166  26.2117600
  29.3705368  31.5100050  27.4392462   6.9272798   4.8421487  17.4794996
   6.0968792   5.1610714  17.1260071   7.5932527   5.3728932  17.0424390
   5.8357531  34.9199104   7.9594094   6.1978668  34.2486048   8.5377312
   6.2807876  35.7262158   8.2202715  65.3617629  74.2092758  37.2970223
  64.7313222  74.3431884  36.5893173  65.2308884  74.9577361  37.8791833
  20.5631495   5.0968570  12.4802518  19.6543980   5.0392109  12.1851563
  20.7233262   6.0352111  12.5805855  46.2169647  11.7545629  36.2140775
  45.5499554  11.8356156  35.5323410  45.7284069  11.5061975  36.9988418
  23.9785028   3.0074987  65.7647657  24.7624874   3.5025144  65.5269480
  23.7305355   2.5508732  64.9608755  86.4040633  69.1412168  27.8820062
  86.4923068  68.3635217  28.4330368  85.8206948  68.8681346  27.1739531
   3.2805285  19.7019351  30.2429700   3.7997904  19.2457008  29.5808148
   3.8813040  20.3471756  30.6157541  27.6439810  10.9693182   5.6553292
  28.0519342  11.2755668   6.4652783  26.7380452  11.2727809   5.7138306
 105.9960719 103.4641802  24.9600863 105.4230472 102.6998096  25.0201941
 106.6564008 103.3224264  25.6383944  20.0156784   6.1899656  40.5112743
  20.9106660   6.1946201  40.1718473  20.1118231   6.3874501  41.4429331
  42.8873825  27.6539850   3.9023328  42.0655203  27.2349811   4.1576859
  43.2061434  27.1286321   3.1684199   9.6343768  28.8858509  46.4736748
   9.4202518  28.1397009  47.0337105  10.2450716  29.4081879  46.9937181
 110.1243275  40.1250744  52.9087639 110.6759246  40.8820820  53.1060219
 110.5318597  39.7255063  52.1403265  97.5488994  18.8989973  32.8073144
  97.7174208  19.2124760  31.9187403  97.4240491  19.6958411  33.3227634
 100.9038135  21.3831902   2.8128400 100.0898668  21.7099857   2.4295297
 101.2331673  20.7517743   2.1732533  87.5317105  90.8343369  59.4466639
  86.7176779  91.2813645  59.6785021  87.6050075  90.1242417  60.0843334
  63.7108536  83.1186659  74.7232723  64.5127697  83.4071715  74.2874634
  64.0068169  82.4775655  75.3695130   2.2606781  39.6774411   9.2051536
   1.5920419  40.2670956   9.5536691   2.3504315  39.9330354   8.2870865
 104.2186900 101.3263702  24.5155931 104.4156285 100.4226276  24.7619605
 103.8228246 101.2569606  23.6468554   9.7648572  79.7766810  33.4932446
   8.9253282  80.2339130  33.4446502   9.5457505  78.8570338  33.3433414
  41.9376421  24.1697764  69.5195246  42.4498367  24.2266083  68.7128925
  41.1963129  23.6080360  69.2934370  81.2054010 102.9010042  12.3812854
  80.4943164 103.4141999  12.7649796  81.4461132 103.3804799  11.5885735
  19.8937273  42.4315119  19.2351556  19.1800654  42.2759724  18.6165071
  20.5136824  42.9786968  18.7529981  31.6692591  19.4000506  73.6240005
  31.2242579  19.9219489  72.9562998  31.3538551  19.7550976  74.4550800
  87.6487406  91.2114399  16.6297388  87.0303615  90.5799621  16.9972646
  87.9850539  91.6871780  17.3892128  21.6799831   3.3979589  41.4770460
  22.0505333   3.0706480  40.6574202  20.8090091   3.0033186  41.5205908
 105.7909223  16.6482925  26.7065644 105.3179654  17.4781752  26.6446018
 106.5360865  16.8392444  27.2762132  87.3812171  84.9087172  41.9072056
  86.8900808  84.6888715  41.1155748  88.2539507  85.1418286  41.5906239
  24.3780859  41.4963848  79.5951486  23.7012489  41.0803778  79.0612364
  24.0124078  42.3514290  79.8218894  10.5272575  73.3919675  86.3220006
  10.9300514  74.2135317  86.0408962  10.7477970  72.7681262  85.6303251
  26.6030383  24.4808340  19.4094789  26.4677215  25.1567578  18.7453651
  26.4294410  24.9232578  20.2403545  57.5359011  18.6172736  18.3463001
  57.3558569  18.1402886  19.1564250  56.6989851  19.0197182  18.1142604
  34.2761230  47.9652739  55.6464005  34.3552685  47.2158289  55.0562286
  35.1673627  48.1180525  55.9603739  33.8941336  38.2801890  15.9401274
  34.2034006  39.0368748  15.4421210  34.6672130  37.9727840  16.4135003
  54.3334579  54.1853666   6.5321630  54.2201376  54.9645281   5.9878296
  54.4075060  54.5249653   7.4240267  -0.1432886  25.4178309  18.9626873
  -0.1411596  26.3294244  18.6707532   0.6948631  25.0676990  18.6607921
  65.7954569  97.4735362  78.4078443  65.1062126  97.8008134  77.8298640
  65.9129901  98.1670482  79.0570414  56.1910864 102.4451080  14.8179317
  56.8050142 101.8896997  14.3374670  56.1732336 102.0747593  15.7004023
  23.8377810  28.7661290  50.2300644  24.3764019  28.7017035  51.0187149
  24.4660091  28.9075661  49.5218611  91.7898568  91.2396127   8.3817041
  90.9047266  91.4506703   8.0846703  92.3566803  91.5182918   7.6624811
   6.8293458   6.2600499  24.3693924   7.7397519   6.2378091  24.6641779
   6.6869307   5.4033566  23.9668655  31.1603785  29.7509694   4.9221814
  31.7810726  30.2911806   4.4331598  30.9993768  30.2413201   5.7283241
  15.0952494   6.8954486  45.9588861  15.4318845   7.6925576  45.5495882
  15.3555405   6.9693643  46.8770456  21.3646221  21.9836712  16.1835432
  20.8392024  22.0854330  16.9771481  21.4281750  21.0368514  16.0581434
  19.1671848  49.8417807  47.2133255  18.2723558  49.6180725  46.9574547
  19.2571354  50.7671595  46.9856930  36.4096308  41.8759918  46.2334585
  36.1612439  42.7991056  46.1845064  35.6934667  41.4603996  46.7136955
  11.8802512  22.1787882  43.1095505  12.8364491  22.2156096  43.1332874
  11.6429770  21.6315103  43.8581610  86.3024505  93.4912699   4.8674056
  87.0119818  93.7812274   4.2940629  86.5000423  93.8914579   5.7141870
  75.9674379  38.0722833  25.8787990  75.4193160  38.8522816  25.9648037
  75.3588316  37.3399353  25.9762311   0.8949455  14.3771148   7.2534525
   0.2915392  14.8718834   7.8078324   0.4878466  13.5152221   7.1660227
   9.6472764  44.8882055   4.1054806   9.8975492  45.7920933   4.2967525
  10.2413964  44.3577242   4.6363667  28.9698148  10.6027937  10.7165790
  29.5647073  10.7456982  11.4527273  28.7986088   9.6610802  10.7263100
   9.5873648  11.1735964  50.6076384   8.8664871  10.6509852  50.9589863
   9.5892912  10.9794784  49.6703291   7.7494967  29.8994017  10.4804695
   6.8884742  30.1674104  10.8014727   7.7861923  28.9581513  10.6505585
  29.9782395  31.5460992  46.1830091  29.3002486  31.3940358  46.8413687
  29.6251178  32.2450638  45.6325674  23.9774299  39.9249530  43.6980295
  24.2736244  39.6057415  42.8456163  23.1635404  39.4487572  43.8625002
  17.7130783   7.3711896  39.6204543  17.3862195   6.6103578  39.1403198
  18.5548604   7.0864046  39.9761701  40.3096056  32.1637201  22.3800588
  39.9687362  31.3297367  22.7033401  40.0546455  32.1852827  21.4576912
  34.8286629   0.8478687  15.7475734  35.0088835   0.4168867  16.5830410
  35.0315738   0.1850505  15.0874734  33.1906128  31.3658714  21.8099570
  32.7849293  30.5951977  21.4128256  34.1303825  31.2321496  21.6867399
   4.2943334  90.7461756   8.9337820   3.7507390  90.3442961   9.6114457
   3.7307452  91.4106315   8.5374278  15.3787208  11.0369110  15.8417869
  15.5711961  11.9723451  15.7773709  15.3671193  10.7317436  14.9346101
  15.0634658   2.9697847  10.6277704  14.5963144   2.9539508  11.4630842
  15.9332919   2.6271412  10.8332682  43.0625582  29.4077373  20.6014419
  42.5577021  29.0596485  21.3364148  43.4177542  28.6326218  20.1663971
 108.2769933   6.3144231  29.5355272 109.0964517   5.9277493  29.2269754
 108.4788910   6.6332608  30.4151917  27.7057934  54.4883108   0.6726018
  27.9819083  54.2552757  -0.2137869  28.4938812  54.3805361   1.2050781
  19.8224020  13.0231988  30.8696342  20.6531239  12.6270664  30.6065512
  19.5221174  13.4901035  30.0898504  37.8847599  62.4123096  18.1708670
  37.7881217  61.6570377  18.7509120  38.2103324  62.0435715  17.3497295
  50.9460640  12.9269421  45.1089478  51.8710995  13.1723821  45.1262283
  50.5076027  13.6740458  44.7017431 100.3823038 100.2101797  51.6165113
 100.1349875  99.4234532  51.1305809  99.9161144 100.1339286  52.4490309
  34.3065381  37.9025221  19.9919856  34.5755601  37.9171395  20.9104872
  33.5638118  37.2991252  19.9695230  19.1497540  45.7384491  11.5724599
  19.7394824  45.6788874  10.8208597  18.5124302  46.4081478  11.3243568
   9.8099297   5.0081778  31.8032765  10.1474464   4.9117196  30.9127641
  10.4819977   4.6125716  32.3582983  26.5246172  70.0417871  84.5645875
  25.6080289  69.8916192  84.7959906  26.7499943  70.8638639  85.0000477
  14.2783165  38.9609671  39.3217731  14.7086573  39.7830296  39.5568252
  14.9494898  38.4646773  38.8533115   9.3277997  48.6346483  30.4954433
   9.6909821  48.6065054  29.6102667  10.0537038  48.9342308  31.0427499
   0.9098939  39.2249417  54.5472622   0.8105429  39.3252206  53.6005306
   1.8504292  39.3155003  54.7003126  43.8102579  16.1981523  41.2507486
  43.7263441  17.1010339  41.5573359  42.9148102  15.9317970  41.0422802
 108.0861807  35.4803824  28.5565853 107.2087255  35.2324152  28.8478184
 108.6458138  34.7573352  28.8398623  20.8899856  36.6421795  46.5012026
  20.1823711  37.2867846  46.5009499  20.4495358  35.8029628  46.3672161
  22.9502511  46.9443893  55.1450157  23.7626314  47.1150398  55.6216192
  23.2287502  46.8014717  54.2404509  10.6834948   7.5272661  14.5230329
   9.8120743   7.4263775  14.1400468  10.9491992   8.4150296  14.2832220
   6.4009076  44.1634798  46.8371582   7.1623898  44.4571400  47.3372984
   6.7710626  43.6736727  46.1027813  49.7372098  49.5430074  89.3244636
  49.8058386  49.3733288  90.2640013  49.5615728  50.4819360  89.2628472
   6.5632457  15.6108999  39.8890591   6.9777840  15.5088449  39.0323353
   7.1814305  16.1404550  40.3926992  22.5370789   3.0362791  22.0614552
  22.6551414   2.3024321  21.4583278  21.7372561   2.8244522  22.5427485
  41.0319233  16.0766900  41.0485601  40.7967281  16.0908246  41.9763088
  40.2442408  16.3800156  40.5971384  26.1394835  12.0293403  19.5498455
  26.6766524  11.8885791  20.3295040  26.3412476  11.2853062  18.9824510
  83.3078048   3.3630827  61.9252205  84.0077183   3.9242482  61.5913773
  83.4292600   3.3678856  62.8746700  48.4198284  31.0385799  29.6921706
  48.7374735  30.6772733  30.5196905  48.7534618  31.9356513  29.6787310
  72.9468007  63.4730787  80.0995100  72.3689695  63.2852621  80.8391511
  73.0495234  64.4246752  80.1114357  14.4557309  30.3174853  27.7165151
  15.3085315  30.5235600  28.0992651  14.1010225  31.1659718  27.4510241
  23.7377524  45.9779167  24.0584278  24.4986796  46.0924864  24.6277189
  23.0843592  46.5843868  24.4070053  26.3300776  46.3382959  22.0522428
  26.0774279  45.6002998  22.6070023  26.5749645  47.0284605  22.6686311
  34.3644023  19.1798961  16.3421702  35.1483917  19.1483712  16.8904388
  33.8742685  18.3927369  16.5796161  75.8667512  70.7956691  83.9936042
  75.7526036  71.7385883  83.8748425  75.0007506  70.4802413  84.2520249
  14.0281773   9.2311996  56.5641594  14.7928667   9.0431058  57.1083117
  14.3676376   9.2410964  55.6692266  51.0522223  53.3383989  27.5976706
  51.5483761  54.0955305  27.9088306  50.5467606  53.6715460  26.8562150
   1.8140808  52.8024244  24.2508674   1.9344744  52.0946836  24.8839879
   2.1959065  53.5708332  24.6751189  26.3473868  26.5919757  17.6824200
  26.5384150  27.2522068  18.3486283  25.8532429  27.0640182  17.0121753
  97.1232650  22.0808172  13.4327495  96.3149485  22.5643730  13.6031306
  97.5256655  21.9755960  14.2948604  69.2290878  30.6886697  13.0401874
  68.3846998  30.4527116  12.6560509  69.0806675  31.5476370  13.4356356
 100.0624558  31.3349366  32.7684379  99.5622620  32.0989513  33.0553508
 100.9155175  31.6881680  32.5159597 109.9928176  16.1843157  41.7855072
 110.7505427  15.7125974  42.1312904 110.3094774  17.0767999  41.6461134
  19.3833590  28.0145812  14.1125417  19.3914866  28.3096480  13.2019913
  18.4546244  27.9483247  14.3345630 105.5171064  46.4934254   8.6311430
 106.3703367  46.5369654   8.1994784 105.6813344  46.8113613   9.5189363
  26.1612272  44.2638493  15.2769852  26.8193650  43.9422226  15.8931375
  26.3119268  45.2082634  15.2369130  12.4895906  62.4442577  31.6088796
  12.8392065  63.1968594  31.1318159  11.6874361  62.7706957  32.0165730
 100.2383443 104.8061746  16.2915325 100.7129189 105.6289204  16.4102757
  99.7261592 104.7071302  17.0940828  37.5635195   6.5740860   4.3751004
  36.7568064   6.7862308   4.8446122  38.0835891   7.3765421   4.4178018
  19.1555798  12.1672785  18.4455800  18.4113562  11.5653241  18.4417069
  19.0494370  12.6845062  17.6471806  61.2206030  36.7583442  28.2560921
  60.4088593  36.4615560  27.8447294  61.0131407  37.6294255  28.5943341
  82.9030892  34.8993039  47.5668240  82.9833671  34.0434861  47.9879713
  81.9616124  35.0714183  47.5516748   2.1200462  27.1871138  14.6840799
   2.7364168  27.0068741  15.3938913   1.2943357  26.8046474  14.9809861
 102.0803025  25.2073240  43.6747742 102.2485146  25.8740473  44.3406725
 101.5275523  24.5622945  44.1159534 110.5341057  30.1901960  41.3358784
 110.1460791  30.5325222  40.5305958 110.3663051  30.8687067  41.9898653
 110.4858142  44.5077467  52.5090313 109.6520913  44.0375805  52.5180912
 110.2889977  45.3359365  52.0713139  23.5729837  17.8600776  31.6090417
  24.0149808  18.3663166  32.2906518  23.8091993  18.3002937  30.7925582
  24.5976710  34.2829156  52.8746700  25.1715469  33.8825274  52.2215319
  24.8819375  35.1960087  52.9157066  98.1321760  60.7882101  83.6282647
  99.0146966  60.6750895  83.9812362  97.5602002  60.3793545  84.2778116
  36.6695642  30.5198908  24.6602678  36.8220234  31.3743234  25.0639153
  35.7871270  30.5817723  24.2946076  36.1791635  51.1829424  37.1447396
  35.6846046  50.3708076  37.0348454  35.7841492  51.6023540  37.9091311
  60.0064381   5.5146433  90.2598432  59.9502309   4.8697115  89.5547646
  59.5093247   5.1263453  90.9797991  36.8180752  30.1028132  29.9321556
  36.5697956  30.3533626  30.8219957  36.1440468  30.4939270  29.3763256
 107.2999230  34.3777514  22.3080945 106.5778658  33.7506032  22.2687221
 107.6266825  34.4235134  21.4095592  24.1089296   8.8091469  44.9257231
  24.1678882   8.6251992  43.9882183  23.5572124   8.1083041  45.2730846
  79.5325121 100.4600045  21.3060069  79.5942070 101.2449842  21.8502784
  80.1096668  99.8267227  21.7327142  27.4907517  40.3765154  26.6349387
  27.5346112  40.9025097  27.4334645  27.2633410  39.4978762  26.9390893
  82.4279716 104.0438488  29.4485402  81.7513850 103.7885722  28.8214087
  81.9580641 104.5390691  30.1194930  24.5509076  63.4779549  47.0626068
  25.3792977  63.6847687  47.4953079  23.9093781  64.0457249  47.4895859
  34.0374947  39.3896055  24.4144225  33.8215232  40.0612593  23.7675333
  34.8485613  38.9974952  24.0909219  27.1592855  48.0719376  24.2019129
  26.6132641  47.8125381  24.9440742  26.8105221  48.9219761  23.9335203
  56.0282469   6.8453050  47.1781445  55.1324511   6.9149137  46.8480921
  56.4447021   7.6661992  46.9155979  24.3108034  14.4317794  22.6273394
  25.2289248  14.6497059  22.4667406  24.1866207  14.5923030  23.5627747
 108.2968074  34.0600300  19.4803572 107.8564981  33.9399815  18.6389613
 108.9927787  33.4028769  19.4823873 103.2795879  64.5942068  11.9897234
 103.1306347  63.6903667  11.7120326 102.5294092  64.8001385  12.5474477
  15.9525584 100.6159547  17.7956450  15.6962108 101.5290421  17.9252112
  16.1526345 100.5535733  16.8616688 111.4732136  44.9311495  21.5632367
 110.6905527  44.4744015  21.8715477 111.9613051  44.2676115  21.0756755
   5.4342937  41.4127016  47.1854782   5.2225423  42.3461819  47.1833849
   4.6300820  40.9840202  46.8927193   2.6749703   6.5744448  38.8019729
   3.5516161   6.9052321  38.6062622   2.1010673   7.0443428  38.1969428
  13.3120859  58.4835720  29.6205831  14.2550802  58.5116625  29.7824597
  13.2162321  58.7714720  28.7127519  56.5416813   4.3341503  17.7516961
  57.3669863   3.8715732  17.8970349  56.3438034   4.1861734  16.8269372
  55.7325204  66.3517041  71.6910601  55.9759148  66.1762674  70.7820988
  54.8337372  66.0307402  71.7645609  21.5117478  37.8321743   9.5791632
  21.8263721  37.7489400   8.6789876  22.2001863  38.3218241  10.0291920
  36.7682099  28.0167222  38.5241961  37.2822905  27.2092938  38.5272551
  36.1102700  27.8791785  37.8427052  73.8297045  92.8197080  44.9832678
  73.0691224  92.3780721  44.6055031  74.3774585  93.0399662  44.2298174
  13.1601381 102.4783751  17.1482992  12.2466659 102.7509978  17.2347856
  13.3493709 102.0130127  17.9630756  99.0671249 102.9644260  57.4085426
  98.8280936 103.8884040  57.4817562  98.6535641 102.6737207  56.5957165
  15.1464069  54.3374109  25.5970287  14.6425796  55.1257372  25.7993436
  15.2729201  54.3707943  24.6488142 101.8055043  16.4255989  11.1122930
 101.6253635  15.8925128  11.8866313 101.8552688  17.3218143  11.4447892
  51.1937936  80.0984652  88.3600095  51.0565670  79.1913230  88.0870706
  51.5746911  80.5245955  87.5921810   1.3114992  32.7287269  35.3835011
   1.0113463  31.9519782  34.9114823   2.1189174  32.9833031  34.9368501
   6.8402040   2.0791969   4.2736551   7.2226155   1.5060198   4.9380806
   7.5606805   2.6498151   4.0061852  20.6899977  31.2373233  61.3130188
  21.5526628  31.3009119  61.7228937  20.3425503  30.3981376  61.6151476
  16.6133916  47.1996641  10.7297206  17.0584083  47.6645231  10.0211310
  15.6975591  47.1626806  10.4538286  78.9872642  76.5114839  86.6981941
  79.8356243  76.1753662  86.9872347  79.1048999  76.6877777  85.7647520
  18.4690404  54.1078997  39.8131108  18.2598722  54.6630144  40.5643272
  18.3421445  54.6756935  39.0530205  12.1841216  34.3019843   0.2762761
  12.2601414  34.5798516  -0.6365450  11.4140224  34.7660923   0.6045763
  16.6550279  30.5909395  18.8351953  16.0848749  30.0001645  19.3272769
  16.9453382  30.0732923  18.0841994   1.2960315  43.7090635   7.9912543
   1.9834256  44.3740177   8.0306870   0.8287718  43.7980556   8.8219053
  10.6258607  23.5708332  12.2123861  10.5618989  23.6146045  13.1664431
  10.9506786  22.6882076  12.0343542  36.1191177  57.4001455  20.2974463
  35.4620767  56.7397356  20.5174112  36.6327953  57.0021439  19.5946217
  32.4500513  32.5646186  41.5529394  31.6512656  33.0835581  41.6471529
  32.1557355  31.6566682  41.6252947  67.1825624  75.6297253   1.8511105
  67.0205975  74.7055267   2.0404625  67.7551366  75.6203006   1.0841084
 109.1889568  84.2114907  26.9482946 108.7781139  84.0271932  26.1036205
 108.9422747  85.1157599  27.1423984  24.5138335  38.7106681  20.0672770
  25.2822661  38.2756376  20.4367280  23.8320279  38.5954452  20.7291651
  47.3156214  57.2823763   5.4758555  47.4750376  56.8842506   6.3316089
  48.1641340  57.2485304   5.0341380  97.4612066  34.7088695  55.9099245
  96.5454683  34.5637178  56.1478043  97.9550001  34.4459486  56.6866302
  12.4021423  59.9857903  26.2459898  12.2489452  60.1685238  25.3189659
  13.0285299  60.6550121  26.5216994  15.0687957  76.1564684  40.9735060
  14.6579468  76.3135147  41.8236637  15.3576934  77.0217609  40.6836081
   6.8370253  24.6013451   3.0551028   7.4709487  24.3042731   2.4023239
   7.3651165  24.8020697   3.8278005  56.5369710  93.6575788  62.9249239
  56.3657256  92.8149432  63.3454847  55.7018181  94.1229051  62.9720592
  30.9131956   0.9648073  67.1930361  30.0176501   1.1833700  66.9352436
  31.4406466   1.1649675  66.4197588   5.2868222   9.6934678  89.8627153
   5.2464627   8.8377692  89.4356517   5.7292032   9.5252825  90.6947279
  25.8483076  46.3500929  55.7547092  26.5341854  45.6902647  55.8568335
  26.2063718  47.1341705  56.1709452  22.0750642  37.0090151  19.6572137
  21.5057230  37.7766705  19.6044290  21.6099834  36.4052534  20.2363539
  27.3413260  88.0119712  89.8021045  28.0147274  88.4883768  90.2876960
  27.5631501  88.1550200  88.8820161 110.8542961  31.9388223  70.2650070
 110.9719480  32.0888042  71.2030363 110.2458474  31.2015986  70.2147913
  19.0384591  30.9931374  15.8921099  18.7462986  30.1336098  16.1955619
  19.9874103  30.9813881  16.0169566  32.2600269  45.9879780  25.2038622
  31.5775847  45.9762430  25.8749533  31.8665075  45.5413675  24.4542527
  29.2766309  15.8758485  29.5785546  29.6209311  16.7683387  29.5446467
  28.4582281  15.9158921  29.0837336  30.0237656  10.0619185  26.2151265
  29.8718262   9.9607056  27.1547556  30.9099817  10.4182446  26.1528206
  66.0540771  19.4287705  39.6888161  66.6650105  19.1570222  40.3737545
  65.4816723  20.0652385  40.1171780  37.5667524  44.7387123  36.0784459
  38.3136582  44.6173573  35.4922390  37.8547120  44.3688202  36.9130087
  93.5591575  28.3233428  59.0419531  93.2657799  27.5673032  59.5504427
  92.8406093  28.9519405  59.1111326   9.7595131  52.3183393  52.2566080
   9.9449390  52.5616693  53.1636047  10.5257583  52.6172876  51.7669868
  18.2504797  39.2370796  34.6081185  17.4577224  38.8076353  34.9295950
  18.6823356  38.5722089  34.0717602  52.2864628  21.0415816  30.4190159
  51.5947056  21.6378498  30.7056594  52.6358986  20.6725454  31.2301493
 104.4333168  83.2158309  28.2157302 104.7875877  82.4832517  27.7116966
 104.7570010  83.9956122  27.7647281  13.5372412  38.1777883  81.6411781
  12.7246904  38.3546233  81.1671257  13.6768413  37.2368479  81.5345192
  41.2470783 103.5663755  78.4838378  41.4693345 104.0193803  79.2972374
  41.9421069 102.9175479  78.3734214  11.0884427 100.2660197  33.8282824
  10.8248376 100.8311727  34.5544696  10.7842159 100.7247182  33.0451632
  19.5320439   1.7728765   9.5473230  19.5715499   2.6928061   9.2857873
  19.2007565   1.7931361  10.4451370  11.2494409  43.0404282  35.2027726
  12.1549821  43.3504057  35.2145553  10.8206463  43.5266924  35.9069824
  50.3066397  26.6644645  56.6052246  49.9113894  26.5859795  55.7369757
  51.2164831  26.3950276  56.4794445  76.8941740  92.6607543  62.7916288
  77.2207906  92.2787398  61.9770002  76.2138382  92.0544952  63.0845833
  45.6209517  39.1371012   7.8445405  46.0592842  39.9282551   7.5312209
  46.0616493  38.4216237   7.3861670  44.9105024  18.2691419  21.4659595
  44.0762329  17.9173303  21.7765355  45.3230953  17.5373673  21.0071564
  58.7156534  28.1825399  38.2697082  59.5196819  27.6650786  38.2249069
  58.0524206  27.5678825  38.5836267  22.1312308  38.7508774  39.7780180
  22.6993489  39.3001652  40.3181601  22.2893047  37.8607440  40.0925112
  15.7937872  14.5281851  23.3452034  16.3841105  14.6333301  24.0913248
  16.3015079  14.0272701  22.7068186   1.4130084  22.5811338   6.1254686
   1.5499526  23.3797741   5.6159067   2.2866292  22.3415756   6.4347106
  75.1605640 103.3050170  53.6563158  75.5983665 102.4555763  53.7111902
  74.3348936 103.1204396  53.2086182  27.4804592  36.5821934  57.1059513
  27.6075006  37.2828245  57.7456427  26.5435767  36.6029477  56.9108868
 101.4824507  26.9682646  41.6405582 101.8686840  26.4828682  42.3695612
 100.5553207  26.7309666  41.6592741  80.5286667  28.8048124  51.2012339
  80.0834128  29.3056369  51.8847227  79.8521516  28.2265925  50.8487844
   9.7761983  17.1292055  38.0072045  10.7224143  17.0311856  37.9009032
   9.4010520  16.4367568  37.4631333   4.7134542  78.0664903   1.1822491
   4.6742868  77.6071411   0.3433823   4.2136621  77.5127536   1.7820963
 109.1773316  27.1427369  37.8712416 108.5040167  26.9812679  37.2103286
 109.7186974  26.3534236  37.8594398  59.9599762  59.0307660  85.7268435
  60.2316661  59.7500343  86.2969926  60.0606819  58.2464380  86.2662137
  24.6249890  11.1866212  39.1587400  25.2774024  10.4939795  39.2628360
  24.7147894  11.7208064  39.9479270 110.2559774   9.8852003  35.2347732
 109.5542216  10.1392388  34.6354103 111.0441324  10.2801669  34.8618841
 105.4301241  38.8172960   0.6546084 105.7020399  38.0258083   1.1191968
 105.0930449  38.4994841  -0.1830103   7.3777467  25.4154253  52.9343987
   6.8219465  24.6399188  53.0112648   6.9344556  25.9646726  52.2878313
   6.7647737  64.2804718  40.8627367   6.9344974  63.8671875  40.0162029
   5.8113354  64.3526888  40.9071493 106.5856048   4.5295522  41.4123583
 107.1709833   4.4362617  40.6607819 106.0671619   3.7249109  41.4134741
  19.0513277  56.2669945  27.6654363  19.9565971  56.3112020  27.3575974
  18.9986968  56.9328785  28.3510423  81.7040833  98.7123114  32.4914742
  81.5246620  98.4015673  33.3788729  80.9373816  99.2374164  32.2619843
  12.7994180  57.4522781  15.8390784  13.5645914  58.0238914  15.9023499
  12.1906674  57.9285860  15.2744675  11.9231843   3.0822302  90.9987771
  11.0298537   3.3531739  91.2104019  12.1845721   3.6587311  90.2807527
  37.7001047   0.3378974   7.6774818  36.7828536   0.6114982   7.6824474
  38.1576705   1.0251615   8.1617695  82.1413846 103.1684024  82.8268474
  81.8480916 102.5123794  82.1945119  82.8844877 103.5959680  82.4011552
  10.6747270  11.4020443  66.8271875  11.6182709  11.5624928  66.8417645
  10.4599345  11.3207257  65.8979464  16.9570088  43.6340857  41.8555355
  17.6242542  43.0107212  42.1426487  16.2281060  43.0869293  41.5630388
  13.4993088  43.7795639  10.0942492  14.4429231  43.7986994  10.2538049
  13.1156862  44.1705275  10.8792424   7.2501034  20.1912880  50.0684881
   6.3051939  20.1610923  49.9186039   7.4066985  19.5312750  50.7438374
  92.7359101  13.1877708  59.3280554  91.9931266  12.9368269  59.8771763
  93.0546269  12.3617804  58.9642000  37.4064636  41.9862556  34.1419506
  37.0578194  42.4588346  33.3860731  37.4348617  41.0718250  33.8604498
  31.8566084  22.3080063  10.8226383  31.7580914  22.0911598  11.7497325
  31.8878627  23.2644820  10.8023894  34.6072555  45.8956909  41.8509436
  34.2253566  45.3591013  41.1563492  34.0235305  46.6513157  41.9182110
 105.9514471  94.1130620  26.4401364 105.4604455  93.8260585  27.2100568
 106.8694969  94.0444642  26.7022610  38.7420726  58.9023399  23.1647563
  39.2109370  59.2380524  23.9287543  39.1711640  59.3198347  22.4178886
  14.6634507  55.9027576  35.8406711  14.8510945  55.5071545  36.6918588
  14.3507314  55.1756763  35.3023481  35.3737569  49.2553329  44.3243217
  35.1861763  48.4506559  43.8410616  36.0435271  49.6974325  43.8026094
  46.8672609  15.2143085   1.2724879  46.3436842  14.9742138   2.0369855
  46.2803841  15.7501984   0.7389767  26.8536115  48.5314369  64.7577906
  26.8230152  47.6450491  64.3977833  26.0881042  48.5840893  65.3300333
   6.6745138  69.3536329  15.6674075   6.3031030  69.5441723  16.5287900
   7.0524043  70.1849031  15.3803134 110.6474912  45.7328749  24.8938489
 110.9683622  46.1790133  24.1101193 111.2489264  44.9980259  25.0142956
  22.1500206  48.4745121  33.5397720  22.6364684  47.7652740  33.1195569
  21.4911723  48.7287235  32.8936076  30.9477067  50.0290108  37.8762197
  30.6058121  49.3502283  37.2943306  30.1947498  50.2925253  38.4052229
  40.0241566  38.0106616  35.0577688  39.7554255  37.2763801  34.5056415
  40.2867985  38.6920691  34.4389510  82.3280027 105.3444421   5.9532666
  83.0163553 105.6224120   6.5575308  82.5884291 104.4641588   5.6821376
  10.2764761  49.0149498  19.1911483   9.4218117  48.9901304  19.6214545
  10.7149494  48.2157564  19.4831491  37.4390888  49.5798445  29.4931936
  37.1584749  49.4904900  28.5824227  36.9377017  48.9145947  29.9646640
 110.1494886  52.9020309  24.6430969 109.5012294  52.2595882  24.9316430
 110.0423288  52.9401493  23.6926794   7.2448796  25.5974030  19.4155514
   7.0840234  25.7804537  20.3412127   6.9495910  26.3861060  18.9605987
  27.7063823  49.4313431  33.2237339  27.9482651  50.3517866  33.3262587
  27.1041656  49.4233942  32.4797559  56.2173319  47.5896454  35.3027105
  57.1103764  47.6357698  35.6441379  56.3204622  47.2779703  34.4035721
  21.2108421  24.8714304  37.0363402  21.0628295  25.4774618  36.3103580
  21.8544555  24.2477059  36.7002463 105.9593615  57.2592688  31.5981030
 105.1873007  57.8134489  31.4839196 105.7424322  56.6965008  32.3413825
   7.9403234  43.3199883  38.2660556   7.4457151  44.1242313  38.1086063
   7.2849113  42.6908588  38.5674882  31.1426497  63.4725285  18.1248748
  31.4121699  63.9449739  18.9125204  31.9524956  63.0919456  17.7849662
  39.1592717  51.6080713  13.2358718  38.8219595  51.0996723  12.4983191
  39.4277072  50.9502888  13.8773537   3.6938762  13.3527542  68.6257768
   3.3072471  13.8319184  67.8928733   3.1241559  13.5512520  69.3689132
   6.4181226  72.7707767  16.5486610   5.7277012  72.1115160  16.6188514
   5.9490442  73.6016989  16.4727271  48.9824009  41.9671345  27.1752787
  48.4331465  41.5484142  26.5125394  49.4149351  42.6833105  26.7102575
  48.8465071  67.9244995  12.9816329  48.9290190  67.1308184  13.5103071
  48.3788967  68.5404682  13.5456884  91.1849424  27.0754123  52.2831583
  91.2062594  26.1343098  52.1096611  91.0963294  27.4764132  51.4185333
   7.4194843  42.9259062  50.7993889   6.5584111  43.1647730  50.4562712
   7.4066573  43.2255793  51.7083788  19.2246795  68.5118151  46.5086269
  19.3780208  69.3412685  46.9610929  18.4405541  68.6675406  45.9821987
  51.4746761  29.1844082  59.6028757  50.6206751  28.8034892  59.8073721
  52.1063328  28.5285306  59.8979378  42.8733921  37.9243803  29.5443964
  42.1095467  38.3034468  29.1095614  43.5108614  37.7979660  28.8416290
 107.1789285 103.0302261  53.2150269 107.2695466 102.2986290  52.6044655
 106.4663740 103.5571825  52.8533411  23.1252384  33.0434227  22.7052903
  23.6588669  33.1248260  21.9148159  23.7602878  32.9281783  23.4121561
  46.5047693  27.5845885  42.8632832  46.5252686  27.7252078  43.8098764
  45.7251072  27.0487404  42.7175760   4.7561687  42.5091839  53.8347864
   5.5986440  42.8725815  53.5620022   4.2125833  42.5478077  53.0478573
  46.1093426  25.0611186  51.1909008  46.9590378  25.1736259  51.6170406
  46.2550640  25.3431726  50.2878809  25.0312781  30.2469277   1.0245097
  24.0872216  30.2783537   1.1794364  25.2507949  31.1220551   0.7048307
  17.4007928  69.2942858  24.0349221  16.9950175  68.4384632  23.8965416
  18.2897782  69.1957998  23.6939883  47.2224998  52.5942659  32.2944927
  46.5305090  51.9623184  32.4895024  46.9272614  53.0343628  31.4973855
  54.0378284  75.2740383  15.5262959  54.3805075  76.1308622  15.7805765
  54.6693802  74.9434662  14.8874736  50.5295181  47.5968885  32.7632809
  50.3558397  47.2804451  33.6498070  50.1121426  48.4576654  32.7301598
  43.0330038  24.3152142  48.1397724  43.6554527  25.0338101  48.0283546
  43.1082869  24.0741181  49.0630484   7.6712793   9.9816960  27.6664901
   7.6047719  10.6128514  28.3830452   7.8768188   9.1516936  28.0966997
  43.2515955  48.9873362  21.6513085  43.0421209  49.3086815  20.7743311
  43.2957363  48.0361557  21.5536547  32.8029203  21.6585088  13.5343933
  32.8675628  20.7299447  13.3111930  33.6370540  21.8617368  13.9576566
  23.1910443  27.4699712  28.9374661  23.7174630  26.8319821  28.4557152
  22.5952172  26.9387889  29.4657326  12.5242519  52.8441572  23.1658864
  12.5210416  53.3449602  22.3501587  12.8780735  51.9892216  22.9206705
 104.8870537  55.4551220  34.1157985 104.1054562  55.9089327  34.4310617
 104.5525005  54.7969198  33.5066390  49.7457695  25.9260178   9.8338556
  49.1517258  26.4022851   9.2537522  50.5985308  25.9833384   9.4028753
   7.2571719  84.4083405  27.7653670   8.1880373  84.5598888  27.9289341
   6.8121368  84.8456097  28.4912920   1.8049553  42.0777178  57.4702072
   1.9048963  42.5137758  56.6239834   1.0443056  42.5002956  57.8690481
   7.5352985  67.1564817  20.0825930   7.7016443  66.3084173  19.6710753
   8.3646053  67.6278830  20.0034547  34.0437555  38.0895305  39.7098398
  33.2983947  37.5761843  40.0215149  34.7040200  37.9942179  40.3962803
  52.4991512  33.0009866  68.0197859  52.7582359  32.1850443  67.5915956
  51.5435553  33.0073667  67.9648399  49.1389608  42.4397087  30.9459281
  48.9579630  43.1522846  30.3329754  50.0389957  42.5936317  31.2331176
  27.2131324  75.3511572  12.1744561  27.6571536  75.4267502  13.0190647
  27.9090405  75.4642963  11.5270424  87.7608033  48.0898882  90.8012313
  87.9744335  48.5592104  89.9948035  88.6010607  47.7526881  91.1118717
  30.7674694  27.3695803  15.0266862  31.4602661  27.1370697  15.6449139
  30.0137281  26.8492436  15.3048122  24.4359207  15.8798563  11.3329172
  24.4242716  15.9290445  10.3770518  24.8876858  16.6775405  11.6083062
  48.6968374  18.0133867   9.7121060  47.7771044  17.7813029   9.8403949
  48.7961864  18.8542664  10.1585162  16.1921740  41.8954659  19.1553903
  15.5521071  42.5906897  19.3077433  16.8602765  42.3017836  18.6033213
  47.7940607  23.0395722  44.8267365  46.8555021  22.9550505  44.6588278
  48.2108259  22.6776600  44.0447140  42.4514961  34.7577739  30.6542850
  42.1503878  34.1522670  31.3317251  43.1681442  35.2406335  31.0659885
  81.9653602  68.5020752  87.0860693  82.1152110  67.7770800  87.6928300
  82.0467134  68.1081743  86.2174755  77.3887110  21.8064737  11.8601608
  77.4982262  20.8807874  12.0777416  76.9246340  21.8024611  11.0229933
  30.0799751  59.8861027  38.6857772  30.8862495  60.2715635  38.3428884
  29.9411488  60.3272295  39.5238495  52.1960303  46.7916679   6.3612598
  52.5360247  46.5301800   5.5055374  52.0811602  45.9680176   6.8352199
  19.8977864  55.7763815  37.8188443  19.7982955  55.1189041  37.1303272
  20.5619526  55.4119158  38.4038901   0.3284148  65.5060196  15.6027150
   1.2623343  65.3328228  15.4842675   0.0967278  66.0798359  14.8724496
  34.9047279  59.4906139  16.1758363  34.6219063  59.7349834  17.0570445
  35.7768416  59.1159630  16.2994671  18.3540356  21.1971378   6.6227299
  18.3340168  20.9727955   5.6924069  19.2853844  21.2296152   6.8412882
  31.4154720  74.7540236  19.0015507  31.3545275  75.7092190  19.0127027
  32.2803259  74.5734882  18.6332202  19.4826913  18.4215033  50.0073051
  18.8598049  19.1081166  50.2456427  19.7280788  18.0207443  50.8412170
  49.6391106  15.0072730  53.8322878  49.4641161  15.5995119  54.5636320
  48.7927532  14.6012259  53.6451101   9.7198582  32.5804663  21.2505031
   9.0988159  32.9338527  21.8874168   9.7520119  33.2389617  20.5565405
  22.5009012  70.7788992  20.3888583  22.8415990  70.8315420  21.2818241
  21.6736078  71.2593985  20.4194331  28.4694004  32.1120691  22.2242260
  28.0040121  32.7355576  21.6666365  29.3662977  32.4446654  22.2587013
  35.5317235  68.8317394  14.9157357  36.2465668  69.2144966  14.4070852
  35.1439500  68.1803417  14.3313181   6.9597727  21.3714957  36.4740300
   7.5432855  20.6204724  36.5822339   6.6766316  21.5848708  37.3631501
  46.6311169  81.4698982  33.5763931  46.4741802  80.5258751  33.5970020
  47.1877289  81.6368294  34.3370152  97.9922267   9.8602368  88.8623488
  98.3545204  10.7362868  88.7300220  98.4729954   9.5132185  89.6137951
  28.7943840  55.5695724  57.1573210  28.1949115  54.8316717  57.0460844
  28.4724355  56.0244989  57.9355383  29.4134736  42.4490643  13.9665389
  30.1711321  42.5284290  14.5460963  29.6612334  41.7689610  13.3401942
  31.4013195  45.1027536  42.2739267  30.5341506  44.7153521  42.3929596
  31.7765474  44.6269560  41.5329456   9.2683905  47.9817343  67.1901226
   9.4604850  48.5760307  66.4647675   9.8991358  47.2688532  67.0891571
  26.9184995  78.9079428  44.7841120  27.1869874  79.7734356  45.0924397
  26.1645985  78.6827278  45.3292227  65.1017904  51.4277077  29.5346069
  64.2740536  51.6970539  29.9327683  65.7633352  51.9645691  29.9709249
  44.2154980  29.2404985  15.0622296  44.3023252  29.2724156  16.0149491
  43.5367012  29.8849511  14.8618650   1.6887593  99.5416605  18.4531093
   1.0108518  99.2661959  17.8360236   1.8145894 100.4728585  18.2707155
  19.9179411  19.0954876  22.5363493  20.7970524  19.4731295  22.5083899
  20.0350714  18.1936252  22.2377563 111.2990270  58.0651379  25.2272868
 111.1254804  57.2783279  24.7105241 111.2675598  57.7665186  26.1361694
  34.3705010  39.4499540  45.6370926  33.5961533  39.2695117  46.1700630
  34.2879391  38.8605309  44.8874283  74.8327494  16.3146603   9.2809576
  75.6809616  16.7534614   9.3459105  74.3146276  16.8787158   8.7068284
  50.5493736  37.9457116  25.6953645  51.4644432  37.6698017  25.6428838
  50.5657291  38.7252736  26.2505651  46.8788624  45.6405067  37.4721456
  46.4569473  45.1229811  36.7862988  46.7394400  45.1355076  38.2732511
  31.0067368  35.0418091  65.8266735  30.2605343  35.4874277  66.2277174
  31.6667533  35.7270694  65.7216501  14.0475249  62.5446081  45.1774740
  14.4781744  61.6921902  45.1129961  14.7232413  63.1739998  44.9254751
  24.4753027  40.5143547  31.1065149  25.1496553  41.1205530  31.4131117
  23.8222980  40.5086231  31.8063617  10.5044913   9.0023583  44.0883350
  10.5114806   8.9929783  43.1312084   9.8966670   8.3036119  44.3302774
  55.2980661  26.7176056  21.3192749  54.3489647  26.7528343  21.4384484
  55.4192019  26.6832614  20.3703904 102.3531839  47.5368452  32.7199769
 102.4234799  46.6436768  33.0569410 103.2595250  47.8154182  32.5889230
  49.7526598  45.6623268  34.9245882  50.4549885  45.0151968  34.8598552
  48.9867783  45.2222776  34.5557809  25.9662318  59.8098850  46.7525578
  26.7240810  59.2539406  46.9337273  26.1444521  60.1840448  45.8897305
  28.5166621  83.0127335  38.5210919  29.0379477  83.8101387  38.6140156
  27.6159024  83.2957268  38.6784911  50.0740862  41.0649347   9.0913486
  49.7146559  40.2441788   8.7546033  49.9974108  40.9876633  10.0423384
  51.8364573  55.7133722  28.7652469  51.6619253  56.2426043  27.9869890
  51.1247969  55.9308481  29.3673110  31.8205762  17.8272963  37.9394841
  32.6359248  18.3280122  37.9125857  32.0206165  17.0183861  37.4684429
  27.9138494  14.0415990  46.0436487  27.6127267  13.8196588  46.9247293
  27.4895716  13.3979118  45.4762983  11.2684882  62.7998114  35.5234861
  12.0449865  62.2465467  35.4387546  11.1382544  63.1654119  34.6484947
  23.2778931  83.4948730  11.3598251  23.5914898  84.0795231  12.0498037
  23.3722186  82.6167011  11.7288041  32.8259206  66.3681412  18.7297773
  33.2583523  66.6130257  19.5478654  33.5444069  66.2003946  18.1199670
  50.9415197  40.7097006   4.7334439  50.9724712  39.9070501   4.2128432
  51.8234491  40.7943487   5.0957507  35.2035260  26.6029072  12.6793563
  36.0423732  26.9307184  13.0035579  34.7646689  27.3764896  12.3255110
  27.2424531  86.8879128   9.1115344  26.8676615  87.7235603   8.8332027
  26.5577364  86.4840508   9.6447259  11.3077343  33.6171675  31.4472651
  11.3712215  32.6782656  31.6223812  11.7142582  34.0308595  32.2087312
   7.3410130   7.9481256  11.3240254   8.0999690   8.5162145  11.1917663
   7.5104356   7.5127167  12.1594584  10.6624913  47.5608349   4.5222545
  11.4643121  47.7211237   5.0198710  10.7186830  48.1600857   3.7779635
  36.9661355  22.3485827  33.3941531  36.8023658  21.5453863  32.8999019
  36.1371589  22.5307155  33.8367105  16.9335163  33.8783336  25.5940819
  16.4488173  33.5527635  24.8355961  17.7715528  33.4171629  25.5587602
  20.2979732  39.5053267  59.1650581  20.1189113  40.3710556  58.7980747
  21.2320352  39.3671346  59.0080214  24.0890765  53.2985640  46.5828466
  23.7542915  53.9989328  46.0228157  23.4165335  53.1870174  47.2547626
  45.1093483  26.6908288  47.7636003  45.1801109  27.6383471  47.8794909
  44.7923946  26.5822101  46.8669510  11.0628974  37.4817801  35.2258992
  11.1566043  38.4329247  35.2785778  11.2820494  37.1705103  36.1041427
   5.0556892  67.0963812  31.4192200   5.5860418  67.7806854  31.0109448
   4.8613009  66.4870977  30.7070279  18.0203831  57.7008724  32.0598769
  17.1260190  57.3830843  32.1837950  18.0012894  58.6018515  32.3825312
  65.2459784  99.2368133  84.9693799  65.4519244 100.1314313  84.6983057
  64.6906920  98.8959129  84.2681861  39.1440153  63.8561010  53.9516258
  38.4118342  63.8248730  54.5673895  39.5382404  62.9854202  54.0039015
  20.8742857  53.4477186  29.5811033  20.2672744  53.8374519  30.2102900
  20.4821968  52.6024246  29.3620563  26.3540554  14.1302347   4.9487856
  26.5524483  13.9865339   5.8741087  27.0099211  14.7642875   4.6588707
  41.4610481  44.5784378  33.0955052  40.8038044  44.3885422  33.7649822
  41.0831213  44.2368317  32.2851324  74.9985571  91.1931283  75.1767576
  75.8763190  91.5520723  75.0466716  74.7489639  90.8533366  74.3174112
  28.8624907  66.0394669  27.7949834  28.9836979  65.5576992  28.6131763
  28.4156489  65.4211140  27.2168779  18.6847198  22.1685910  60.6902170
  19.0545201  22.7964306  61.3109398  18.6953187  22.6275778  59.8503113
  16.9748700  46.1090469  22.9463172  16.0242295  46.2096739  22.9951882
  17.1609485  46.0435486  22.0096660  36.1492467  29.1236043  47.5112104
  36.6926122  29.9015880  47.6366138  36.0755634  28.7395549  48.3848906
  48.7067175  33.8273787  29.1190886  48.6053276  33.5452247  28.2100558
  47.8501368  34.1824675  29.3566132   3.0490780  73.8269043  52.9291201
   3.8520259  73.4350586  53.2725763   3.3075947  74.7097015  52.6644135
  25.8775496  51.6842461  20.8629942  26.2314916  52.2179461  20.1515746
  26.4511704  50.9186840  20.8963180  28.8279724  53.4354305  23.5680008
  28.9854217  53.1356525  22.6726913  29.6374846  53.8813734  23.8171148
  50.4765272  24.1758680  68.3255100  50.7596350  25.0499558  68.5939360
  50.6439495  24.1486549  67.3834562  31.7127728  74.4257450  32.3418331
  32.4948859  74.7783089  32.7663636  31.6261363  73.5408354  32.6963162
  36.0678840  22.7769828  22.7134085  36.4321327  22.6162052  21.8429470
  36.5454960  23.5414529  23.0354428  25.4413819  23.1403542  24.4836688
  24.5675468  23.5121655  24.3636703  25.8710456  23.7326956  25.1007223
 104.6725550  28.6422348  16.7914021 103.7314245  28.4685898  16.8101919
 104.9706361  28.4429979  17.6789176  37.6008415  57.7905083  44.6449518
  37.5772452  58.0850172  45.5554104  38.3083820  58.2979679  44.2473316
  22.0215034  14.7562313  11.6898894  21.4644170  14.8565054  10.9179878
  22.8012872  15.2746904  11.4914727  28.2772470  31.1090302  41.4519215
  27.5232053  31.6226554  41.7414808  28.6422682  30.7440996  42.2580338
  17.2730303  65.4348421  69.5289993  18.2045472  65.3855610  69.7436619
  17.2177720  65.1169538  68.6278200  62.6596136  82.7104480  83.0820113
  61.8875785  83.1852276  83.3898675  63.1207033  82.4585397  83.8821173
  15.3398645  15.4714251  46.7500019  15.7496858  14.6148622  46.6292620
  15.3639460  15.6172979  47.6957130  52.6400661  48.6035967  35.4813313
  53.3731604  49.0117598  35.9419918  52.2055578  48.0707216  36.1472726
  48.1806850  27.6527262  18.1728685  48.5023355  26.9320536  18.7145364
  48.1346703  27.2865057  17.2896945   5.4750896  75.4016876  17.0158577
   4.6496964  75.4194164  16.5314579   6.0475457  75.9999228  16.5356076
  29.0342736  23.1920505  37.9003263  29.5028472  23.8163924  38.4542823
  28.5266423  23.7382984  37.3001957  16.5925515  33.0483341  76.2455463
  17.2678804  32.5407839  75.7954836  15.9942281  33.3208227  75.5498505
  17.9127944  68.0306339  27.0749474  18.3927560  68.8515377  26.9654894
  18.2807910  67.6420164  27.8685379  44.5067215  57.1713591   9.6900624
  44.5099163  57.1377563   8.7334579  44.2238998  56.2974834   9.9594766
  41.1858559  26.9567347  31.6739559  41.8826389  27.5382590  31.9781876
  40.8219814  26.5794706  32.4748921   9.8842555  62.3098993  54.7586155
  10.5071557  61.5957260  54.6237707   9.1994339  62.1565247  54.1076708
  44.9924660  77.6079845  15.3896213  44.6352053  77.6850796  16.2742984
  44.8714972  76.6861534  15.1619601  34.5551562  30.9570813  68.7593794
  34.4381070  31.8976021  68.8933611  34.0543318  30.5502748  69.4664240
  15.7803214  91.4761829  31.5685368  16.3925934  92.1399784  31.8859196
  15.0579262  91.9777870  31.1906910  72.0957773  12.6757027  82.0064956
  71.6652986  13.3701731  81.5078670  72.6699116  12.2461726  81.3723791
  30.6994987  49.3284416   0.6472144  29.8877382  48.9695835   1.0056814
  31.1198568  49.7596502   1.3912502  11.5869594  47.5130510  43.6892319
  10.8233619  47.5887251  43.1170225  11.6533005  48.3680534  44.1144323
  40.6742859  42.9304743  10.6428218  41.5410566  42.8017139  10.2576542
  40.7274723  43.7842512  11.0723221  60.0376463  56.5900373   5.5662966
  59.5101166  56.9916439   6.2566996  59.4362402  56.4999771   4.8270863
  15.3294933  22.3231721  11.9194007  16.1525631  22.1174073  12.3626256
  14.6670330  21.8301487  12.4034536  31.0048866  60.2792311  18.7150681
  30.3921342  59.9118757  18.0780280  30.9051991  59.7260380  19.4898415
  32.5659823   8.7376326  31.5768790  32.9636145   8.2107061  30.8837199
  33.0106568   9.5833516  31.5198159  22.6332855  48.2026863  47.1139002
  23.0905843  48.6166954  46.3819790  22.4404645  47.3171854  46.8057728
 100.7170984  43.2282162  53.4649277 101.4658663  42.9130316  52.9587269
 100.6221446  44.1449785  53.2065535  31.6009665  77.8808403  18.6995065
  32.2557044  77.7993536  18.0060303  30.7942510  78.1155539  18.2408690
  38.0250382  34.7407246   9.4124299  38.7461877  34.2392755   9.7928524
  38.1566215  34.6698856   8.4669679 105.4680583  45.4310513  44.9600983
 104.6940580  44.8763895  44.8625946 105.7856807  45.2458000  45.8438587
  18.3517385  21.1289477  30.6798840  18.5386717  22.0583272  30.8123446
  17.9184353  20.8542466  31.4879799   2.4769147  45.1255083  36.4902210
   2.9682505  45.8701420  36.1433291   1.6527195  45.1347351  36.0035515
  48.3306742  15.8926868  26.7037058  49.0016651  15.2878177  27.0201516
  48.0512524  15.5234647  25.8659530  45.7227755  31.4278913  26.8413353
  44.9994183  31.7545152  27.3764086  45.9866142  30.6123471  27.2673750
  36.3980412  53.4316301  41.7180443  36.3489962  53.4764814  42.6729345
  37.3000407  53.1675529  41.5366840  25.7249141  48.2459784   7.0080978
  26.6086483  47.9157066   6.8463349  25.3008437  48.2255983   6.1502051
  65.0896502  33.1692910  58.6950064  65.2746296  33.6466908  59.5037746
  65.9300184  32.7841353  58.4466839  59.5693922  35.1865315  26.7717338
  59.3279743  34.3031406  27.0502472  59.3130398  35.2256155  25.8503294
  27.9083824  68.5921383  48.0186176  27.7484083  67.8177214  47.4792528
  27.9837108  68.2517433  48.9100695  83.9605232  64.3950601  75.0854695
  84.8013635  64.0013392  75.3182805  84.1163774  64.8079510  74.2360806
  14.1625655  63.8160181  17.4732387  14.5708847  64.5857382  17.0769620
  13.6871004  64.1597605  18.2295489  69.3309761   1.8792075  39.7443795
  68.8073064   2.6781005  39.6829653  69.1220690   1.3939399  38.9461923
  11.1077046  26.9224596  28.1740499  10.8789301  27.0051146  29.0998268
  11.3308167  25.9981441  28.0640674   8.3859919  54.6460954  83.1125861
   7.4553393  54.6379268  83.3362901   8.6433218  55.5646441  83.1918389
  49.4558191   0.7379894  61.7464733  49.6468544   1.5752366  62.1692705
  48.5166121   0.6108094  61.8804359  41.9162416  45.7575989  24.2568731
  41.5831661  44.9882269  23.7949681  41.1765289  46.0592175  24.7842145
  11.8051994  20.7180548  47.1530294  11.6825581  21.6666389  47.1901751
  12.7098548  20.5822968  47.4348116  34.4733167   3.8498861   1.2997867
  34.4944358   2.9545507   1.6376624  34.2741442   4.3898770   2.0646214
  21.8419600  32.4367476  10.8652973  21.0157847  31.9548178  10.9028471
  21.9005060  32.8781176  11.7126453  35.9743023  15.4836488   5.1737791
  35.3061366  15.4360771   4.4900212  35.9420013  14.6272969   5.6002170
   3.5661477  57.0393324  37.1624422   3.5297301  56.9724846  38.1166101
   4.4944003  56.9406557  36.9506836  24.9571872  32.5225234  24.7435379
  24.5576763  32.8485513  25.5499673  25.8345628  32.2443724  25.0063586
  61.8034077  45.0367165  12.3243260  61.2518263  45.7993555  12.4986148
  61.2524605  44.4581032  11.7971683  59.0625525  54.0367365  43.2858849
  59.8060369  54.1073370  42.6871490  58.7444353  54.9346495  43.3796406
  67.6416922  30.3805709   4.6297666  68.5205555  30.6643581   4.3781868
  67.3967314  29.7396588   3.9623410 104.8698696  11.2618828  59.8553467
 104.6886584  10.5417943  60.4593897 104.0268639  11.4441609  59.4401979
  27.6506019  54.2429638  38.7618971  27.7913523  55.0856686  38.3303094
  27.3290396  53.6686802  38.0668998  77.5687599  15.2987921  16.4105237
  78.0189705  15.9248841  16.9775772  76.8441772  14.9711144  16.9432938
   6.4972895  11.3439095  55.4047203   6.4613485  11.5234184  56.3442516
   7.0688289  12.0260584  55.0522375  45.5191660  43.7230062  14.6617961
  45.2433968  42.9553652  15.1627088  45.2681923  43.5233212  13.7599266
  25.5694938  21.4294195  22.3440289  26.3231158  20.8438468  22.2706079
  25.8128405  22.0477343  23.0330157   9.7909570  73.2957077  12.6730108
   8.8871211  73.5535812  12.8541565  10.2033544  74.0902185  12.3340285
  72.9205799  43.6717939   8.7094921  73.7011957  43.2155371   9.0236521
  73.0999136  44.5968866   8.8776541  35.0636458  50.1406431  41.1145258
  34.5527792  49.6010637  41.7179394  35.9751773  49.9408579  41.3276672
  14.1285980  25.0164390   2.8656727  14.9398124  25.4868174   2.6735583
  14.2633688  24.1447592   2.4938583  25.5785918  58.1658554  51.6246080
  26.0627007  58.6109543  52.3201323  24.7034788  58.5523462  51.6567564
   3.5540102  68.1528122  57.7734017   2.7529667  68.2111807  58.2941294
   3.9795445  69.0019007  57.8925610   1.1061455  40.8383179  33.2442951
   0.1721936  40.7365799  33.0609512   1.4794241  39.9736977  33.0730510
  34.3676639  52.9608727  32.7433109  34.8026228  52.4112558  32.0914221
  34.0651059  52.3459578  33.4115672  35.2069771  71.9416637  72.0423412
  34.9496041  72.5861556  72.7015984  36.0436966  72.2633762  71.7067313
  36.4539790  44.6723461  19.2936528  36.7074561  44.5442867  18.3795500
  37.2574997  44.9601793  19.7269452  37.6070142  87.6151752  24.4098902
  38.5227847  87.5264168  24.1458559  37.1085811  87.3069954  23.6530399
  29.6086931   2.3835303  80.2552879  28.8718700   2.6685263  80.7957506
  29.4231414   2.7438570  79.3881261 111.2457274  61.0353613  47.7445602
 111.6676285  61.1607981  46.8945599 111.8302059  61.4665365  48.3680201
   6.4134020  40.8000755  38.7327218   6.3122213  39.9584222  39.1772604
   6.3334173  40.5905867  37.8021574  19.7976577  50.2828789  16.8958104
  20.4934740  49.7863197  16.4651155  19.2184210  50.5514669  16.1826634
  29.2401600  48.9828682  36.0700083  29.1127491  48.3214617  35.3899026
  29.0237665  49.8112631  35.6420279 110.5464336  29.2751147  90.4525214
 110.6581875  29.4786574  89.5239140 110.2811500  28.3555056  90.4659088
  51.1201620  70.0718641  17.7072322  51.5954399  69.8492146  16.9067502
  51.4011621  69.4141769  18.3434081  56.8970060  66.8854618  33.6584735
  55.9697294  66.7907095  33.8762212  57.0520592  66.2283421  32.9799557
  21.6924381  44.2354965   4.6838364  20.8578968  44.7042274   4.6758693
  22.3236060  44.8757267   5.0124186  32.9616880  34.7568274  37.9587746
  32.2382832  34.1745591  37.7266455  32.5781226  35.3818536  38.5739565
  26.9530654  51.9290876  46.1673117  27.8131819  51.5806198  45.9327841
  26.3383627  51.4345217  45.6252956  21.6479683  61.5811110   0.1149003
  22.4591947  61.9590187   0.4545005  21.2980199  61.0699272   0.8446003
 102.8455976  42.5810575  58.3722162 102.2973374  42.0357370  58.9363718
 103.7340710  42.2539425  58.5130835 106.5494295  28.8394667  71.6565430
 105.9932276  29.4103838  71.1265159 106.1239334  27.9831339  71.6132009
  23.9019775  32.3009968  36.6966319  23.4045458  31.5831065  37.0883298
  23.4435534  32.4914455  35.8782148   3.3431533  82.5926113  14.1104710
   4.2563796  82.7153778  14.3696606   2.9134265  83.4133148  14.3513167
  27.1369529  74.7434092  53.3332300  26.7473793  75.1085758  54.1276550
  28.0542517  75.0144243  53.3698940  52.5286245  56.7918015  26.2157559
  52.7767372  56.8027639  25.2913356  51.9399738  57.5400925  26.3146448
  24.2465496  48.8148212  59.6127081  24.1430807  49.3996000  60.3634119
  24.8264074  49.2896938  59.0173149  55.3345871  26.4393163  23.9955378
  56.0530043  25.8136511  23.9025211  55.3061724  26.8979454  23.1558442
  55.0723600  47.0331001  12.7205658  55.0290298  46.1032581  12.4975181
  54.7325277  47.4812841  11.9460499  41.8870020  73.7225771  41.2934637
  41.9320297  74.6429682  41.0344458  40.9504604  73.5263729  41.3185740
  31.3355398  38.0629611  24.9799299  32.1973157  38.2705665  24.6187186
  30.7490396  38.7092686  24.5868230   9.4781065   1.7477033  33.8054180
   8.8571244   2.3006622  33.3312345   9.0836525   0.8757192  33.7886262
  14.0077734  56.2028408  43.6218739  13.9116490  55.2505732  43.6084509
  14.5284712  56.3799906  44.4052792  54.9717569  94.2819691  24.3584728
  55.8562231  94.5100784  24.0722609  55.0891590  93.9276218  25.2398825
  21.0019135  28.3529377   8.0649960  21.4324665  29.2078376   8.0655789
  21.6951108  27.7354908   8.2983810  59.8626328  27.0503998   0.6427082
  58.9246845  26.8848228   0.5474451  59.9438715  27.4869347   1.4906868
  41.1674261  77.5767899  36.2289476  41.3697720  78.4049511  36.6641974
  41.9283390  77.0226908  36.4027715  28.2707834  55.6273985  32.3671842
  27.7639246  56.4301300  32.4894476  28.2158446  55.4501343  31.4281464
  10.7866906  21.1397292  86.9638681  11.2167596  21.5368296  87.7212203
  11.4895200  20.6832529  86.5013865  31.1565709  32.2868657  18.1535828
  31.6775465  33.0785513  18.0192280  31.6201806  31.6087961  17.6621377
   7.3393303  80.7340431  32.5975418   6.4391094  80.6949425  32.2745800
   7.8570390  80.3049278  31.9163132  43.7935877  45.2559710   1.9801313
  44.1228199  45.8049488   1.2684721  43.7404013  44.3786955   1.6009349
  29.6140981  23.9461040  32.0223927  29.3939495  24.6539831  32.6279306
  30.2047777  23.3804655  32.5197673  37.0706105  33.8339710  56.1531210
  37.9870343  33.6198163  55.9783745  36.7507124  34.2061710  55.3313160
  40.8097410  33.5048771  19.5635295  40.2259779  34.2623591  19.5226169
  41.6887856  33.8817406  19.6020079  41.7940331  51.9304276  42.2617960
  42.2332287  52.0030117  41.4144087  42.5009060  51.7589903  42.8840303
  30.3556371  54.3683624  38.9585543  29.4006419  54.3036699  38.9642882
  30.6076956  54.2727184  39.8770022  19.0771878  26.5719938  24.3495178
  18.9304900  25.7706928  23.8468933  19.3637121  27.2134495  23.6993861
  22.2442961  90.9900379  25.1670504  22.9667854  91.3539886  24.6554017
  21.5765071  91.6757774  25.1599431  24.6125412  69.1544247  12.7142513
  24.0149403  69.6331644  13.2886302  24.2241120  69.2357397  11.8431938
  10.0418878  98.3224297  31.6139531  10.7557464  98.3819199  32.2488546
  10.0214386  97.3991203  31.3623524  53.1393337  38.9263368  10.2029526
  52.9297733  38.3899426   9.4383621  52.5714207  38.5884976  10.8954632
  30.9174299  63.0264664   4.9712437  31.5344715  63.7251234   4.7535965
  30.1246119  63.2460880   4.4819221  74.4427347  58.2750463  40.9871674
  74.9028969  57.7494812  41.6415882  74.8641872  58.0481195  40.1582479
  61.0669251  92.9469259  80.5671561  60.7076211  93.7213189  80.1342070
  60.6749864  92.2084362  80.1010561  31.9326401  21.2007117  37.2695947
  30.9971309  21.3799453  37.3640895  32.2971201  21.3655329  38.1392026
  36.6472054  88.4219837  13.9451027  35.7146907  88.6197090  13.8582098
  36.8799472  87.9973125  13.1194401  94.6574602  55.5057335  37.6268578
  94.0946850  55.1382446  36.9453382  95.5405006  55.4562187  37.2607684
   0.3192019   4.0942980  84.3127251   0.2623128   3.7141730  85.1893663
   0.4810094   3.3465506  83.7374675  50.7388973  40.2235985  14.8481178
  49.8228025  39.9791098  14.9793565  50.7529116  41.1731577  14.9680007
  71.9355202  79.4692850  20.8145905  72.2690248  79.2410612  19.9468815
  71.2323809  78.8397026  20.9741426  36.3985203  93.5161168  90.6936012
  36.2541133  93.1997926  91.5854064  36.0832816  94.4198329  90.7060312
  18.2227862  43.0974245  26.9771051  17.3057926  43.3116436  26.8054533
  18.6475265  43.1598330  26.1215758  33.0996442  80.8197975  42.6827431
  33.2225633  81.6723824  42.2653484  33.9299488  80.6488037  43.1272507
  22.1378064  69.8024178   0.7668845  22.7070689  69.6356821   1.5181310
  21.3221908  70.1239395   1.1511088  43.1333399  50.8691549  47.5680351
  43.0711603  50.2614737  46.8310881  43.5721254  51.6394234  47.2069502
   1.9497371  38.8481474  46.6414261   2.0806107  39.6770549  46.1809731
   2.6290542  38.8388753  47.3157215  57.6112652  60.0327063  33.5683274
  58.3022594  60.3608465  34.1437244  57.0035410  59.5835686  34.1558456
   9.9524337  29.5945883   5.0691599  10.3363860  29.9230361   5.8821380
  10.2329457  30.2207327   4.4017118 111.6491147  45.9381151   3.4716019
 111.1478360  45.3135872   3.9959240 112.4009552  46.1621714   4.0200239
  32.6731181  27.0180464  37.0855951  32.1177959  27.1021771  36.3105011
  33.5496473  26.8577337  36.7359805  25.3403115  53.5217142  43.4718084
  25.0685263  54.0874672  44.1945028  25.9668636  54.0496683  42.9769039
  30.9706426  73.0036306  15.8039737  31.5965319  72.5150394  15.2693975
  31.3155794  72.9402637  16.6946113  50.8917618  49.5092583  29.3033719
  50.2331209  50.1272297  29.6204567  51.1576223  49.8581648  28.4526014
  81.4907074  55.0581503  42.2404337  81.8626595  55.9343863  42.3409176
  82.1620178  54.5656967  41.7681456  96.3497826  68.2163715  12.8903043
  96.5608737  67.4778175  12.3191559  97.1151480  68.7885237  12.8347254
  34.6455646  53.9524460  10.8613300  34.3655038  53.9450932   9.9460465
  34.6651936  53.0291939  11.1132228   4.1447523  91.6257000  14.1816568
   4.4074538  92.5461292  14.1758823   4.5227197  91.2737942  14.9875951
  28.9870930  53.1045008   3.8703060  29.6516991  52.9165125   4.5330209
  29.4174933  53.7069321   3.2636234  30.8500814  36.9669223  17.7693832
  30.7224774  37.9123878  17.6916504  30.8261442  36.6470599  16.8675256
   7.4204820  42.5046349  33.6381388   8.0995935  43.1065655  33.3336449
   7.7077949  42.2419643  34.5126057  39.2953873  73.8704538  30.2469683
  38.4326577  73.7262678  29.8582006  39.2575741  74.7635221  30.5893636
  11.6658366  39.7356009  56.7858696  11.0272300  40.0661564  56.1540890
  11.2017810  39.0422320  57.2550392  10.8141434  33.0740833  13.5054982
  10.5457079  32.4661064  12.8166294  10.1325738  33.7461448  13.5107517
  25.0303626  62.5739717  40.7703257  25.8632159  62.6899862  40.3130198
  24.5437360  63.3781481  40.5894089  44.5069265  65.7725334  29.1981053
  45.0879383  65.3889894  29.8550296  43.9204359  65.0577259  28.9504910
  15.5589068  67.4390507  22.5753498  15.0264168  67.8144741  21.8741059
  16.1750948  66.8613005  22.1250749  58.8045216  81.3847542  22.8513622
  58.4834146  82.2573185  23.0788255  58.2099628  81.0821438  22.1649456
  31.7123771  48.9389753  27.6257014  32.0307708  49.0152693  26.7262387
  31.9169044  49.7846603  28.0247235  21.4484549  29.6329546   1.1861833
  20.5288982  29.6326709   1.4519778  21.8054509  30.4387879   1.5595707
  38.1942511  25.2082038  19.1247952  38.5375714  26.0985637  19.0498006
  37.3119211  25.2599835  18.7573111  20.2088475  35.7281899  35.9170508
  20.4201221  34.8175383  36.1227489  20.3598380  36.1999822  36.7361021
  16.7694473  60.8887672  37.5149417  17.0119143  59.9627924  37.5123167
  17.5608552  61.3443995  37.2280502  40.6628895  33.7873745  29.0795827
  41.4264345  34.3209600  29.2998457  40.1466751  33.7637949  29.8853135
  31.8546247  36.5091085  40.2694321  31.3516474  35.9121275  40.8233833
  31.1957622  36.9521499  39.7347879  87.0978376   1.3519122  75.9915924
  87.9833730   0.9885479  75.9868431  86.6983696   0.9989430  76.7866206
  31.2781334  40.0395536  35.6290746  31.6790247  40.1687956  36.4886189
  31.6915846  39.2461348  35.2888131  28.6206508  70.1661015  36.0243750
  29.0034723  70.9700632  35.6731915  29.2435956  69.8752308  36.6903830
  51.2136316  44.4597054  38.0591846  50.4399633  44.1860294  38.5519028
  51.1677790  43.9597702  37.2442007   5.9076816  54.5378494  13.8094461
   6.2570000  54.3997049  14.6898568   6.4131886  53.9433002  13.2551837
  77.7857828  28.2839346   8.7094796  78.6911440  28.1045413   8.9631945
  77.3864603  28.6576366   9.4950497  46.6089773  31.7716599  14.2334723
  47.4801159  31.8793130  13.8516843  46.0697556  32.4250078  13.7878227
  76.0867453  68.5827732   0.8497144  76.8032360  68.0009794   0.5959723
  76.1721277  69.3365669   0.2659860  30.2772880  41.6619110  44.1762161
  30.3609753  40.7825899  44.5450354  30.7448602  42.2256327  44.7925138
   0.2340556  51.6166878  65.6103182   0.7555263  52.3350477  65.2521849
   0.3633709  51.6755819  66.5569115  17.3818195  25.9250855  30.2523971
  16.8258882  26.3539958  29.6018529  18.2100606  25.7735443  29.7971153
 104.9972334  58.5014820  28.6965704 105.2834865  58.7639809  27.8217077
 105.7276288  57.9895878  29.0440154  54.0406895  87.5681686   8.9789718
  53.9407206  88.5062790   9.1407764  54.9641562  87.3912716   9.1582757
  35.6024098  44.8326778  34.4573116  36.3431764  44.9350977  35.0548124
  34.8413229  45.1034880  34.9707699  32.7361917  58.6159563  50.8671618
  31.9854283  59.2030334  50.7781267  32.4080300  57.7627373  50.5833244
 109.3561488  13.9254439  33.5671902 110.2901153  13.7927008  33.4049606
 109.3083741  14.1957188  34.4841957  50.6352986   6.9131869   2.1778154
  51.3969327   6.5913600   1.6955543  51.0017265   7.4954623   2.8433311
  22.1389389  66.0760355  19.4074631  22.5471187  66.9345474  19.2953122
  22.4987864  65.7454252  20.2305293   8.7928802  80.2437019  42.7188206
   8.2013690  79.8295021  43.3471441   8.2144052  80.6024075  42.0458221
  40.8272123  55.9314919  23.2841182  40.6191206  56.1274481  24.1976452
  40.0597477  56.2277651  22.7947807  37.9191637  56.7354250  33.3891153
  37.7892375  57.0979691  32.5128078  37.1125269  56.2531900  33.5708261
  26.1610532  82.7587891  52.5434589  25.6811786  82.0249653  52.9274654
  25.5002642  83.4409904  52.4243450  12.9826403  52.7133751  25.8957887
  12.5219560  52.7116823  25.0567412  13.8298249  53.1150818  25.7030678
  63.8926315   8.8428134   9.2329884  64.4115782   9.3572283   8.6146843
  63.0244350   8.7923253   8.8330871   2.7940872  97.3020935  31.4612603
   2.6039645  97.1613693  32.3887753   1.9647424  97.1252346  31.0172534
  62.6708841  31.7603588  40.0247478  63.2334137  32.5333595  40.0722885
  63.2095814  31.0502839  40.3737879  11.4836240  58.4063339  44.5684290
  11.4716148  57.7160645  45.2314615  12.3160660  58.2852650  44.1116858
  29.4307947  44.8955393  31.0574460  29.2271161  45.8201551  30.9166145
  28.7482715  44.5880985  31.6539979  47.1104288  42.4655294   4.0553543
  46.6794968  43.1341887   3.5229772  47.9904318  42.3952341   3.6853844
  60.6606531  62.3061085  17.4500060  61.1856031  63.0805397  17.6522803
  61.2920713  61.6696596  17.1146309  50.4604530  65.6659794  10.0843239
  50.9784985  66.4708090  10.0739169  51.0251427  65.0123167   9.6719146
  21.2182546  79.4988346  42.8588724  20.5795026  78.8402700  42.5858927
  22.0544028  79.0329647  42.8661108  27.8927636  67.7916193  35.0046015
  28.6327934  67.6960278  34.4050574  28.0529451  68.6223936  35.4522514
  40.2018452  49.4725132  42.7537203  40.9097195  50.1161957  42.7823162
  40.4706192  48.8508129  42.0773506  36.0527420   2.2079405  47.6181936
  36.3468146   1.3143466  47.4414396  35.3906298   2.1112177  48.3026552
  31.1603260  79.7845507   3.4290838  30.5003834  79.1846275   3.7766424
  31.9155216  79.6701813   4.0060011  31.5648627  83.6050797  48.2028818
  31.1444044  83.0625343  47.5357294  31.0954428  83.3978176  49.0109158
   1.3453870  67.5291348  40.9317398   0.5645373  67.8589678  40.4870844
   1.9989771  68.2178593  40.8104467  48.2178116  61.2064552  26.5005326
  47.7293730  60.4931068  26.0896921  48.6710930  60.7939959  27.2358203
  29.1763234  62.1807718  47.1027756  28.7032461  61.3487005  47.1121311
  29.9773502  62.0064306  47.5969362  42.2127771  73.8438463  52.7988100
  42.0781612  73.1165028  52.1912861  42.4284506  73.4237003  53.6313915
  30.7320738  25.1204205  34.8285937  31.3073230  25.8273220  34.5359969
  29.8492312  25.4817271  34.7493529  90.7692094  80.2236826  87.7345943
  91.2764545  79.4334657  87.9203156  91.3894029  80.8100779  87.3013133
  39.7093844  50.9566545  32.3964953  39.1515517  50.5044270  33.0293798
  39.2607570  51.7859316  32.2313809  45.2247286  65.0377941   3.3487895
  45.7537603  65.6478357   2.8347775  45.8562422  64.4096184   3.6992455
  22.2653413  72.8928328   5.4740506  21.7701554  73.3820629   6.1310709
  22.8384900  73.5451794   5.0713354  42.8043175  68.1759024  14.4058645
  42.8045177  68.6375189  13.5673285  42.3079681  67.3748159  14.2381501
  27.4424529  68.6071873  16.7060053  27.5709319  69.1589880  15.9344864
  28.2759666  68.1492233  16.8144214  24.1950440  96.5862370  31.9288087
  24.0187454  97.5195503  31.8101478  23.3844662  96.2342453  32.2966313
  25.7853889  47.1218586  44.2315722  25.0338149  46.7542124  43.7665939
  26.3650775  46.3744736  44.3785715  13.9384592  34.8785400  22.8851080
  14.6741188  35.4819775  22.7807021  13.4673810  34.9290061  22.0533800
  70.7816882  91.6636617  86.5497646  71.7085333  91.9017751  86.5275401
  70.3235860  92.4953134  86.6711396  27.7489018  27.3603678  26.2732434
  27.9135227  27.7840257  25.4308367  28.6150146  27.0913172  26.5793371
  58.6326456  36.3054228  24.3491292  57.9246378  35.6645513  24.2840171
  58.3220625  37.0574975  23.8449955  55.0329399  56.3638687   4.8399445
  55.1844168  57.3038149   4.7410083  54.8045397  56.0641527   3.9600384
  38.2032633  65.9920168  15.9434140  39.1208458  65.7715845  16.1036849
  38.1686568  66.9453335  16.0222471  38.0037737  74.0860558  27.2154093
  37.7673030  73.6371708  28.0270839  37.8787160  75.0148487  27.4101758
  47.1310663  39.7992873  36.5410495  46.7556047  40.3410721  35.8469820
  47.6448298  40.4096842  37.0699120  70.2272511  61.7679405  32.9633999
  70.3033495  62.2132540  33.8072824  71.1313152  61.6542530  32.6701927
  30.4055595  71.6835260   4.5204002  31.3122439  71.9742441   4.4222316
  29.9153447  72.4852705   4.7024170  67.7054214  80.3995323  58.1856585
  68.3431530  79.6857309  58.1895638  67.9504299  80.9437084  58.9340448
  16.4400983  53.4325361  32.9779816  16.7874277  53.9873743  32.2795939
  16.6076756  53.9254618  33.7812066  64.7574377  77.9978657  30.2356625
  65.1411629  77.2973061  30.7631063  64.4088650  77.5526905  29.4632983
  58.3247948  73.9854717  74.6263552  58.7189293  73.3401775  75.2132845
  58.0931997  73.4866953  73.8428926  36.3493705  96.5558910   3.5782135
  35.6004810  97.0893574   3.8443047  36.0108614  96.0016823   2.8750077
  85.1415348  82.2058010  41.2922478  85.4216671  82.7697182  40.5713034
  84.1900539  82.1550655  41.2008476  29.5337319  42.4936199  10.5688083
  29.0633011  41.9068146  11.1609077  30.4390717  42.4713087  10.8788013
  76.3880825  97.9040623   7.0409149  75.7123184  98.0347729   7.7061099
  76.7588854  98.7754726   6.9017142  56.2678862  59.2465019  25.8759189
  55.4990768  59.7474813  26.1482859  56.5491772  59.6633482  25.0614595
  71.4963961  63.6313391   3.5277697  70.6871843  63.1259203   3.4505832
  71.3876772  64.1358995   4.3338907  59.7641106  84.8595292  89.6297118
  59.1518159  85.2447421  89.0028659  59.4358011  85.1351983  90.4855452
  26.3437938  14.9552513  77.1907711  26.1626434  14.0771653  76.8555367
  26.9372176  15.3401400  76.5458357  31.9695330 103.8481236  21.7137718
  31.2128544 103.9156055  21.1314368  31.6110301 103.9905453  22.5898004
  34.6038198  61.6240025  21.0358024  34.8251462  61.0365772  21.7584229
  33.7810707  62.0335054  21.3034225  28.2431960  62.0292091   9.9387288
  27.8480268  62.8669071   9.6971929  28.6589289  61.7196226   9.1340226
  35.0853825  80.9646225  51.4730167  35.1432657  81.7742157  50.9656334
  35.3215241  80.2754402  50.8521318  49.1028118 100.0961971  23.8016582
  50.0135279 100.3012466  23.5900378  49.0211296 100.3019905  24.7328973
  43.9621735  41.5027285  16.4680219  43.1722689  40.9679937  16.5476704
  44.1473770  41.7910099  17.3617923  60.7635832 100.4999924  43.4402132
  61.3101673 100.1541805  42.7345943  61.3815546 100.9224319  44.0367794
  57.6826477 103.9979267  28.6618805  58.5528278 104.3853760  28.7562513
  57.1610546 104.6805000  28.2396698  25.5173730  74.5143439  88.2225347
  26.1353301  74.1432978  88.8523664  25.7036113  75.4532267  88.2289150
  16.1350298  67.6390123  34.9554539  16.6837013  68.2387161  35.4609704
  15.2726936  67.6991558  35.3665376  68.4105587  82.2545147  21.3776731
  68.2988501  83.0145454  20.8066249  69.3549299  82.2022343  21.5248370
  64.8992300  60.5199814  29.0175962  64.1126728  60.8061504  29.4819951
  65.6240749  60.8318806  29.5594001  53.1746387  72.5146580  12.5210869
  52.2627258  72.5557566  12.2330630  53.6663723  72.2972107  11.7291617
  84.3517685  82.2273064  45.5578375  85.0376987  82.5155258  46.1600494
  84.7154427  82.3863029  44.6868086  64.0999937  87.0924950  73.6293602
  64.7427940  86.4649963  73.9599371  64.6257877  87.8052235  73.2663393
  94.1463090   8.0925864  33.5437655  94.9906398   7.7590293  33.2403183
  93.9422656   8.8096160  32.9433823  63.4730053  55.3995562  29.9480081
  63.6872816  55.4656601  29.0174437  63.6048746  56.2847137  30.2876186
  59.4767427  84.4071007  12.1037614  58.5916758  84.0455246  12.1502066
  59.9530172  83.8022614  11.5349340  42.3766326  30.2191473  88.2423976
  42.8726148  29.4032980  88.3103624  41.5761613  30.0550581  88.7409490
  34.1972017  64.0653610  54.7608423  34.4022179  63.6997080  53.9003181
  33.5176206  63.4889174  55.1102924  19.1494370  67.0867538  24.4378495
  18.7298965  66.9946575  25.2932644  19.2374706  66.1894464  24.1164088
  51.5224695 101.1022949  23.0555010  51.9422245 100.7933903  22.2526169
  51.8241119 102.0056725  23.1511807 102.5879002  78.8824415  34.2716026
 103.4337234  78.6828613  33.8703823 102.7214432  79.7252512  34.7052813
  52.2816038  42.4530983   2.4524155  51.4406681  42.0080566   2.5572801
  52.5494432  42.2509146   1.5559681  44.1060257  84.3300629   8.2309055
  43.5299015  84.5016384   8.9758021  43.5111284  84.1145134   7.5126684
  33.5133456   7.3563601  80.6484258  33.5922240   6.4578797  80.9689641
  32.7482938   7.7070452  81.1044371  38.9047861  66.8971491  56.4972925
  38.3496404  67.1156597  55.7487631  39.6578360  66.4475822  56.1138391
  38.1134295  87.5726986  38.7119365  38.0302191  87.8760052  37.8078818
  37.2627687  87.7626705  39.1075611  56.6516447  74.6983814  21.7272973
  56.4127827  74.2851877  22.5570250  55.9179640  75.2805233  21.5296769
  59.1866970  73.6333990  13.6990023  59.5519829  73.6913824  12.8161454
  59.4607782  72.7726460  14.0155590  51.0165262  67.0793676   5.3414786
  50.6342459  67.0673084   4.4640124  50.4062605  67.6022911   5.8614397
  53.1585455  84.0091133  26.4583945  53.1439304  84.9258518  26.7333436
  53.8971949  83.6283398  26.9334149  77.9024172  60.4676342  22.6689076
  77.6728487  61.2999344  22.2556162  78.4616327  60.0282812  22.0282197
  24.7281837  95.9103107  52.4552011  24.7149467  94.9543571  52.4083281
  23.8499522  96.1756802  52.1822166  73.1053829  74.6690655  30.1819801
  73.9427233  75.1327229  30.1924348  72.9112768  74.5461035  29.2527699
  83.0181599  79.5376968   4.2252207  82.9385757  79.0614700   3.3987164
  83.4899616  80.3383350   3.9958557  71.9558716  66.3429880  21.9295001
  71.9464445  67.1182013  22.4909186  71.7982054  65.6123209  22.5274086
  96.6619059  51.7885519  82.2089320  96.1151048  51.2591292  82.7894086
  96.1196252  51.9310690  81.4331418  10.1862168  91.7671585   7.1508878
  10.4277015  91.1715698   7.8602517  10.7036042  91.4702606   6.4022917
  30.4517460 103.6384964  48.4762573  30.5441141 104.5022392  48.0742025
  30.0862861 103.8156128  49.3430328  75.7676744  83.0255222  61.2135649
  76.4111233  83.5899258  60.7850170  75.9189844  83.1574535  62.1494770
  26.1420798  74.5469141  61.3135338  25.9662557  73.6493635  61.5958786
  26.8845320  74.4684649  60.7144976  76.0548449  75.7251263  46.7134905
  75.2001572  75.2949667  46.7400646  75.8905458  76.6054249  47.0515823
  93.8383158  34.9601485  84.2172629  94.2400726  34.6363856  83.4110373
  93.3988019  35.7698180  83.9574605  38.5276866  51.4562321  26.1780763
  37.6229477  51.7452192  26.2971163  38.9924312  52.2393656  25.8832097
  25.3775525  42.3703051   4.2221361  24.5914507  42.4716711   4.7587916
  25.3328109  41.4702702   3.8993943  41.1949682  87.7742672   6.3762981
  40.8410931  87.7056503   7.2630322  40.8669519  86.9955444   5.9265894
  40.6790686  69.1692686  32.1510839  40.8927965  68.5179234  31.4830256
  39.7575402  69.0097475  32.3549676  25.0629472  28.1343676  71.2450433
  24.1498517  27.8496863  71.2070107  25.4900407  27.6656081  70.5280471
  49.7390985  46.9936609  25.3569126  49.0354013  46.3517284  25.2622175
  49.8410130  47.3681593  24.4819307  19.8541868  75.8551121  50.9632492
  19.5774937  76.7279863  51.2421083  20.4279208  76.0138035  50.2136612
  70.5664682  96.0816669  39.6328449  70.5770683  96.3584042  40.5491066
  71.4337015  96.3154602  39.3019795  69.7529411  64.7020817  37.9146814
  69.3895912  64.4876719  38.7738872  69.1376400  64.3160295  37.2913051
 111.1841079  43.8884951  87.3147824 110.8111640  44.4683291  86.6507578
 111.9712897  43.5299708  86.9048584 110.0975406  91.8499660  13.2638311
 109.3618374  91.2552547  13.1179285 110.5739239  91.4656067  13.9997363
  71.0071087  77.6201487  32.3287845  71.8500853  77.5151920  32.7699280
  70.5450249  76.7988491  32.4966693  46.7732048  89.6368408  15.4324079
  46.6124105  89.2452621  14.5738935  46.1898041  90.3950882  15.4628754
  25.6582642  90.7870770  13.0015433  25.3936958  91.6930199  13.1612337
  25.0758362  90.4869175  12.3037481  80.5233093  96.0323484  91.3502221
  79.5695920  96.0549505  91.2717858  80.8393951  96.0998304  90.4492411
  69.9259090  59.6279907  40.2008200  70.6789160  59.0564728  40.0505638
  70.1636982  60.4534483  39.7785544  16.2197017  24.2842366  89.3644647
  15.4141759  23.9174248  89.0000281  16.7331886  23.5204102  89.6273853
  84.8340225  78.5554123  49.6315241  84.0501785  78.0339193  49.8043251
  84.6287346  79.4208288  49.9852705  67.4127031  16.0187072  48.7462664
  68.1802393  15.5146045  49.0164518  66.8287111  15.9905356  49.5041513
  89.9392796  82.6841450  36.7768788  89.7683430  81.7737103  37.0179844
  90.1117325  82.6543617  35.8358121  85.9255886  72.0164871  30.0403261
  84.9788666  71.8966818  29.9655557  86.2429810  71.9852448  29.1378188
  64.6702576  63.9996386  30.3843784  65.4144907  64.4608545  29.9975610
  64.1908646  64.6766520  30.8619428  87.7132130  93.5698605  28.1550360
  88.3138371  92.9005241  28.4828687  87.1336555  93.7543297  28.8941669
  15.1973581  43.5495879  81.6607320  15.6923103  42.7522017  81.4725137
  14.2802715  43.2829977  81.5965700  97.6338387  22.3217887  41.3038445
  97.4150944  21.4550513  41.6461182  97.7719546  22.1815127  40.3671026
  25.1658988  85.7690525  21.0390401  25.6618309  86.5569973  21.2613583
  25.3489780  85.6247997  20.1106524  88.8108921  82.8000069  39.4753885
  88.0585289  83.3885574  39.4138026  88.7853718  82.2929382  38.6639309
  54.3287420  86.5439320  56.3366461  54.6335268  87.3911095  56.0116339
  54.8110199  85.9005642  55.8173037  55.2912569  70.7468367  40.0418711
  55.0272369  70.8102989  40.9597445  54.9581575  71.5495825  39.6407795
  89.7526456  12.0822448  59.0190458  89.9336339  11.6625804  59.8600864
  89.1964198  11.4571113  58.5542202  59.9300480  91.7072105  32.3457932
  59.7533798  92.6473618  32.3795605  59.8030806  91.4725208  31.4265394
 103.0351115   6.8106097  26.5400386 102.8780795   5.8684463  26.6024947
 103.8111830   6.8878097  25.9850788  87.3206997  77.6132679  44.8726940
  87.8704071  76.8559599  44.6713686  86.8670940  77.8049421  44.0518808
  70.3159285  96.7731762  17.0058072  70.6858206  96.5497017  17.8598988
  69.6236324  96.1266708  16.8680418  58.7957287 102.9459476  53.8938332
  57.8764534 102.8021717  54.1185522  58.9468050 102.3852444  53.1329012
  51.5389442  98.3856010  52.9770899  51.2006235  97.5226498  53.2160139
  51.0269165  98.6394119  52.2092104  49.5861101  53.6436176  25.0183582
  48.7409925  53.2019901  25.1018620  49.4354153  54.3278027  24.3661237
  68.8973808  74.2667437  14.8307657  68.9971113  73.3442068  15.0657368
  68.0787420  74.3007088  14.3358815  79.3358803 100.8226585  43.0811644
  79.5047522 101.1475849  43.9655447  78.7280369 100.0938034  43.2057858
  74.8129320  52.8489304  43.7253046  75.5074930  52.2034168  43.8561678
  74.0793133  52.5200367  44.2447901  32.0418477  85.2761555  27.6759505
  32.3906064  86.0634422  28.0940104  32.0087671  84.6266556  28.3782935
  33.9392972  85.2393341  38.5161567  33.7451172  86.1763954  38.5372853
  34.8790002  85.1933765  38.3398700  64.7698116  81.1143112  42.9240513
  64.0417147  81.7008018  42.7187681  64.9862719  81.3111401  43.8354445
  72.3117828  71.4096642  66.3663054  72.1484566  72.1306324  65.7582235
  72.5830030  71.8379307  67.1782494  99.5397998  18.9856071  51.9834805
  98.9629508  18.7055511  51.2728119 100.3812314  19.1506404  51.5580559
  53.9117956  83.2918739  34.9970508  53.7041855  82.4756241  34.5422244
  54.8074865  83.1695938  35.3117204  73.8986397  97.0936680  35.9809780
  74.2608500  97.1286774  35.0956488  73.8447905  98.0094910  36.2541175
  77.2661591   7.7958507  21.9376135  77.0343495   6.9497699  22.3205590
  77.3269130   8.3890647  22.6863694  74.6031427  55.7453537  53.4069061
  74.8099947  56.6799355  53.4049559  75.4474640  55.3134441  53.5365486
  76.0743380   2.6407737  42.5253963  75.9400607   2.2875899  41.6459322
  77.0090462   2.8438205  42.5618267 109.8648834  84.1484070  61.9754791
 110.6500244  83.9052010  62.4660158 109.6683121  83.3788872  61.4412260
  63.2824945  76.5194178  28.2051873  62.8136683  75.7708645  28.5741091
  62.6227713  76.9859791  27.6920462  58.0245161  90.0895405  41.1279774
  58.7838125  89.5950508  41.4364958  58.3543110  90.9787464  40.9984207
 104.4861127  19.3849105  49.8765755 105.3621388  19.1067046  50.1437998
 104.5338679  19.4427794  48.9223242  64.4585514  85.1673889  12.7594876
  64.7781467  84.2787075  12.9154766  63.5061550  85.0935745  12.8204882
 106.8603706  85.1676273  11.2778842 107.6077652  84.8212147  11.7653668
 106.6593075  85.9993458  11.7068827  54.4626045  90.0259399  53.5372114
  54.4393349  89.9547386  52.5829458  53.6160374  89.6831608  53.8236761
  16.7621755  11.8221403  88.4044975  17.2689962  11.4936854  87.6618791
  16.5842771  11.0456683  88.9352299  95.2314950   4.5062751  43.6660528
  95.5780698   4.6080035  44.5524883  95.9680987   4.1655845  43.1585217
  36.4797044  66.5217781  73.8470173  36.6315317  66.3906145  72.9110813
  37.1554160  65.9961653  74.2752457  23.4654903  70.5879498  44.7295046
  23.6463094  70.8841801  45.6215715  23.1158853  69.7033978  44.8371029
  58.9680290  97.7948856  77.1712399  59.3567610  97.0420933  76.7257833
  58.4609509  98.2395267  76.4919806  34.4226789  85.6096840  16.9509614
  34.8887849  85.6492233  16.1158490  34.0428448  84.7313213  16.9719076
  55.3024578 104.1298485  40.6532955  54.4351768 104.1191673  41.0581923
  55.3693104 103.2851791  40.2079868  55.1892090  81.0975170  38.0320406
  54.4792461  81.0765171  37.3903680  55.9783649  80.9144783  37.5221729
  60.5140448 101.2051392  90.3134346  59.6524143 101.5372944  90.0614548
  60.4727221 100.2670002  90.1279163  29.0282702  50.8191919  44.8752069
  28.6895275  50.0451946  44.4252968  28.7970877  51.5499067  44.3017626
   0.6655220   3.2859057  43.8912821   1.1762337   2.5782508  43.4980392
  -0.2424475   2.9894275  43.8286018  76.8834972  84.8308468  22.8252411
  76.8796921  83.8798904  22.9342675  76.0417461  85.0282001  22.4144602
  49.3706131  79.7148800  24.8831534  49.0168142  80.2152634  24.1478443
  49.1508484  78.8052940  24.6817064  33.5334229  78.9742327  36.8756461
  33.9617991  78.1183529  36.8617725  33.8282681  79.3764257  37.6926756
  76.9890976  77.9303551  30.2402258  76.4513779  77.6908827  30.9950376
  76.4842892  78.6090803  29.7922015  54.8833942  99.3983841  73.8025236
  55.2668905  99.9713898  73.1385803  54.0562296  99.8205757  74.0344238
  70.6281042  74.8355007  42.9997921  71.3057041  75.0683784  42.3650789
  70.0733280  74.2068005  42.5380659 109.6571542   0.4521674  28.7764382
 109.6166707   0.0994891  27.8874993 110.5931950   0.5304164  28.9606714
  85.7553673 102.9760456  51.5086555  86.3807297 102.3663521  51.9003582
  85.0779057 103.0858803  52.1758938  61.2664557  99.1652966  29.6647573
  61.5894556  99.7761440  30.3271508  61.8450165  98.4061241  29.7366214
  32.7904582  62.8436470   2.1441805  33.2557201  62.1653652   1.6545902
  32.3928332  62.3778915   2.8798437  67.1149063 104.9609089  15.1815689
  67.7538252 105.3840160  15.7551503  66.3840628 105.5777168  15.1409769
  49.7345781  88.1150723  52.3150110  48.8940811  88.4453106  51.9976187
  50.2519226  87.9752827  51.5218878  37.9548860  68.6080122  16.2020278
  37.0769048  68.9551067  16.3598478  38.4629464  69.3651247  15.9106755
  53.3274651  72.2425318  25.3849316  53.3099318  72.1540594  24.4319916
  53.0440950  71.3880014  25.7100630  30.4148674  76.4338970  31.0302138
  30.8523011  75.6959963  31.4549327  29.5240736  76.4179468  31.3801670
  72.9169941  79.0583992  15.0013888  73.2047796  78.6983728  14.1624641
  72.3439121  79.7877550  14.7650731  45.2146721  76.1276722  24.9537301
  44.8689127  75.3121233  24.5910239  45.0031948  76.7907143  24.2965508
  97.3215295  15.7184524  33.7618542  97.2781993  14.7639865  33.8197160
  97.5706626  15.8923167  32.8541446  80.9976578  16.5138453  37.2297621
  80.7179738  17.4167747  37.3804832  81.1480189  16.1601752  38.1064272
  69.2060089  65.8277750  31.1580896  69.3291950  66.1193275  32.0614457
  70.0937271  65.7473230  30.8092117  98.5145999   5.2211207  31.3319254
  98.8368417   5.1580543  32.2310448  99.1645480   4.7495669  30.8109283
   3.4893578  75.7675219  15.1380301   3.6678150  74.9358940  14.6989632
   3.6611518  76.4322138  14.4710231  84.0157127  49.1167784  50.7811499
  83.8379574  48.1793642  50.7044268  84.7891998  49.1687202  51.3426208
  67.4451876  81.6622448   4.5526007  66.5997696  81.2842751   4.7947606
  67.3960209  81.7702389   3.6027837  32.9138660  11.6820456  89.6278025
  32.3185300  12.3570420  89.3019402  32.4294900  11.2568261  90.3354741
  39.4221663  84.8870468  12.9007852  40.0316477  85.4472923  13.3812964
  39.9756002  84.3980122  12.2918653 111.6827583  88.1129456  37.8153276
 112.3046017  87.3860264  37.8491187 111.1172390  87.9799175  38.5760617
  46.1237526  99.5568466  27.3761082  45.2590084  99.8972988  27.6053429
  46.0616350  99.3541718  26.4426732   3.1952719  15.9666842  37.9485178
   3.7487892  15.1860732  37.9260778   2.6202396  15.8309764  38.7016129
  47.2543955  95.4307938  25.0269341  46.5323830  95.8734226  24.5808315
  47.1770859  94.5154667  24.7577882  96.5084457 101.9955540  26.5147686
  95.9757233 102.7797031  26.3823390  97.3772144 102.2394657  26.1954355
  70.5880880  85.1363659  39.0250969  70.5357790  84.6308231  38.2139730
  71.3871574  84.8250008  39.4502711  80.8794117  77.1985769  37.8653622
  81.7109966  77.1478939  38.3366656  80.7790470  78.1271553  37.6558542
  37.2698545  73.2568836  39.0180302  36.3255548  73.4123135  38.9986420
  37.6571584  74.1318893  38.9937568  65.3307009  94.9308014  14.8901474
  65.5201006  94.3989849  14.1171396  66.1916876  95.1759148  15.2290475
  58.1053257  79.1905594  34.7324729  57.2511005  79.4471979  34.3850946
  58.3829641  78.4647942  34.1735339  67.8830910 103.3639908  43.4732199
  67.0008230 103.4679413  43.1168127  67.7759171 102.7555084  44.2043114
   1.0741381  20.1407260  48.0622578   1.5403417  19.3670768  47.7454567
   0.5843357  20.4533881  47.3016214  52.7939271  43.1495215  89.7893286
  53.1708192  44.0165163  89.6393044  53.2809781  42.8027083  90.5368123
   6.5980533   1.2462348  13.1303573   6.1352161   0.5097980  13.5299516
   6.2251095   1.3150519  12.2514880 111.0011483   4.0934199  30.9410954
 111.1248255   3.4696216  31.6565061 110.8698369   4.9352378  31.3773561
  84.1457797  12.4053401  49.5226479  84.1381741  12.0993918  48.6156893
  84.1226340  11.6041392  50.0458860   0.0638822   1.8861884  29.5724654
   0.9694294   2.1692580  29.6993279  -0.4627796   2.5993079  29.9334741
  99.3348456   0.2685374  20.0856972  98.6519862   0.5047912  19.4579065
 100.1545716   0.4785651  19.6382928  24.8065901  81.0652924  45.1424408
  24.0260935  80.8972263  45.6704664  24.6785069  80.5408478  44.3520069
  40.4036188 102.2503376  47.5481892  39.6444941 102.6461124  47.1200228
  41.0551882 102.9509830  47.5760651  33.1504440   6.3266064  69.7489738
  32.4799203   6.7797829  69.2378330  33.2070684   5.4572464  69.3524456
  58.5880471   7.7209300  80.8784580  58.2681728   6.9841308  80.3578472
  58.9236093   7.3199100  81.6802120  61.9761562  86.9637203  44.1052961
  61.3353205  86.3245869  44.4168615  61.9853544  87.6422787  44.7803545
  81.8351650  78.9150095  43.9209127  81.1473465  78.2494020  43.9106131
  82.3333645  78.7322950  44.7175598  37.2233844  79.7191000  21.8143034
  38.0065036  80.0651073  22.2423625  36.5290022  80.3333473  22.0525622
  73.5465288  81.0115623   0.0015359  72.8111362  80.5428886   0.3962255
  74.3065262  80.4571629   0.1783980  76.1839151  88.7269688  11.0057509
  75.2469492  88.6142540  11.1658168  76.5490627  88.9437866  11.8635917
  65.1514769 104.7466183  25.0766468  65.3352404 105.1838779  24.2452192
  66.0032892 104.4242287  25.3711128   3.2277159   8.1840533  18.7161195
   2.4318317   7.8030128  19.0870690   3.0812410   9.1292018  18.7546754
  51.5372705  72.2990561  27.7453876  51.7002153  71.3675833  27.5969338
  52.1483707  72.7454901  27.1593094  59.8600817  64.8654318  45.3819942
  59.4806576  64.0435648  45.0708675  59.5940256  65.5139589  44.7301865
  45.5251026 104.6771717   9.6703941  45.7361698 105.6009388   9.5349854
  46.3708496 104.2596626   9.8335809  62.2505283  97.6868629  35.5313683
  61.7834139  97.3192692  34.7810960  61.9824171  98.6054707  35.5537939
  19.3990897  49.4981505  86.8342307  19.9278735  49.3041445  86.0602921
  18.5764074  49.0320898  86.6852009  60.9554768  81.7055035  21.2555790
  61.2437201  80.7995796  21.1439943  60.1743364  81.6423321  21.8051744
  49.2497540 101.0088444  48.7099791  49.5953321 101.7971325  48.2911730
  48.3952522 100.8747959  48.2999897  90.6092311   6.0039634  48.9872551
  90.1570178   5.3975696  48.4007168  89.9676467   6.2001246  49.6699810
  70.9212589  91.5020657  16.5775156  71.5672207  91.3117218  15.8972681
  71.3871956  92.0590401  17.2011423  84.3659592 100.0157452  17.1292186
  85.1128006 100.6033707  17.0145631  83.6072540 100.5397224  16.8722272
   7.2437337  43.9527130  22.5967860   6.3236764  43.7369299  22.7490163
   7.5985673  43.1854630  22.1477318   0.8246044   1.5571517  90.1862526
   1.3857845   2.3117274  90.0075626   1.4000849   0.9285277  90.6220150
  29.2963457  65.1513433  16.5522015  30.0774384  64.8372412  17.0076823
  29.3146658  66.1008167  16.6722083  33.3687305  98.0056572  17.6330066
  33.7184596  98.6027145  18.2944024  32.4805164  97.8108215  17.9319215
  71.4421892  75.5009365  24.6562791  70.7890892  75.8947277  25.2347422
  70.9302330  74.9868107  24.0319300  26.9442487  95.9453678  25.6907153
  27.8836727  95.7654381  25.6541586  26.6511440  95.5249691  26.4991641
  32.6461101  95.5761051  48.1866598  31.9878101  94.8829556  48.1374884
  32.4142957  96.0712814  48.9723396  75.4735518  96.2230778  19.7881877
  76.2532234  95.6841183  19.9218976  75.2264595  96.0649586  18.8770473
  97.8919315  59.7970963  56.2886858  98.7336063  60.2525997  56.2704182
  97.3679352  60.2874088  56.9221354  52.1640062  88.3950233  54.2393208
  51.8624020  88.5159683  55.1396751  51.3615131  88.2708359  53.7325478
  55.8790684  84.0744400  38.7874460  55.2239084  83.5019779  39.1865516
  56.0056114  84.7756863  39.4265699   4.2097286  20.2353591  58.8155270
   3.7734321  19.6023673  59.3857861   4.9677519  20.5298919  59.3203831
  42.7564049  95.0232792  66.2550926  41.9469690  94.9059010  65.7578325
  42.8544235  95.9722900  66.3325739  63.1780767  92.3417187  40.7446384
  63.6542416  91.5971851  40.3769779  63.5868073  92.4899483  41.5973997
  72.4722290  85.0310230  25.3767967  72.5368452  85.8667183  24.9145532
  73.2706976  84.5614910  25.1355100  67.6084423  83.6300659  46.4128590
  67.0440865  83.7712002  45.6527185  67.6761103  84.4917202  46.8242073
  52.0775509  88.1276703  12.3950648  53.0207443  87.9666424  12.3689568
  51.8920803  88.5969162  11.5816486  58.0180311  74.3690395  28.1328440
  57.6173019  74.8302031  27.3959732  57.5701857  74.7157526  28.9045048
  55.1964569  77.7014494  43.7198257  55.8069181  77.0268583  43.4223366
  55.2316046  77.6518488  44.6750927  93.1651259   8.1819076  55.3850031
  93.4791184   7.5417155  54.7464132  92.8830720   7.6555079  56.1330509
   6.3729762  26.6997935  81.0278285   6.3550376  25.7634093  81.2255597
   5.6664466  27.0699145  81.5570313  73.6534357 101.0674667  12.7744961
  73.7829971 100.7260895  13.6593151  72.7346563 100.8835030  12.5789487
  57.0418644  81.5535831  33.1112146  57.8081226  81.0199070  32.9008102
  56.4298964  80.9426689  33.5217094  39.0810847 104.8745918  21.1772609
  38.5578227 105.0161934  21.9661689  38.4767962 105.0462341  20.4550385
  47.5857639  89.0901375  41.1779737  46.7480087  89.5526600  41.1996841
  47.9133987  89.2296124  40.2894735  55.1407862  68.2786417  26.8358922
  55.8313847  68.7497902  27.3020744  55.2115059  67.3773146  27.1502733
  36.6117764 101.6023159  54.0431881  36.8865108 101.7972279  53.1472206
  36.6766953 102.4402714  54.5012760  66.9218969  51.3910437   4.8773739
  66.7438984  51.4325953   5.8169603  67.2289610  52.2693777   4.6527019
  97.7935029  20.2342910  19.0316045  98.1316853  21.1204356  18.9026642
  97.0880223  20.3377360  19.6702158  57.3936749  75.6682730  42.1451330
  57.0371532  75.9891224  41.3167715  57.9777384  76.3665438  42.4409771
  61.9300318 102.6876259  17.4674881  61.9628811 103.6319160  17.3142612
  62.5762749 102.3241234  16.8621230   9.4410813  58.4115553  21.4373565
   8.8824946  58.8658905  22.0680642   9.7015208  57.6063204  21.8845749
  94.8134422  95.0997734  13.1951630  93.8866425  95.2710152  13.0279613
  95.1366520  95.9049892  13.5993886  12.7418137  72.4221134  36.3135099
  12.3668921  71.6846085  36.7949176  13.2896864  72.0160151  35.6418324
  55.3019190  72.5020599  53.8233519  55.6241417  72.9901552  53.0656099
  55.0152540  73.1768942  54.4387007  71.6102552  51.5819788  26.0641837
  72.1615171  51.0048151  25.5357671  71.0378313  52.0133162  25.4297447
 105.5713845   4.1493911  20.8201623 106.4425946   4.1689414  20.4241252
 105.6457139   4.7128409  21.5903783  38.6663175  89.0931702  15.3945541
  38.7114525  88.3590317  16.0071099  38.0370045  88.8124371  14.7301888
  41.1388779  51.3222647   8.8178325  40.7917309  52.1336269   8.4471452
  40.7205582  50.6280661   8.3085889  51.1805820  77.9389381  44.1145468
  51.7313004  77.5870275  43.4151888  50.8938599  77.1681881  44.6044111
  75.1232243  90.7943249  34.8527050  75.9948730  91.1682129  34.7236133
  75.2724886  90.0209618  35.3966451  82.2844601  79.6070194  23.1417441
  83.0493355  79.6641779  22.5691009  82.1547890  78.6680794  23.2751846
  17.2999763  96.4579964  31.6672993  16.5873826  96.1642456  31.0997128
  16.9361722  97.2061157  32.1407866  58.4832430  86.0790634  19.3888295
  58.4441900  85.1241302  19.3358207  59.1162014  86.2546062  20.0850940
  37.4511600  91.5716267  27.9517889  37.8719330  91.1193943  28.6829996
  37.3511028  90.8979607  27.2791862  31.2871313  70.7184076  44.7222137
  32.0767236  70.3019524  44.3767595  30.5725884  70.1462269  44.4424438
  67.7141047  73.4764671  22.6943278  66.9133472  73.3307743  23.1981063
  68.0695057  72.5994062  22.5505066  70.1787806   3.9837855  25.5994749
  69.8690964   3.5314197  26.3841295  69.3826581   4.3157023  25.1844382
  17.2219062  76.9553995  17.0808458  17.5701916  77.6845312  16.5677261
  16.3032258  77.1817875  17.2257769 109.2806816  86.6703987  13.8869512
 110.0451565  86.2364101  14.2657173 108.7677765  85.9595585  13.5024095
  32.4427270   8.0862070  83.4809595  31.5383434   7.9277779  83.2103586
  32.4896621   9.0324856  83.6172986  83.0159092  65.5167627  40.5333233
  82.5235367  64.6966696  40.5685997  83.3689880  65.5460882  39.6441078
  56.9705820  72.4952602  36.2757468  56.1749601  72.8816795  36.6416621
  57.5246239  72.3220158  37.0368338  63.9590311 105.3809071  37.8310061
  63.5392237 104.7706699  38.4373093  63.6509705 105.1094437  36.9663477
  84.1272068  98.5206413  54.4667578  84.9625492  98.1847095  54.1418219
  84.2533493  98.6023998  55.4120827  73.8690186  99.3188477  43.0438089
  74.4721031  98.5766697  43.0849648  74.3023682 100.0078106  43.5475540
  68.7607384  67.4244928  54.8599911  68.5013914  68.1218767  54.2578030
  68.1091070  66.7365360  54.7246313  96.3931751  76.7653513  43.9256716
  96.9716167  77.3787069  44.3789101  96.2735653  76.0461044  44.5458364
  32.7162790  88.6663437  73.4204531  33.0708623  88.3980370  72.5727987
  32.4323297  89.5705032  73.2859516  73.8626528  95.7792950   9.2108887
  73.0839300  95.8623600   9.7612721  74.2357445  96.6605282   9.1892278
  21.2318134  53.7071539  84.7915775  21.8731450  53.2296301  84.2653710
  20.6624030  54.1304995  84.1490954  72.7935886  79.9438524  57.7371216
  72.2868872  80.6332397  58.1663418  72.4299335  79.8944330  56.8530703
  43.5153627  82.2918510   1.2672110  44.1880608  81.8858814   1.8139176
  43.7439203  83.2213116   1.2568259  67.2972679  98.4770393  23.1217718
  68.1855774  98.5208130  22.7679014  66.7573166  98.2032299  22.3803425
  84.2249107  69.2050934  30.4557300  84.9514961  69.4113922  29.8677278
  83.6239529  69.9442625  30.3623772  59.7742176  75.5573225  23.7047052
  58.8487959  75.3900480  23.8831687  60.2114820  74.7319174  23.9138484
  37.8681230  52.4800612  85.3272450  36.9732999  52.1408678  85.3489077
  37.7742528  53.3845068  85.0282514  71.6396475  56.9652891  30.5308461
  71.3362360  57.4593973  31.2924433  71.8581152  56.1004114  30.8779693
  21.9492530  58.4959055  85.5417055  21.0275172  58.6245371  85.7655138
  22.1056985  57.5644328  85.6970054  55.9509754  89.7625732  19.0214276
  56.0890341  89.0565014  19.6528041  56.6564798  90.3844833  19.1995358
 100.0835800  88.6462021  40.0671864 100.1766586  88.0798054  40.8331871
  99.3110180  89.1789722  40.2557087  61.3219261  78.7736273  35.3824520
  61.3564301  79.1106176  34.4871998  61.9208050  79.3362522  35.8733988
  75.3898191  78.0043888  48.2186413  75.5667067  78.9299440  48.0504465
  74.5835495  78.0045271  48.7345457  84.2289352  91.3969994  19.0082872
  84.5622921  90.6670284  18.4865177  83.3250809  91.1544991  19.2094636
  31.2264156  24.2165686  72.2069132  30.2898216  24.0218951  72.1733618
  31.6487502  23.4160258  71.8954790  65.8253050  86.2139130  31.4336801
  65.6666851  86.0610580  32.3651862  65.0597954  86.7067146  31.1380816
  49.5529413  76.6624212  14.1377437  49.6964455  76.9636440  15.0349081
  50.1545858  75.9252739  14.0334690  44.3430471  72.8511429   7.3347175
  44.9894762  73.0301285   6.6518402  43.5761929  73.3636856   7.0788610
  39.5840240  62.2856665  15.6536055  40.4662180  62.6520014  15.5922496
  39.7193265  61.3384438  15.6800163  73.3510017  50.9689760  54.9879789
  73.1220150  51.8934345  55.0837517  74.2180204  50.8944416  55.3866768
  65.5728722  96.1643314  11.9400907  66.1293364  96.8886471  12.2263670
  65.8575869  95.4196835  12.4698675  34.0844274  76.4680386  23.3082652
  34.9669647  76.8370819  23.3424044  33.8597417  76.2994814  24.2233253
  29.1583446   1.4789790  22.5499368  29.0948776   0.5696219  22.8419662
  29.0119461   1.9957465  23.3422422  55.4405880  76.9112110  46.6923428
  55.2363491  76.1601591  47.2495222  56.3956070  76.9088793  46.6278028
  71.2304974  99.8476887  39.0016246  70.3378820  99.8997974  39.3433261
  71.2910700 100.5717564  38.3784986   5.6080103  95.5928326  18.6458874
   5.1492876  94.9833202  19.2240810   5.0605953  95.6372738  17.8619277
  99.9685336   4.9778289  70.3980684 100.7859994   5.2930182  70.0125360
  99.5309497   5.7691974  70.7118797  58.1218195  92.5655937  29.6051955
  58.4217691  91.6661072  29.7363043  58.1630659  92.6961422  28.6578393
  95.4849864   5.3282470  22.3898792  95.8116914   6.2026900  22.1781230
  95.1666976   5.4028434  23.2895255  60.2977800  37.8012396  90.9127904
  59.7438192  37.2979952  91.5095416  59.9956083  37.5533034  90.0390301
  75.6137466  92.3822784  53.1781578  74.7406101  91.9936085  53.1252480
  75.9305859  92.3833275  52.2749186 103.8874074  15.1088072  75.6496155
 103.0627295  14.6387602  75.5263543 103.6323806  15.9377886  76.0545564
  29.9894214  57.2483778  29.3556762  29.2186594  57.8105831  29.2776465
  30.6270671  57.6311445  28.7530732  38.6736584  66.7606783  51.3709450
  39.1557693  65.9338522  51.3583279  37.7576756  66.5055370  51.2608910
   2.0437817  17.9623813  46.7580509   2.0956615  17.7592677  45.8240843
   2.6652721  17.3612899  47.1687555  31.1630440  90.4735184  38.3948398
  30.2436495  90.6078815  38.1648588  31.6412735  91.0895061  37.8397870
  97.4069977  96.7675114  44.9922132  97.8988171  96.7257690  44.1720867
  98.0459881  96.5372276  45.6666708  31.2835502  50.9213663  82.3584312
  30.5975770  51.1520411  82.9848939  32.0968532  51.1960627  82.7818865
  48.8259602  85.6970215  13.1513917  49.1417837  85.1705742  12.4169970
  48.8090181  85.0900841  13.8913679  38.9056277  81.0605049  30.0442123
  39.4293261  81.8431568  30.2157354  38.2309818  81.0702038  30.7231736
   2.1478228   7.6697940  31.2615395   2.8499082   7.3060721  31.8009925
   2.5363211   8.4429378  30.8522177  64.0863609  43.7138987  20.3813338
  63.2168293  43.7218380  20.7814288  63.9438057  43.3546734  19.5056248
  88.1005622  22.7542991  48.1812954  87.3501445  23.3122462  47.9768610
  87.7170707  21.8995112  48.3774996  89.9141122   6.9621200  22.3781323
  90.6707621   6.3783092  22.3244476  89.2270804   6.5093440  21.8890285
  57.8378487  47.7343655   9.1411757  58.4734106  48.0832529   8.5162187
  57.0043516  48.1247950   8.8783371  71.4199066  82.6757240  26.4876699
  71.8448734  83.3801079  25.9982991  71.3771439  83.0008316  27.3869514
  83.6007786  51.9593143  51.6257334  82.9812145  51.4446926  52.1429729
  84.3901825  51.9972038  52.1657658   6.5191177   5.6418818  28.6442041
   6.0984234   6.2434215  29.2585230   5.8023075   5.1057452  28.3051062
  99.6911907  83.1063461   3.9917934  99.3554878  83.6410332   3.2723227
  99.2646980  83.4600639   4.7723204  36.6342402  80.7509804  62.1479511
  36.2828493  80.1358509  61.5042305  37.2601676  81.2817287  61.6552496
  70.6716919  93.2518196  35.5899906  69.9363375  92.7363014  35.9212494
  71.4375353  92.6955032  35.7322240  70.1741791  71.7624807  50.3914309
  70.5300903  71.8708277  51.2733698  69.2584944  71.5208960  50.5306864
 105.9784698  99.1728497  21.8690562 106.6215992  99.6915245  22.3523664
 106.0739613  99.4589329  20.9606123   4.3243984  10.4881591  16.7005026
   4.9636463  10.2645129  16.0240567   3.5378317  10.7355136  16.2143314
 110.5505229  12.7786559  16.3585782 110.7773162  13.4487075  17.0034242
 109.6003533  12.8476256  16.2655568  74.3784714  95.1774311  67.3081970
  74.3058538  95.1372910  68.2617950  73.9463043  95.9974575  67.0693922
  95.1084138  13.4825534   2.4313931  95.0556517  13.7412948   1.5113404
  95.9748364  13.7758655   2.7133763  61.9155598  59.8181486  11.8373775
  62.5634766  59.3446255  12.3591161  62.2529125  60.7127237  11.7909145
  30.3832535   4.6665401  43.8565207  31.2747768   4.9603671  44.0438366
  29.8393158   5.4391784  44.0094852  75.2278042 103.7633610  23.2526135
  74.3971634 103.4581852  22.8877473  75.8041239 103.0004692  23.2070160
  93.3707381  17.0805663  54.8806238  92.6366997  17.6662940  55.0659323
  94.1429950  17.6448173  54.9189758  96.5605736  83.7441730  33.1656456
  95.7322979  83.5629463  32.7214074  96.4164352  83.4574318  34.0674400
  96.5671253  78.9075851  34.0336847  97.4931908  79.1446877  34.0828896
  96.4312553  78.3174801  34.7749996  83.1068707  71.5051317  18.8388348
  83.1320953  70.6156063  19.1914535  82.8670979  72.0524883  19.5865941
 111.0966635  23.3696002  28.7064648 111.3869239  22.4873084  28.4750819
 110.1411296  23.3134574  28.7127018   1.6718964   2.9354114   1.2105504
   0.8436827   3.4151954   1.2205078   2.0637802   3.1163138   2.0649134
  30.5493882  69.8639345  47.5928211  29.7331479  69.4433689  47.3224354
  31.0292390  70.0027180  46.7762899  65.6228161  88.0982113  43.8746881
  64.9543476  88.6565304  43.4776258  66.1179113  87.7522564  43.1321096
  88.1964779  74.7270060  20.4496241  87.4709129  75.2804804  20.1607394
  87.8769302  74.3120956  21.2508583  76.1088276  86.6130924  61.9310045
  76.5683508  86.5355587  61.0949039  76.6731501  86.1598682  62.5573921
  92.7121545  35.0783462  34.3188787  92.2899628  35.7363814  34.8711205
  93.5920096  34.9874419  34.6847081  55.4591131  86.2207031   0.6034983
  54.5464373  86.1982632   0.3158322  55.8952808  86.7927265  -0.0279906
  88.9307690  85.8349514   8.8848752  89.2641735  86.4438248   8.2258260
  89.6414471  85.2063656   9.0115398  90.6073905  14.9953097  22.9287577
  90.0882245  15.7976073  22.9836559  90.9643031  14.8802489  23.8094425
  74.0234137  71.9751644  48.4814167  73.5380793  71.2143230  48.8004875
  74.8032761  71.6054249  48.0674744   7.5615124  19.6816749  56.4179277
   7.6579288  20.1875037  57.2248173   7.9155067  20.2509231  55.7346439
  61.6979218  79.1035986  15.5942690  61.1409092  78.5544586  16.1460054
  62.5909090  78.8693142  15.8470893  30.4202465   0.1040572   4.7249237
  30.8532146   0.8068007   4.2402309  29.6146587   0.5018634   5.0550717
  49.7122144  86.6673495  81.0531020  49.7211217  87.1687724  80.2377939
  48.9264821  86.9672705  81.5101665 100.6960964  87.2721481  35.7247448
 101.6252899  87.2966194  35.9532881 100.4107571  88.1838989  35.7840872
  14.5543102  15.1641673  49.6059275  14.8504166  14.6561641  50.3612375
  13.6070351  15.2367991  49.7226095   3.4214262  27.6435107  43.7665176
   4.1899494  27.4035281  43.2488203   2.7942900  26.9386024  43.6051512
  91.4139366 103.8294983  39.0020442  92.0730019 103.9618206  39.6834779
  91.5922737 104.5164204  38.3597302  98.3050060  90.0658035  14.3463063
  97.7681541  90.6355476  14.8971355  97.8276920  90.0142574  13.5182083
  62.8380108 100.5118370  38.3661151  62.9960203 101.2179565  38.9927363
  63.1974840  99.7317791  38.7886262 101.5008068  92.7870464  47.1929789
 101.2372017  92.8504467  48.1109810 100.7831001  92.3159122  46.7696905
  10.5595688  22.1751422  27.1844745   9.6170811  22.3174495  27.0967293
  10.7522205  21.4635676  26.5739131 100.4572296  78.1396294  32.0528102
 100.6178093  77.4925947  32.7396798  99.9624348  78.8336229  32.4884558
  84.9830246  84.1219807  23.1131434  84.2099285  84.5173645  23.5159063
  84.6371555  83.3990765  22.5896788 108.5877705  45.5046863  37.1872211
 108.7582541  46.3931293  36.8744159 108.1300975  45.0791854  36.4621592
  65.1295090  83.3488655   3.5634410  64.2301893  83.0915737   3.7665415
  65.2312756  83.1495571   2.6327685  94.1437817  92.9658890  30.6125593
  93.5923958  93.5426807  30.0838566  95.0382710  93.2471752  30.4202032
  44.3359137  89.0226269  41.5292215  44.4671822  89.1767311  42.4647713
  43.6346912  88.3722782  41.4896870  16.2398247   1.1930388  57.6530790
  15.8331684   1.7532653  58.3141518  15.9102730   1.5284366  56.8193293
  35.9084228  25.0282306  17.9865551  35.1668171  24.9967784  18.5909247
  35.5085281  25.1104850  17.1207917 105.4742957  29.7660369  13.1887269
 106.1803056  30.0373382  12.6020682 104.9994517  29.0953368  12.6978946
 100.4574586   9.9718303  43.5308123 100.3392792   9.2844409  42.8752518
 101.0151530  10.6198997  43.1004572 104.9438190  72.8483152   8.9919966
 105.4544640  73.6522007   8.8958287 104.9168110  72.4748945   8.1110537
  67.6791811  90.8695889  57.3101473  68.5934067  91.1391926  57.2222090
  67.2116518  91.3920593  56.6584826   9.7461509  30.0932337  87.5657973
   9.9752664  29.1690565  87.4676001   8.9551496  30.0879313  88.1047994
  83.3973885  22.6304549  23.8068509  82.4645568  22.4160594  23.8162208
  83.8123418  21.8760413  23.3886361  91.8375874  90.1835442  13.3236158
  91.7639542  91.0200787  12.8642511  92.7783680  90.0632286  13.4527934
  83.5006428  86.3327026  29.9578047  84.3777943  86.3370132  29.5746231
  83.0041695  86.9552517  29.4266105 100.8922911   3.6599463  29.5528316
 101.3213969   4.4948882  29.7398424 101.5676738   3.1342715  29.1241646
  43.4858847  61.9669724  18.4705901  43.9761114  62.4963140  19.0996432
  43.0179548  61.3281584  19.0083539  78.4824134  27.9256934  21.3701391
  77.7540684  28.3036155  20.8772707  78.0879546  27.2113151  21.8704391
  57.9316950  93.1836796  26.4612699  57.5985432  92.3434067  26.1463475
  58.5084963  93.4900856  25.7615209  39.1241554  12.5093860   4.0046301
  38.2539944  12.5392741   3.6069223  38.9569096  12.3670787   4.9363017
  63.6534023  76.7541695  35.3668904  63.5988283  77.5406885  34.8240829
  63.0186939  76.9024277  36.0678887  93.7700892  27.8820151  41.4927101
  93.4455777  28.1939525  42.3374701  93.3572150  27.0259780  41.3788080
 110.7307864  18.5753554   4.4966835 111.4700270  19.1833896   4.5038486
 109.9707461  19.1199416   4.7016048  54.8584843  86.3359547  15.8366394
  54.0708828  86.8718433  15.7431448  55.3236580  86.4471531  15.0074947
  92.4213458  30.8775443  55.7775831  92.8250600  31.6626376  55.4076242
  93.1220151  30.4621238  56.2802935  87.7985954  89.7385597  28.6212373
  88.0301094  88.8103390  28.6534786  87.2506809  89.8757267  29.3940258
  52.5490952 104.0680981  58.6144066  53.4313488 104.4111156  58.4722757
  52.6581001 103.3996201  59.2907810  76.4512777 104.5614338  45.7450008
  76.8345261 105.4335403  45.8387470  77.1501637 103.9630413  46.0090399
  57.2075558  93.3987713  31.8201089  56.9983721  92.5802517  32.2701144
  57.6089573  93.1231880  30.9959936  70.8125782  90.1142120  27.8610587
  70.7432699  89.3522835  27.2858238  70.0335741  90.6344891  27.6643372
  32.4398327  71.6902256  17.8490305  33.0716538  71.2279320  17.2982872
  32.8817034  72.5048923  18.0883968  70.0168991  65.3107452  11.0718966
  69.1125250  65.0164843  10.9634900  70.5251932  64.5025301  11.1401308
   2.3303417   0.0125140  38.5279536   2.8937963  -0.3366929  39.2184639
   2.9050592   0.5795115  38.0137157  72.4258972  10.8057517  78.0443621
  73.0207301  10.2433032  77.5483322  72.9081083  11.6250819  78.1557751
  73.7943506  90.0804901  24.5790601  74.3559408  89.6804810  23.9151049
  74.3550158  90.1597786  25.3508115  76.5777779  95.0248146  22.9165173
  76.6970778  95.2702427  21.9990396  76.5255547  94.0691280  22.9039669
  13.7379650   3.8636035  37.2577333  13.2523636   4.3946284  37.8889465
  13.7862495   2.9967994  37.6609087 101.5714074  38.1372470  49.3855715
 101.6636372  37.6353950  50.1954269 100.9957410  37.6038856  48.8375187
   7.7231125  49.1596526  59.5782375   7.4084190  50.0635928  59.5689726
   8.4046368  49.1501826  60.2503061  33.9975142  93.5879707  50.3533316
  34.2792082  93.8864517  49.4885778  33.9182639  94.3901634  50.8695126
   5.5447391   5.1517409  32.5245190   5.1508621   4.6482104  31.8120956
   5.0039629   5.9389133  32.5889349  73.1284189  84.3842793  19.4131911
  73.6062098  84.1271210  20.2017450  73.4571362  85.2597141  19.2087746
 109.5243740  78.4374857  43.8591671 109.5567894  79.1968012  44.4410753
 108.9718533  78.7181902  43.1296730  82.4973488  92.1270275  36.4948440
  83.1831646  91.9777870  37.1457052  81.7342472  91.6639709  36.8404984
   8.6592010  18.2354278  73.5973549   9.6087078  18.3462924  73.6460972
   8.3195881  18.7560386  74.3252707  88.1439687  34.2896861  37.2785759
  87.3115969  34.6665401  36.9933128  87.8964234  33.6047381  37.8997016
  76.5847635  62.5657488  83.2152110  76.8552541  63.0116965  82.4125928
  76.8449544  61.6542555  83.0820996  96.8082286   7.6603049  32.8867769
  96.9356871   6.8284148  33.3427906  96.8850899   7.4389380  31.9587064
  87.2573280  62.5732327  29.5398450  87.9825497  63.1753874  29.3734336
  86.5161896  62.9551744  29.0696716 109.5133258  21.4595813  33.9674544
 110.1248503  21.9585246  34.5090532 109.0080786  22.1255416  33.5011268
  32.6465610  10.0855464  58.9888287  31.8456653  10.4045791  58.5728741
  33.2683567  10.8073920  58.8963985  72.7635765  80.5436420  29.0109873
  72.6631212  81.4953804  29.0293336  72.0488548  80.2167892  29.5574021
  82.2497177  97.7502060  35.0971794  83.0589294  98.1506348  34.7792721
  82.4969864  96.8517876  35.3161335  76.6409779  80.8249664  37.6565194
  75.8250618  81.2545395  37.9133987  76.6579580  80.0168800  38.1692934
  96.5856838  55.7715034  30.3292036  96.7829418  56.7044973  30.4119182
  97.4401855  55.3417969  30.3666306 109.8096991  12.2581119   8.8704985
 109.9951268  12.4210757   7.9456782 110.2241326  11.4147777   9.0528888
  25.9693483  99.8042202  17.6147139  25.7293656 100.4986477  18.2282388
  25.7423452  98.9933968  18.0699849  17.4632172  24.0347785  25.5338264
  17.8122810  23.9281100  26.4187050  17.7440647  24.9108523  25.2695560
  84.9735928  19.3390101  69.9472666  84.6208525  19.4796485  70.8259153
  84.3454362  18.7506598  69.5283365 105.1845360  85.5393124  27.0780468
 105.9653378  86.0490513  27.2942615 105.4314899  85.0419807  26.2983632
  91.4878082  80.4013157  54.2216110  92.3734856  80.7488441  54.3266773
  91.4723301  79.6157789  54.7683525  36.8928818   8.8885230  46.3981104
  37.7393536   8.4496802  46.4826059  37.1120647   9.7844523  46.1421633
  81.3523102  73.7212992  38.7075520  80.6088543  73.1595993  38.4885025
  81.2049770  73.9684486  39.6204829  21.0973457  19.1945094  34.9313259
  21.3437942  19.3317718  34.0166378  20.4356865  18.5035247  34.9000025
   5.8178619   7.3359412  37.7382398   6.6464905   7.7912349  37.8876257
   6.0277656   6.6627330  37.0909691  43.8293695 104.1193008  33.1340528
  44.2028141 104.7272301  32.4959373  42.9292297 103.9842224  32.8378558
  15.8318905   8.9093894  43.0729532  15.5779175   9.3291587  42.2510529
  16.7855362   8.9881534  43.0974340  83.8842964  95.5721760  28.1773019
  83.9447021  96.4766693  27.8699160  84.5184898  95.5193520  28.8923120
  94.5368481  80.2142239  16.8512869  94.9773884  79.7274637  17.5478697
  94.0414238  80.8929062  17.3097336  76.3099527  91.7255306  16.9448781
  76.1613464  92.1158981  16.0836208  77.2620773  91.7171288  17.0429778
 101.8239880  29.4079799  17.3111320 101.7089654  30.0486964  18.0128980
 102.0106364  29.9347896  16.5340459  75.1798105 104.6260834  51.2850094
  76.0792637 104.6509457  50.9585142  75.2643156 104.3559742  52.1994162
  40.9071493  83.7807274  22.7840972  41.1163616  83.8109970  21.8505311
  39.9668002  83.9548969  22.8245878  87.7991199  84.1637135  62.8768492
  88.5944366  84.4965649  63.2926798  87.5167751  83.4441853  63.4414625
  67.0939779  60.8898067  35.7796288  66.8056393  60.5072021  36.6083074
  67.7546883  61.5352345  36.0308623  57.2657824  82.3170471  26.3290834
  58.1050682  82.1826172  26.7692637  57.1253967  81.5123177  25.8301544
   2.4829964   7.3807639  42.8873110   2.7198843   8.0247420  43.5547018
   1.9168619   7.8600139  42.2822952  59.0179873  98.7985039   2.9986352
  59.8242855  98.7443256   2.4856251  58.8845921  97.9103279   3.3296669
  55.0290012 105.1525688   7.3971790  54.2427158 105.6634235   7.2047931
  54.7440624 104.5098591   8.0467665  49.8472691  68.4281874   7.3843676
  50.2685261  67.9026890   8.0645335  50.4009104  69.2049360   7.3045206
  66.6965437  81.6509151  40.9024000  67.2601604  82.1410942  41.5009785
  66.1671543  81.0943985  41.4735985  97.5586844   2.4033755  16.5279353
  97.1166373   2.5426501  17.3654473  97.2891188   3.1465930  15.9883165
  99.2253495   0.0295562  16.8032813  98.5462428   0.6805247  16.6263890
  99.4733954  -0.2987081  15.9390211 104.0363980  11.6253394   9.1622657
 104.4146014  12.5005931   9.0778393 103.9042903  11.5112704  10.1034176
  76.2736797 104.8571873  68.7107754  75.4202557 105.1340389  69.0443277
  76.0775948 104.1176796  68.1355333  85.9585858  12.2316474  25.1324964
  85.7214547  13.0945605  24.7928238  86.4434291  11.8180675  24.4182801
  84.3842602  81.5966892  50.6772423  84.8447895  82.3456955  50.2988863
  84.8384285  81.4284134  51.5028572  87.8652287  77.6345301  29.6385717
  87.9505539  76.7154408  29.3851471  87.1889877  77.6343966  30.3160191
  69.8055172  65.1402283  20.5825496  69.7940159  65.7533693  19.8475969
  70.5890608  65.3762436  21.0791278  28.6146116  95.6231403  43.1028128
  29.4975376  95.4747581  42.7642059  28.3553934  96.4675236  42.7339649
  20.4871754  18.2345122   7.7820677  21.3102535  18.6247653   7.4879944
  19.9936870  18.0807513   6.9764221  92.8914165  98.9491558  14.0752542
  92.9648304  98.7112617  13.1509995  92.8859234  98.1115246  14.5384705
  81.1253738  65.5663204  49.3807507  81.4541340  66.2535763  49.9602652
  80.5973530  65.0058651  49.9493504  14.6876339   2.5197429  21.1521649
  15.3933147   2.7387828  21.7606664  15.1355366   2.2978515  20.3358459
  62.2221041  83.6095047  16.1125028  62.4705601  84.3047237  15.5032575
  63.0546427  83.2700539  16.4409697  65.6256437 105.1126766  47.4625969
  65.5886555 105.7758141  48.1518745  66.5097475 104.7511864  47.5252056
  12.7517799   6.0554809  33.8423872  12.1982292   5.2753181  33.8764119
  13.5552410   5.7990092  34.2950463  72.0882750  86.4018822  13.7886465
  71.8646002  85.8055401  13.0741024  71.5617228  87.1836567  13.6218703
   1.1714081  18.7482661  34.5692444   1.0412125  19.2817039  33.7852049
   0.6841711  17.9430503  34.3947172  73.2134056  78.1885338  27.7985740
  73.1530142  79.0875435  28.1216335  74.1066360  78.1142426  27.4626327
  42.5170326  93.4774303  55.7018423  42.0221567  93.0699539  54.9910069
  42.9660130  92.7483463  56.1297274  14.3908456  89.9476719  49.7743034
  15.1099542  89.9635315  50.4058599  14.7926858  89.6410370  48.9614487
  59.1630602  97.1733284  11.2456954  59.8704481  96.8877602  10.6675231
  59.4993353  97.0210648  12.1288538  19.6775440   1.3412208  43.4864521
  20.1961998   1.6050452  44.2464733  19.1230492   0.6311053  43.8097095
 107.3075009   5.4955787  46.5494204 106.9423295   5.8804626  45.7527113
 108.2462979   5.4292125  46.3748217  12.7024654  41.6958541  63.7818813
  11.8122963  41.3732356  63.9224005  13.1037525  41.6776771  64.6507120
  40.9155178  79.8083305  38.1030250  40.8124542  80.5025768  37.4521518
  41.4959478  80.1845741  38.7646675  87.2640038  91.5245152  31.4220715
  87.4225235  92.4476814  31.6192126  88.0850410  91.0870743  31.6473794
  92.4759960  82.8034496   6.5927851  92.0986748  83.5770416   7.0116121
  91.8557835  82.1002769   6.7854357  88.9140701  98.9491653  55.0078011
  89.7544098  98.9803982  55.4650593  88.3797646  99.6135235  55.4429865
  61.6328192 104.1799545  39.2799878  61.0930252 103.5278893  38.8331342
  61.2254047 104.2791462  40.1404572  96.0175991 103.3951759  11.9285476
  96.2833023 103.3540344  11.0098839  96.7315865 103.8610744  12.3637462
  22.8790473  32.1921946  89.6966982  22.8039169  31.2914301  89.3817335
  22.9316711  32.7207590  88.9004034  78.3522892  71.8597221  43.1174612
  77.6980209  72.2212934  43.7153149  78.7003136  72.6215649  42.6540995
 104.9872542  12.7243155  30.8690715 105.8246423  13.1437224  31.0668468
 105.1620436  11.7873115  30.9568310  58.2891321  49.5111704  19.0167356
  58.1577778  48.5729647  19.1536856  58.1312656  49.6411371  18.0816317
  87.9544640  91.2168217  35.2866817  87.7092648  91.8373680  34.6003675
  87.8226376  91.6984558  36.1033082  74.0962219  86.8507671  65.4365158
  74.4562578  86.9259930  64.5528030  73.3701897  87.4743271  65.4532337
  93.5080719  62.2612190  29.8227882  93.4960461  61.3463402  30.1039934
  94.0548420  62.7040911  30.4717422 101.7988893  55.5851389  85.7434815
 102.5695964  56.1520506  85.7727665 101.9583412  54.9289156  86.4218470
  71.8376683  33.3849551  85.8587617  71.7833375  32.6476218  85.2508074
  72.5393914  33.1451537  86.4639983  93.7019634  80.4235458  24.8973489
  94.0896606  79.6575403  24.4740701  93.6663151  81.0860538  24.2073941
   9.0929177  41.6420317  25.6887150   9.0290788  40.7085085  25.8904314
   8.1869844  41.9206858  25.5550480  74.2856359 101.0752201  10.1658916
  74.0872478 100.9313107  11.0911822  75.0621510 101.6348934  10.1716566
  88.6616516 103.5141945  30.7945275  87.8001690 103.1573486  31.0107350
  88.5509109 103.8965893  29.9240422   3.0771736   1.4197082  46.3042212
   3.7089638   2.1269340  46.1742163   3.4685568   0.8708209  46.9837713
  93.5621024   9.2869014  26.8842268  94.0740634   9.2134971  26.0787821
  92.6510907   9.2423457  26.5938687  50.6056356  10.5466391  78.2461727
  49.9047708  10.3340269  78.8624692  51.1201047  11.2198807  78.6914849
  74.3548012  55.6943941   9.6103132  73.9188671  56.5282249   9.4344944
  73.6649513  55.1335812   9.9650371  73.0896664  72.1953964  15.3197432
  72.8695917  71.3563871  15.7245481  73.7018108  72.6035166  15.9320712
  41.8949270  75.0998354  16.6601396  42.0856047  74.8841000  17.5730109
  41.2410545  74.4538689  16.3929152  77.6464558 102.6289749  24.8415160
  77.3163176 101.7612743  25.0746107  77.7762508 103.0694294  25.6813884
  73.4239388 103.2870960  37.8918314  73.1709814 103.5875225  38.7647533
  74.3733263 103.1760788  37.9425168  46.9302797  96.3427448  61.7694139
  46.8233299  95.9480190  60.9039783  46.0570335  96.3047218  62.1595764
  72.2604990  98.6569595  30.2054739  71.9862604  97.9736137  30.8170843
  72.9410934  98.2437706  29.6741486  12.1353153   2.3306674  18.0950832
  13.0072407   2.7040786  17.9665053  12.2360042   1.4050883  17.8728497
  84.3599082  17.8058070  10.7561207  83.7655450  18.3296222  10.2189314
  84.9661208  17.4123401  10.1284873  72.2564363  91.5355873  22.6553369
  72.5227261  92.4488831  22.5495076  72.8068161  91.2064362  23.3659554
  46.1017084  86.4153194   8.1728649  45.7502460  85.5268669   8.2307935
  45.4141140  86.9694519   8.5421646  33.4866857  55.8667113  70.6672502
  34.0058326  56.0506655  69.8843837  33.6797618  54.9520804  70.8732152
  74.1387510  87.4326420  33.9936900  73.7592316  86.9199371  33.2800198
  75.0805044  87.2746086  33.9276528  95.6719447   6.5983886  49.7808313
  94.8794795   6.6972560  50.3085232  95.5523349   5.7665557  49.3225956
  80.9496880  96.3574791  38.2868695  81.5020561  96.9307613  38.8183522
  81.0847282  95.4848671  38.6563826  90.3583431 100.0608158  34.1952920
  90.3190708 100.5902100  33.3987808  90.5896473  99.1839600  33.8889265
  80.2001095  56.9034052  29.9662423  80.1371002  57.8482294  30.1061416
  81.1378288  56.7376900  29.8689890  26.1753225  56.6227557  58.9977145
  25.6100702  56.2361075  59.6664596  26.9985151  56.7997004  59.4529963
  63.5385132  86.2219620  33.8902259  62.8851843  85.9243488  33.2571220
  63.4956837  87.1772480  33.8474822  96.1375714   3.7077159  64.3908787
  96.1952449   2.9070014  63.8695765  95.1980735   3.8615245  64.4904757
  73.6254215  90.1735592  32.1697140  74.3871021  90.1435089  32.7486515
  72.8867674  90.3433514  32.7543402  83.5307026 102.6047516  31.3005400
  82.8981972 102.6994610  32.0127201  83.1515312 103.1019020  30.5757618
  14.1790871  24.7783393  56.9584513  13.6255554  23.9997405  56.8982935
  13.8181309  25.2725429  57.6944590  91.8194008  85.6974888  22.9435349
  91.2273026  86.0868359  23.5870099  91.2812805  85.0552750  22.4806905
  79.1423082  91.2121582  47.3107672  78.2435369  91.5228462  47.2015905
  79.5244217  91.2719536  46.4351845  12.2165588  34.5326919  49.9487925
  11.3151459  34.6531219  50.2474499  12.6935676  35.2739162  50.3220034
  24.5215610  16.8661326  39.0253711  24.4001774  16.0492438  39.5093083
  23.6856750  17.0077247  38.5809875 105.7253934  44.2189139  67.4080181
 106.6388798  44.4040317  67.6259804 105.2900506  45.0699252  67.4579430
  17.1062664  51.4846152  40.2096939  16.2172321  51.5401858  40.5600595
  17.3788551  52.3958987  40.1024818  11.6661362  43.7815398  16.6681731
  11.8822483  43.2124347  15.9294987  10.8198170  44.1639346  16.4363170
 109.2710925  27.8128356  56.4401722 108.6692906  28.5354060  56.6189194
 109.1398383  27.2060126  57.1687174  26.9460205  12.1505946  48.0985355
  27.7585606  11.8985480  48.5372543  26.8325237  11.4955729  47.4098444
  41.7478279  11.6667575  31.2192845  42.4981884  11.1528892  31.5178299
  42.0650200  12.5698108  31.2085009  60.9925270 104.8918533  25.7739377
  60.0546837 105.0702763  25.7043219  61.0831642 103.9779949  25.5039930
  18.2667736  12.7277011  28.4142327  18.7142948  12.0786304  27.8714037
  17.7963356  12.2100753  29.0676713   0.5315212  24.0323085  31.5617514
   0.5529312  23.2958049  32.1727729   0.1629642  23.6659640  30.7578897
  72.6507807  96.5303612  44.9101019  73.3317518  96.6539478  44.2488575
  71.9630718  96.0421944  44.4573450   6.0690597  23.3495730  45.6528807
   5.9544853  23.8348121  44.8357821   5.8450416  23.9787978  46.3385344
   8.0112842  22.0554942  26.3200259   7.4632458  21.3407153  26.6440177
   7.8084663  22.1084041  25.3860593  14.7826961  12.4279708  26.6772318
  14.0253834  12.7692718  26.2016153  14.9389557  13.0691546  27.3705602
  51.9323205  44.6179797  70.3570914  52.0332288  45.5680872  70.4149342
  51.4670324  44.4762923  69.5326734  14.8131660  13.4107703  13.4222829
  15.5173592  13.6550540  12.8217232  15.0728897  13.7889403  14.2623842
  85.0332165  90.6029034  26.0489678  85.9881401  90.5446911  26.0179329
  84.8543930  91.5325832  26.1902308  17.9262356  18.5487575  46.7051315
  17.2790245  18.5905856  46.0011387  17.7805046  19.3474311  47.2122097
  14.6085647  42.3079509  46.6766024  13.8020042  42.4950427  46.1962986
  14.5657352  41.3695163  46.8602991  67.8404903  97.3290157  40.6306362
  67.6206923  98.1989956  40.2973747  68.5743475  97.4791813  41.2265682
  72.4495220  99.2431450  26.8115306  73.2759953  98.9883614  26.4013290
  71.7945528  99.1263390  26.1233425  70.0519825   6.3830489  21.6474700
  69.2759205   6.0731238  22.1142769  70.2453781   5.6891269  21.0171509
   0.8608059  55.0794143  39.7782516   0.7833437  54.6651000  38.9188457
  -0.0232121  55.3890151  39.9754381  22.5915150   8.9874572   3.0797881
  22.1529678   8.4283561   3.7211227  23.4617332   9.1382712   3.4488517
  79.5270062  46.2216777  64.4025946  79.6296788  45.8621139  65.2837324
  79.7005702  47.1575278  64.5040798   3.5844616  42.1717185  43.3882093
   3.4003977  43.0553931  43.0696440   3.8412050  41.6837043  42.6058102
  70.3994274  84.6841526  58.0788088  69.6249962  84.7616196  57.5215912
  71.0696173  85.2000141  57.6305199 101.3161660  10.6735724  14.8463559
 102.0226432  11.1954612  14.4658923 100.7585669  11.3126201  15.2901268
   1.1920837   7.4018687  54.3519640   0.4332451   7.9614371  54.5171309
   1.2838892   6.8811435  55.1498652  70.7907772  91.9165134  49.3636513
  70.8890963  91.8117332  50.3100061  71.6766834  92.0971298  49.0493584
  91.9784642  45.2010936  48.5126543  92.7982331  45.5834598  48.1995964
  91.7040253  45.7752818  49.2276478  87.6626397  14.2016810  34.9053669
  88.2275248  13.5045070  35.2386546  88.2694340  14.8661918  34.5790720
 107.8324604  67.7465343  32.0747328 106.9984341  67.2783089  32.0372677
 107.9782963  68.0481386  31.1780739  16.1605171   6.3632888  10.0871122
  15.8223347   5.9783572   9.2786002  15.3909878   6.7417544  10.5123508
  71.7682457  90.4922867  34.1350150  71.5893507  89.6730423  34.5966053
  70.9136200  90.9169579  34.0608358  65.7939148  94.9727917  56.9008541
  65.0876713  94.6334076  57.4506378  65.9950304  94.2557144  56.2995386
  90.0793267   9.6342963  35.1446247  90.7923079   9.0036029  35.2452207
  89.2946006   9.0950316  35.0464559  21.1999325  10.9262294  27.3227429
  21.3324455  10.6327266  26.4213395  21.1268429  10.1175708  27.8296471
  18.6152748  13.7393588   5.5364931  18.3533577  13.5460967   6.4366484
  17.8390507  13.5399074   5.0131208  96.1302662  97.0274258  15.0262654
  96.6281128  96.2858009  15.3703237  95.3767014  97.1022987  15.6117213
  10.5761388  90.6747818  58.8980913  10.3956845  89.7559929  58.6993551
   9.7460225  91.0151958  59.2316437   8.0009083   9.2739886  51.6046190
   7.5811771   9.1153449  50.7591105   7.6042370   8.6317462  52.1931934
  27.3424724  12.3322696  32.7834082  27.4253563  12.3443908  33.7369347
  26.7948822  11.5688342  32.6002741  99.9136257  85.4832458  27.8412414
 100.5242252  85.5016327  27.1043158  99.1900444  86.0466194  27.5668669
  34.6312717   3.1882972  78.2498169  34.7405914   2.2975749  78.5828209
  35.5241970   3.5198325  78.1550264 111.6286708  29.0364856  29.7284102
 110.7286454  28.8423366  29.4667077 111.9401980  28.2271117  30.1335073
  14.9385647  42.0544833  32.2039413  15.0975422  42.9919929  32.3136163
  15.7763294  41.6430301  32.4162602  70.6085873 101.2915993  65.4411364
  70.7092714 100.5142117  64.8918152  70.1724863 101.9293404  64.8760366
 104.0546466  14.1092128  33.0367136 104.5483304  13.5740012  32.4153781
 103.7419654  13.4868735  33.6933327  42.3998689  36.5363623  74.4612670
  41.9469880  36.0323168  75.1373386  43.1377839  36.9404913  74.9177659
  45.5746269  85.1828003  11.4828742  46.3680601  85.7121849  11.5631616
  44.9978590  85.6995106  10.9202218   6.1377911   6.7348498  57.1657753
   5.7398609   6.7892570  56.2969160   6.0567955   7.6195354  57.5221348
 105.0164285  25.5971408   6.5226340 105.5050442  25.6896210   7.3405182
 104.4169262  24.8683405   6.6828841  11.6082597  46.8221283  24.9812078
  10.9893811  46.0997343  24.8745775  12.4027443  46.4089441  25.3193021
  24.0087056  29.9541283  27.1638560  23.6262107  30.8302188  27.2127867
  23.3437872  29.3808413  27.5452447  44.0614414  21.8094969  16.0460436
  44.4586372  21.1428976  16.6064990  44.7835159  22.1285224  15.5046904
  82.0856609  93.2915276  19.0198612  81.8438997  93.0184549  19.9048555
  83.0141708  93.0708486  18.9463639  53.9745922  61.6299839  89.1819605
  53.2912917  61.6594447  88.5122854  54.7433098  61.2887580  88.7249380
  90.2806993  65.7585139  81.0445642  90.2499051  66.1133582  80.1560998
  90.8808656  65.0152237  80.9849417 105.0504389   6.5898240  41.9855547
 105.4931709   5.8401442  41.5878105 104.9825016   7.2309071  41.2780046
   8.9148903  55.3943682  50.5288363   9.5452809  54.7352505  50.8193541
   9.0735310  56.1457682  51.1002064  53.4258270  13.9310586  44.7507715
  53.9946318  14.0562677  43.9911556  53.6593056  14.6442533  45.3449726
  90.5099006  54.8850223  87.0430899  90.5229087  54.2136924  86.3609034
  91.4272876  55.1369838  87.1486971  35.3978848   1.4193927   8.4735459
  35.7480145   2.2322965   8.1090891  34.8777771   1.6991211   9.2268527
 106.7412767  22.5032592  41.0568666 106.7848214  21.5549016  40.9345770
 105.8668676  22.7442932  40.7510138 100.2199396  19.3229997  34.9871826
  99.6079370  19.7711098  35.5710316 100.5249211  18.5694587  35.4925466
  24.1176748  34.3093562   4.8287845  24.1856241  33.6027694   5.4709303
  23.9358377  35.0907779   5.3508425 101.0682794  57.7074099  30.8532524
 100.9243509  57.6092672  29.9120378 101.3214526  56.8330526  31.1492896
  10.1599550  14.4005382   7.4615806   9.7447836  14.0696669   8.2580662
   9.4308454  14.6970260   6.9168544   1.4724421  87.2838169  23.0621219
   0.7300209  87.8724509  23.1983256   1.3166069  86.5579730  23.6663556
  12.8137481  43.7971020  24.0435028  12.1377766  43.9463377  23.3824253
  13.5948634  43.5680628  23.5398817  84.2856821 100.4905796  52.8561401
  84.1002151  99.7978121  53.4900999  84.3762883 101.2823960  53.3862829
  44.9828529   5.9073335   3.2877314  45.2345848   6.0945994   4.1920510
  45.6479931   6.3469207   2.7580312  75.9656854  61.7812074  73.3767986
  75.0918455  62.1259476  73.1929827  76.5585013  62.4974025  73.1490540
  16.1950171  65.2838039  39.9603558  16.3318646  66.2050009  40.1814842
  15.2664673  65.1308537  40.1353884  57.2755194  28.6064982  28.8557839
  57.6097012  28.7601924  29.7394896  57.3665524  27.6625037  28.7261081
  35.7104921  72.5049543  22.7590537  35.9239507  72.9072046  23.6009955
  36.2313795  71.7021656  22.7382374  65.4361436   1.0149648   1.3022859
  64.7593352   0.4019634   1.5893219  65.8824584   0.5613742   0.5872381
  33.5591568  45.6058265  81.0029829  33.7293287  44.8168988  80.4883313
  34.1512089  46.2628962  80.6369698  41.0467958  14.8161209  44.2867136
  40.1962328  14.5058489  44.5973587  41.1567116  14.3984520  43.4324884
  23.7380528   7.6797348  25.9939003  23.1914330   7.1122479  25.4503942
  24.6291661   7.5259733  25.6800461  50.9438896  17.7494609  23.3937526
  51.6647720  18.1257534  23.8986897  50.2847958  18.4429550  23.3638763
  88.8565596  96.8608761  20.2861404  88.9256402  95.9285986  20.4918551
  89.6175464  97.0414096  19.7342908  76.5824266 104.9118287  74.7572839
  77.2039695 104.2551429  74.4431508  76.2429901 105.3205545  73.9610684
  70.8700275  23.3239079   0.6550153  70.1126862  23.3954597   1.2360029
  70.7957411  22.4501872   0.2711837  70.8786412 101.9256503  84.5791495
  70.4878397 101.3222034  83.9472061  70.1937981 102.0638854  85.2334523
  18.1675959  33.8032460  29.7595048  18.9245522  34.2976332  29.4451308
  18.4131503  33.5245204  30.6416869  49.5179033  33.8747478  23.2559466
  49.1835451  34.7624350  23.1277061  48.7745285  33.3878756  23.6117220
  39.9113536  58.4831095   4.2651853  39.0538383  58.3954859   3.8489863
  39.7177052  58.7938023   5.1496065  12.3739624  32.8185606  47.6556063
  12.2276759  33.4598064  48.3510447  13.2663667  32.9904914  47.3551273
  79.7684379  62.5550557  89.7984299  78.8559146  62.2921164  89.9184391
  80.2363534  62.1315462  90.5180993  93.8883623 101.6362408  11.1298609
  94.4891401 101.0900298  10.6229579  94.3613371 102.4587422  11.2564230
   6.7125249  28.6768341  40.3736258   6.5284431  29.2253828  41.1361456
   6.3670290  29.1737771  39.6320629  60.8427000  44.5979261   6.6076934
  60.6970930  44.7274542   5.6705415  61.3219786  45.3784466   6.8857437
  80.4442596  29.6336579  30.4800582  80.4393578  30.4964662  30.0656033
  81.3544273  29.3436933  30.4188061  81.1715343  79.0350348  51.9918966
  80.2699526  78.7816888  52.1898794  81.5405425  78.2750827  51.5418577
  14.2411268  61.2143040  38.6847663  15.0912583  61.1675072  38.2473660
  13.9091599  60.3168631  38.6597204  54.4601727  44.4264507  15.1190400
  53.7609482  45.0765657  15.0506973  54.7565603  44.2978621  14.2180133
  21.2484454  86.4795238   1.3487336  21.8694543  86.9489974   0.7918020
  20.4033279  86.5932685   0.9139128  26.0648298   9.5239103  31.7207265
  25.4336667  10.2074754  31.4957714  25.8605266   8.8036180  31.1243439
  31.4253092  38.7835073  33.0013847  32.1489429  39.3215299  32.6802659
  31.8138719  38.2473230  33.6925840  36.4933729  17.4018824  38.0874300
  37.3125815  17.7831578  38.4032702  36.5027308  16.5045536  38.4205127
   7.2239446 104.3651108   1.6322623   6.9859027 103.4443140   1.5240993
   8.1250619 104.3432986   1.9543587   1.0339998 104.0991874  20.9443903
   0.1125240 103.9400737  21.1488223   1.0140156 104.7194390  20.2156091
  11.7593574 104.7407354  20.5440497  12.3971318 104.4716918  21.2051773
  12.2907924 105.0301783  19.8024058   9.1719282   1.2492990  30.7506561
   8.6660051   1.6275842  31.4698029   8.5336196   1.1247723  30.0483108
  66.1902042  68.4960968  90.8081533  66.4600654  67.9834874  91.5701495
  65.4728527  69.0426297  91.1289978  60.1653432  98.6537260  46.4189434
  59.5810079  97.9750597  46.7568731  60.4745340  98.3083230  45.5814886
  36.4945960   3.6843199  29.9391198  37.3781729   4.0363857  30.0466990
  36.5747046   3.0496657  29.2270613  38.2521629  16.0457265  40.8892012
  37.6700425  16.5749359  41.4344597  37.6799345  15.6756306  40.2170277
  15.4327929   9.7134107  27.0550227  15.0944662   9.6080250  27.9442143
  15.2399361  10.6240046  26.8317342 108.0116048  37.9335022  47.2836304
 108.9487746  37.8977942  47.0921373 107.9182461  38.6711884  47.8864002
  38.1193852  12.3884177  53.7989473  38.5172868  11.5977013  54.1631889
  37.4967694  12.0650816  53.1477642   7.0481169  37.0426607  24.1073179
   7.8746426  36.5706015  24.2085481   6.5234822  36.7712617  24.8605347
  28.4516263  47.2749901  30.8293724  28.5879707  48.2191992  30.7511950
  27.5088930  47.1795368  30.9649277  57.6697969  63.8918352   0.3401404
  57.7783012  64.6732044   0.8822894  57.6957035  64.2187786  -0.5591201
  13.8116216  92.4516564  21.0960770  14.0774822  91.7769128  20.4713607
  13.0720996  92.8898889  20.6750154  29.1847920  43.9306545  58.7213516
  28.5266542  44.5063925  58.3319807  29.9440837  44.0098906  58.1439209
  30.6489348  23.4862828  59.1874266  30.3286314  23.5699105  58.2892942
  30.9965992  24.3525624  59.3993664  89.7145125 102.9752157  10.3753841
  89.4630524 102.2926953  10.9976101  89.1245838 102.8506952   9.6319383
  66.8322039  52.7386189  31.4906573  66.9143581  53.6684036  31.2785745
  67.7058172  52.4822474  31.7861342  33.8228846  32.0652342  30.0363326
  34.2078137  32.4465752  30.8254075  33.1471968  32.6901674  29.7733903
  39.6816945   8.9661306  13.9813089  39.7276616   9.0890890  13.0331516
  38.8473988   8.5193455  14.1247189  66.4468813  31.6213298   8.1463808
  66.2745667  31.7520142   7.2139311  66.8072462  32.4571013   8.4427911
  48.0712271  74.4728708   2.8034177  48.8314629  73.9012432   2.9107645
  48.4008789  75.3494883   3.0011544  43.1808996  33.2497311  16.2235653
  44.0968084  33.0908537  15.9953094  43.2142782  33.6148548  17.1077609
  22.5308084   3.5752083  82.4407923  22.0838546   2.7292038  82.4135494
  21.9554090   4.1658474  81.9546920  29.0514946  52.8912783  20.8022761
  29.5460463  53.3647060  20.1333094  28.1405020  53.1418371  20.6488299
  56.2964459  87.8061755  75.8577347  55.8068056  87.1655066  76.3735127
  57.0560320  87.3223789  75.5333889  57.0302296  27.3459315   1.3771915
  57.0030689  28.0717039   2.0006882  56.9528866  27.7639246   0.5195604
  45.9924269   4.7233078  25.9347415  45.5743647   4.7633380  25.0745940
  46.9084120   4.5188716  25.7465649  42.4694252  30.1708698  17.8922975
  42.8078508  31.0590887  17.7792740  42.8256130  29.8840451  18.7331855
  55.5038595  41.6678238  21.3684678  55.1655436  42.4946404  21.0247469
  55.3408909  41.0336161  20.6702900  54.7635984   3.5524687  14.9465597
  54.3932295   3.6263326  14.0670121  54.0144682   3.6634529  15.5319858
 108.9874411  35.3130698  25.8214021 109.8135522  34.9077511  26.0850048
 108.5586336  35.5411506  26.6462255  52.3267555  29.7909570  20.9703135
  51.6717625  30.4599452  21.1695004  52.6792240  30.0471115  20.1180339
  81.1804338  80.8457811  83.7931985  82.0396943  81.2612421  83.7204123
  80.9945770  80.8428485  84.7321767  68.4834623   8.8070422  34.3319535
  68.5136461   8.8648576  35.2869296  67.5527477   8.8703096  34.1174698
  60.9509344  97.1076925  66.9301820  60.0289674  97.1556909  66.6773868
  61.0849352  96.1919505  67.1745038  47.8422260  45.9852982  31.8633199
  48.0663300  45.5869627  31.0222864  48.6345863  46.4543009  32.1249175
  47.6322126  41.1902714   6.6457260  47.4168777  41.3176680   5.7218039
  47.8242874  42.0700026   6.9704008   8.3170318 100.3905171  26.4913630
   7.8334760  99.7387248  25.9838462   8.7633085  99.8832237  27.1693897
  89.3348408  28.8923216  18.6502123  89.1561413  27.9557872  18.5653484
  88.5527706  29.2481136  19.0721273  12.3632716  97.5741958  28.1364846
  13.0147933  97.6797819  28.8297415  12.3233413  96.6295552  27.9871821
  33.7899709  28.9462185  23.9878941  33.6366391  29.8445916  24.2805481
  33.0950260  28.4366655  24.4045949  74.2787933  59.0831518   3.0968690
  74.7592688  59.4117928   2.3370178  73.7627840  58.3524323   2.7562612
  13.1496012  50.3011131  24.1639137  12.3206592  50.0367737  24.5629263
  13.8194108  49.9760580  24.7655153  46.7745924  48.8480330  26.4771914
  47.1687412  48.3005571  27.1562719  46.7090034  48.2734585  25.7144356
  41.7426252  49.9737501  30.8851099  40.8849335  50.3886080  30.9772515
  42.0137215  50.1802635  29.9906301  21.6420436  16.0136771  23.8058162
  22.3789215  15.6623900  24.3056583  22.0489693  16.5310621  23.1108665
  30.2789736  13.9318693  12.7938175  31.0114384  14.1555977  12.2196472
  30.6414723  13.2915497  13.4060407   1.7225885  59.7979259   1.6571112
   1.8392797  59.2134476   2.4061114   0.7966552  59.7136927   1.4295489
  55.1436138  51.3469124  25.9525180  54.9447870  52.2415304  25.6761861
  54.4107151  50.8262491  25.6238770  26.8087792  46.9869280  15.6118965
  27.7262998  47.2596455  15.6154191  26.4180923  47.4511194  16.3522494
  89.7809646  32.0463276  39.4993949  89.2606613  32.1913266  40.2896404
  89.1617891  31.6779184  38.8692117  66.5627861  35.4023695  14.3487275
  66.9442129  36.1080575  14.8709846  65.8547258  35.8219075  13.8599813
  90.0884147  98.6453588  90.8703679  90.6925292  97.9050071  90.8142046
  89.2365356  98.2777603  90.6349882  48.7223005  27.5736046  47.1148348
  49.4229794  27.3709702  46.4949799  49.0587616  28.3110571  47.6239443
  12.7517021   9.0308505   9.5178121  13.0825174   9.8601377   9.1727370
  13.0979204   8.9871722  10.4091346  56.2070465  37.5639439  45.5704212
  56.3436174  36.6200686  45.4886961  55.9100771  37.6857924  46.4721918
  48.3039761  27.3105454  15.2594972  47.6175070  26.6543722  15.3795934
  47.8815746  28.0108023  14.7620559  34.3458390  43.9994287   3.4419358
  33.6372590  44.0439939   2.7999395  34.0534186  43.3450413   4.0763649
  99.2246195   4.3866230  88.2479677 100.0532981   4.3748022  88.7269071
  98.9810678   3.4643961  88.1679198   5.7714366 101.9405317  26.5746212
   6.7249011 101.8904656  26.6426706   5.5994272 101.9644236  25.6333065
  29.6875072  49.8605251   4.6376976  29.2025542  50.2423000   5.3693390
  29.0320373  49.7461128   3.9495823  32.2574639  73.1700611  24.9682808
  32.6717639  72.3077154  24.9990153  32.4101973  73.4774542  24.0747404
 104.0591117  98.6693388   4.8795000 104.9953242  98.6316120   5.0752395
 103.9904686  98.3587318   3.9767027  57.2411203  59.6979904  10.6827486
  58.1056213  60.1065111  10.6383324  56.9082069  59.7438431   9.7864783
  49.3897247  40.5070686  20.9781146  49.6952629  41.3791084  21.2279749
  49.3686771  40.0161743  21.7995834  25.1747704  73.8986588  42.1269226
  25.6843495  74.1098166  41.3446331  24.8318005  74.7414589  42.4240685
  49.3768311  32.3451519  17.0825410  50.2251959  32.5099254  17.4940741
  49.0504456  31.5557075  17.5143743 105.9158226  79.1029078  45.3588343
 106.4815088  78.3419376  45.2278566 105.1590439  78.7598210  45.8340263
  76.7227650  20.7127452  18.8327968  75.8536243  20.8892822  18.4727097
  77.0657206  21.5757585  19.0647948  35.4924297  55.2053070  33.9386320
  35.3023744  54.7949409  34.7822595  35.2482677  54.5446062  33.2904863
  16.4908743  55.0615168  12.4569809  15.7456589  54.8717594  11.8870020
  16.1169529  55.0931501  13.3375573  67.5693369  37.9663396   9.8368561
  67.9493475  37.3742652  10.4859090  67.2033596  38.6845469  10.3530657
  28.4383535  20.2976109  79.7202218  28.3127021  20.2409674  78.7729979
  28.8059806  21.1700655  79.8613155 106.1763903 105.4962284   1.5125710
 106.3095924 104.5604985   1.3612482 106.6356679 105.6738749   2.3333865
  58.3611774  50.4224730  35.1999855  57.8300381  50.9935713  35.7549381
  58.5926580  49.6861792  35.7661295   4.4699782  49.7464228  27.5287914
   5.2325284  49.8499441  26.9595528   4.7460040  49.1064835  28.1849289
  23.1025314  39.3833661  17.8320587  23.6032963  39.1306162  18.6076784
  22.1935916  39.1876078  18.0595219  43.3589315   3.3368778  32.2284770
  43.4962130   2.3895735  32.2295213  42.7023315   3.4829900  31.5474796
  13.4945178  33.4216142  13.4030545  13.7673414  33.2247949  12.5069189
  12.5390804  33.4600735  13.3595634  60.2073526  28.9400768  27.7199674
  59.3522835  29.3071055  27.9444265  60.5879974  28.6877680  28.5612035
  48.0069256  51.2464237   9.4953454  48.9289188  51.1759424   9.7427142
  47.5457001  50.7004547  10.1320708  85.6646772  91.7897184  88.1172854
  85.9600492  91.7225368  89.0252914  85.4581542  90.8896477  87.8653857
  89.6862359  67.7588911  75.4504359  90.4109140  67.9850788  76.0334551
  90.0626846  67.8046019  74.5715570  71.8126392  58.7066221  33.5386586
  71.1199570  58.1898737  33.1270790  71.8569660  58.3762026  34.4359255
  53.7100315  39.6145201  45.1854658  52.8207493  39.2612243  45.2099371
  53.7129879  40.3021145  45.8513737  52.2345781  23.6906290  49.0837288
  51.4952183  24.2913079  49.1773653  52.9032898  24.2029119  48.6291742
  17.7713096  73.3395243   1.1398108  16.8587589  73.4302044   1.4141484
  18.0307424  74.2221260   0.8753517  36.9103718  44.2922258  16.2427366
  37.7192378  43.7908936  16.1396194  36.2478542  43.6361027  16.4590788
  75.9183379  89.0396840  80.1699817  75.7517882  89.5056589  79.3506157
  75.2741094  89.3945749  80.7825613  57.5019503  54.0848875  36.0880041
  58.4472370  54.0192318  36.2234855  57.4082232  54.6595478  35.3282619
  53.1694555  26.3188505   3.1479123  53.6650419  26.3146973   2.3290047
  52.6358032  25.5251718   3.1089425  21.2039065  40.8994961  21.0744143
  21.9573808  41.4668846  21.2374425  20.6266117  41.4220238  20.5177021
  66.1659117  74.8807890  89.0029600  66.5079732  74.3082936  89.6896009
  65.5678315  75.4720862  89.4600166  98.0831142  85.8596284  71.1779809
  97.8271814  86.7413075  71.4488494  97.9166456  85.8408100  70.2355528
  20.9708261  36.3931561  17.0953393  20.5542779  35.5346560  17.0198703
  21.5033960  36.3320851  17.8883541  90.8460291 103.5001832  49.4267178
  91.0436591 102.6536074  49.8273230  90.4860624 103.2803526  48.5674572
  69.3183947  58.7958622  15.7537770  69.8666811  58.1468439  16.1946678
  69.9391699  59.3617964  15.2948809  26.6895843  38.5921502  17.8799284
  26.8023896  39.3785954  18.4137928  27.4575949  38.5781813  17.3087919
  22.7796102  22.6829457  36.5478325  23.0726790  21.9701624  35.9801316
  23.5424113  22.8874326  37.0887113  39.8369312  21.6869688  10.7937145
  39.2400575  21.6778493  10.0454557  39.2636371  21.7627430  11.5564895
  50.7846403  42.7662849  35.5300117  51.5504217  43.0913734  35.0565886
  50.6993484  41.8548107  35.2504230  36.3122272  28.5498619   8.5551304
  36.4743400  29.1992402   7.8708369  36.8793154  28.8173747   9.2783725
  75.3591061  27.3933911   9.8141783  75.2168894  28.1754351   9.2808729
  74.5494843  26.8909359   9.7231621  41.7044067  22.5452447  32.3916698
  42.1816444  23.3702683  32.3032880  41.6570854  22.1992588  31.5004420
  16.2409568  26.2362599  11.7101836  16.5216720  25.8433700  10.8837044
  15.4390669  25.7661629  11.9386876  40.8194971  32.9235315   8.7871414
  40.6888533  33.0044723   9.7319227  40.7013893  33.8123298   8.4520030
  43.8239145  13.3470213  26.8553925  42.9305935  13.0332518  26.7148209
  43.7145948  14.2094600  27.2559905  33.0743432  48.1718206   6.4532769
  32.5454950  48.5681438   7.1457183  33.5753465  48.9008427   6.0875583
  65.9604974  95.5442150  83.8890767  66.8798967  95.4748781  83.6319226
  65.7275076  94.6641929  84.1848904  60.2577496  37.6593423  17.4039650
  60.5163288  37.2648358  18.2368720  59.3316650  37.8731537  17.5174868
   8.6026365  75.6768036  14.2815435   9.0967262  75.0181580  14.7696948
   8.1505752  76.1849546  14.9550831  25.1680303   7.2479999   6.2629932
  24.3680930   7.7611744   6.3769400  24.9138927   6.3541418   6.4924771
  59.4794989   2.0646080  36.8499851  59.6257448   2.5322723  37.6722574
  58.6663675   1.5798208  36.9915104  86.5842576  93.9955909  83.1816745
  86.4173313  93.2038076  82.6703566  85.7156558  94.3638379  83.3433849
  48.0417967  30.0470209  22.9449058  47.9236794  29.1198063  23.1511950
  47.2161341  30.3088188  22.5375056  67.8577852  33.9426565  18.6808193
  67.8468037  33.9014268  19.6370673  66.9406080  34.0651107  18.4358168
  36.3850784   1.5326793  25.0708032  36.8152571   0.6793389  25.0161386
  35.6529760   1.4715892  24.4571877  32.0803452  44.6547604  12.5754476
  31.2833023  45.0933218  12.2777569  32.7928233  45.1958609  12.2351360
  76.7351532  27.2769189  39.9944377  77.6395273  27.5794387  39.9118710
  76.7775631  26.5672064  40.6353283  33.0728960  50.4288101  29.5430541
  32.6688290  50.2978134  30.4008436  33.7415457  49.7462082  29.4865155
  38.7649441  11.8131018  35.6469083  39.3272877  11.9122958  36.4151263
  38.4947371  10.8950055  35.6648183  88.7257047  90.8680017  87.0222276
  88.5175605  91.7895372  87.1761110  88.2509895  90.3975708  87.7074826
  30.0226903  51.3277340  64.3728828  30.9532785  51.3422441  64.1492176
  29.7143817  52.2114897  64.1724920  42.4267387  31.4055181  35.4479599
  43.1083298  31.0399532  36.0118961  41.6769171  30.8232379  35.5702257
  73.0818577  87.6549346  75.4778004  73.5316511  86.9767744  74.9738002
  72.6015683  87.1737010  76.1515748  95.6821346  51.2414646   5.9294850
  95.7522488  51.1980438   4.9758437  95.7887745  50.3353453   6.2189841
   9.8520607  32.7969623  37.8892708  10.2336013  33.1537795  38.6913562
  10.2917230  31.9552994  37.7687216  21.5503263  16.6312945  18.1272650
  21.1984992  15.8112144  18.4735572  22.4832606  16.6000807  18.3391452
  37.0082855  48.4251118  26.9317174  36.2539220  47.8878069  26.6899061
  37.3219872  48.7847853  26.1019850  54.7455502  34.8750043  33.2515693
  54.6500397  35.1550174  34.1618991  54.7108316  35.6872106  32.7462506
  15.3666829  96.6746866  18.9587784  15.5802678  95.7417685  18.9754534
  14.5084762  96.7314619  19.3788779 106.7478970  80.9183693  47.3440456
 106.5694019  80.1138306  46.8571186 106.0124835  81.4938164  47.1336651
  33.1927848  11.8784380  31.0729766  33.3185577  11.8168259  30.1260781
  34.0078926  12.2603512  31.3985109  63.2351685  37.0680475  31.2075353
  63.3176470  36.3156319  31.7934537  64.1123724  37.1847892  30.8426857
  98.6777612  12.8022410  91.1803315  97.7821752  12.7637602  90.8446581
  98.8821026  13.7368752  91.2109874  58.6930318  95.9647806  82.5013632
  58.6944456  96.9217307  82.4796224  58.5779090  95.7463891  83.4261787
  51.0462284  54.2380142   4.3846309  51.4933300  53.4549761   4.0634158
  50.9344006  54.7856951   3.6076027  19.6648467  40.3883028  16.2399089
  20.2880168  41.0964489  16.4024353  19.7615051  40.1934338  15.3077531
  26.1793995  31.2033153  19.4032562  25.5954862  31.8021107  18.9377213
  25.8123541  31.1484885  20.2855849  24.7433662  58.1512690  30.0441599
  24.3815017  58.8628912  29.5160651  24.0391850  57.5044918  30.0892615
  42.7107048  69.4740629  29.1593194  42.4731827  68.9897966  28.3685565
  42.4152613  68.9167500  29.8792839 111.2072660  51.4391232  21.3398123
 111.0233097  52.3419237  21.0803151 110.5000487  50.9279776  20.9463549
  29.7371984  19.1551316  25.8049941  30.5991054  19.5151782  26.0140800
  29.9240732  18.3197689  25.3766513  38.4248351  90.6118673  18.6270988
  37.5629186  91.0082763  18.7543225  38.7369155  90.4277378  19.5130646
  25.7549930  47.2394562  31.5852094  25.0940466  47.1466494  32.2713351
  25.6334996  48.1294250  31.2544155  13.4999514   0.7967277  28.5004091
  13.2725883   1.3670053  27.7660227  13.0014515   1.1468042  29.2387700
  29.2422462  20.9084535  23.9277744  28.3438611  20.7970929  23.6167526
  29.3635702  20.2055788  24.5661139  87.0793363  96.6339749  70.3684044
  87.5734230  97.3884386  70.6891727  87.5194498  95.8772593  70.7555914
  63.8656659  97.3534114  83.2763946  63.2842036  96.7214687  82.8535712
  64.7472687  97.0499427  83.0597991  15.5882834  86.6613586  44.5350409
  15.9856127  85.8942277  44.1228962  15.2752779  87.1917684  43.8022900
  63.9686966  37.4849629  16.3986540  63.8010740  38.4271526  16.4189625
  63.6466217  37.2027898  15.5425715  24.8348117  19.5624554  33.0796194
  25.1884413  20.1419997  32.4048567  24.7848701  20.1097870  33.8633060
  67.4697800  93.8932092  89.1009410  67.5654240  93.7414319  90.0411789
  66.9549103  93.1488712  88.7893280  50.4196596  45.4386520  17.2041702
  49.6620417  45.6303549  16.6514575  50.8093929  46.2947130  17.3816621
  63.4754181  21.4854193  28.4732461  63.3840036  22.4327159  28.3707619
  63.1794596  21.3115096  29.3667769  24.1245723  21.8708158  43.5365725
  24.2724037  22.7921033  43.3230114  24.8106694  21.4017916  43.0616856
   6.0724162  92.1036595  61.8595791   5.3346681  92.4626559  62.3526096
   6.0542344  91.1658185  62.0502520  36.3266253  36.9761682   3.6305204
  35.6370378  37.3243642   3.0653149  36.9570494  37.6922512   3.7081322
  64.9218750  56.4096451   8.9285672  65.7997513  56.6966105   9.1800016
  64.9867678  56.2348223   7.9897070  32.6239729  58.9586592  41.1698675
  33.2235980  58.4134007  41.6791582  32.1776986  58.3441544  40.5872393
  80.4737282  70.8601284  12.8074229  81.3335419  71.0248041  13.1945026
  79.8556280  71.0175037  13.5211599 111.3266268  65.1663256  46.2493658
 112.2751907  65.2684355  46.3270235 111.2133718  64.4342947  45.6431150
  46.9059706  54.3520832  15.4621816  46.1376810  54.2409039  14.9021804
  47.5841904  53.8194036  15.0468493  32.8198385  74.4085741  27.9407477
  32.1466708  74.3101406  28.6140895  32.6375318  73.7071371  27.3154640
  39.7815824  53.6088419   7.6972187  39.8496294  53.9799261   6.8175036
  38.8616610  53.3578730   7.7808040  55.0939913 103.2482631  89.7280420
  54.2422099 103.1471259  89.3032202  55.5392034 103.9223297  89.2145707
  44.0103531  41.3755798  36.2248206  43.6233330  42.0055199  35.6168556
  43.4719372  40.5898046  36.1304832  36.9924140  36.6342759  37.9859996
  37.9396343  36.7541766  37.9179573  36.8227816  36.5964627  38.9272904
  42.8337193  38.1006384  17.9156089  42.1481848  38.7177253  18.1714976
  42.9609680  37.5500941  18.6882281  39.5389366  36.6017461   4.5567438
  39.1830826  37.4261498   4.8883423  40.4021025  36.8339705   4.2143244
  58.9488363  21.7337775  25.4006052  59.1517067  22.3199010  26.1296701
  58.5185242  20.9828949  25.8095503  37.6515198  25.4649258  34.4607878
  36.9759321  26.0803080  34.1759777  37.3126483  24.6050692  34.2117023
  45.1604509  23.7008834  55.3094864  44.5278072  23.9705276  54.6436882
  45.9479237  24.2074561  55.1107311  68.8226509  36.2530279   1.5401085
  68.7709808  36.8602562   2.2782396  67.9420042  35.8843279   1.4711747
  52.9200315  16.8672407  17.7864754  52.6766300  16.6257465  16.8927920
  52.3605824  16.3244796  18.3420444  35.6215501  57.4330902   8.2680202
  35.0564718  57.7588844   8.9685750  36.2996888  56.9318104   8.7208802
  46.6100502  42.9388285  11.1780691  45.7548046  42.9849100  11.6054571
  46.9206715  42.0516682  11.3588822  73.7709089  38.8995535  89.9419858
  74.3781801  39.5998986  89.7033012  73.7027712  38.3622928  89.1527200
  24.2230511  36.2228251   6.8240094  24.2094231  35.9650302   7.7457404
  23.4389997  36.7608094   6.7141551  54.0798283  30.5038810  24.7265506
  54.8235846  30.1393986  25.2063513  54.4283247  30.6988502  23.8566232
  38.1366801  23.8236690   2.3736452  38.5440922  24.3561864   1.6905105
  38.0473852  24.4175959   3.1189704  95.7099052  92.7464969  88.6017036
  96.2252899  91.9481666  88.4864619  94.9750944  92.6466591  87.9964644
  94.7096892  14.8459126  87.8118813  95.2528926  15.3024508  88.4543261
  95.3135654  14.6214606  87.1039352  31.5694141  36.5228319  29.6655202
  31.6650271  37.1897388  28.9855742  31.7662477  36.9828272  30.4815459
  17.5481128  86.5349251  26.3632250  17.3306655  85.7055586  26.7887831
  17.9922342  87.0431727  27.0419526 101.1986251  40.9638626  89.2917995
 101.4793535  41.8136341  88.9522275 100.6535097  41.1768348  90.0492474
  45.8784532  93.3981305  21.1893296  46.7854165  93.6945003  21.1130047
  45.9310769  92.5982445  21.7124391  26.2016773  13.1250502  67.5060916
  26.3310146  12.6509406  68.3275080  25.2688359  13.0251242  67.3161936
  32.0655966  19.2771828  27.2392106  32.5663948  18.9451098  26.4941192
  32.7180028  19.7020912  27.7960324  57.6449056  90.3292687  77.2232056
  57.4104257  89.5010002  76.8046129  56.9477828  90.4808981  77.8613746
  40.9136438  39.6171808  33.2948995  40.8654404  39.1571069  32.4569011
  40.6474113  40.5138350  33.0915189  62.1252728  70.7669973  29.4718790
  62.7788830  71.1543322  28.8896489  61.3094711  70.8008051  28.9723182
  29.8408270  64.3869925  29.9889112  29.0267062  64.0425587  30.3560686
  30.5319095  63.9251614  30.4636216  70.3595705  68.0509241  81.0990703
  70.6902905  68.2078893  81.9835019  70.9406133  67.3793943  80.7417619
  48.1626606  40.5383396  32.8493047  47.2540855  40.7932568  33.0097437
  48.5211897  41.2503338  32.3194385  38.0153203  11.6567659  18.0411351
  37.3758602  12.2095442  18.4903109  38.5309839  11.2655413  18.7463069
  36.9700909  16.6895223  25.1404667  37.8890252  16.6612411  24.8740268
  36.8435884  15.8888972  25.6496119  71.2507458  75.3001721  84.4801199
  71.9097514  75.9396107  84.2098212  71.6900702  74.7699149  85.1449883
  60.0688219  29.6803212  51.5927696  60.6292152  30.4132557  51.8477154
  60.5058241  28.9083242  51.9523287  38.8563347  18.6814415  15.8545411
  39.3639803  17.8745925  15.9412730  39.2289639  19.1176701  15.0883269
  21.8243933  23.9740634  40.7229662  21.5495872  24.0405393  41.6374588
  21.1378670  23.4553051  40.3036737  43.1926966  18.9099038   8.2948369
  42.6709223  19.4401884   7.6925206  43.8834953  19.4998670   8.5964531
  23.5195088   6.8047935  34.3125677  24.1288972   6.6667092  35.0376964
  22.9129577   7.4722493  34.6332383  29.8514748  61.7421103   7.6846898
  29.8506784  61.8469429   6.7332482  30.7727718  61.6143990   7.9108083
  93.0087037  93.4170253  75.7285917  93.7006517  93.6186702  76.3584959
  93.1725879  94.0095670  74.9949229  21.0297799  13.0819046  49.8896408
  21.5091729  12.6709163  50.6090164  21.5574336  12.8958011  49.1129923
  37.0635128  25.3662205   4.5600387  36.5698385  25.9957647   4.0345010
  36.7921257  25.5414200   5.4610860  51.0667086  18.1642973   6.7825514
  50.8890295  17.3780966   7.2988343  52.0203543  18.1886709   6.7038119
 106.4643726  26.2778258  11.9766510 105.8446565  25.5485845  11.9964969
 106.2641224  26.7838144  12.7641201  37.2003889  19.1895080  -0.3615686
  36.8378901  18.4621358   0.1441555  37.4694300  19.8290765   0.2978247
  74.0055943  59.5190954  32.1956921  74.6266317  58.8331366  32.4406457
  73.2358503  59.3504763  32.7391052  14.9941349   8.6764997  37.7199125
  15.3190970   8.9881968  38.5645890  15.4881656   9.1797858  37.0727134
  72.9322624  19.3603241  44.2624235  73.7987852  18.9597261  44.1924620
  73.1078005  20.2708936  44.4996548  70.0088978  62.5024986  11.5535688
  69.6068811  61.9038296  12.1830225  69.6756697  62.2153616  10.7034266
  29.9384356  34.5300770   9.6017265  29.7558713  35.1314259   8.8797283
  30.7162976  34.8932910  10.0250900  26.4386462  81.9883066   8.7165201
  27.0896148  81.6708427   8.0906677  25.9468412  81.2065202   8.9678580
  54.8867702  36.8229270  16.2180471  54.4393110  37.0765972  17.0253038
  54.7816420  37.5775599  15.6386423  21.0312128  43.4463406  42.2515678
  21.6672206  43.2484484  42.9390001  20.6126165  44.2577791  42.5389338
  43.3259964  81.3357735   8.9361435  43.6306143  81.8019199   9.7146940
  43.2869339  80.4183102   9.2062777  53.4349489  40.2192163   5.6037235
  53.9753628  39.7653103   4.9570739  54.0412521  40.4380369   6.3113558
  44.2024279  75.0932741  14.9401903  44.9375153  74.5045710  15.1113820
  43.5382557  74.8397779  15.5811632  63.6388350  63.8411951  15.6784081
  63.7838888  62.9141426  15.4892814  63.0893135  64.1495132  14.9578536
  49.1438818  61.7456865  22.3955131  48.6533785  60.9671831  22.1317434
  50.0623560  61.4951038  22.2962713  22.6517105  51.6285467  31.1338186
  22.1071792  52.3813963  30.9037304  23.2922363  51.5706444  30.4248714
  42.2482443  55.2121401  21.1421180  43.1404352  55.0584126  21.4529157
  41.7567635  55.4441118  21.9300675  16.0585594  64.2510366  28.5428548
  16.5918899  63.4922838  28.3060288  16.2309444  64.8901653  27.8514576
  58.6014891  25.7741427  32.5192952  58.1130600  25.6500983  31.7054892
  57.9771519  26.1927462  33.1119204  20.8817767  57.4569241  90.2180447
  20.8777903  58.3938093  90.0219277  20.0611495  57.3069886  90.6874371
  99.6041675  89.1291220  68.7967992  99.9420495  89.1262181  69.6923757
 100.3507705  88.8667924  68.2582784  90.1632495  89.7874815  60.7408071
  89.2894216  89.4992406  61.0045719  90.6381650  89.8969824  61.5646362
  35.8700991  37.8708816  23.3973336  35.9621382  36.9253182  23.2804155
  36.7590570  38.1778336  23.5755682  24.3166494  69.7261667  51.2209320
  25.0104809  69.0739155  51.1239862  24.7594690  70.5663919  51.1019278
  70.8089638  62.8090239  29.2700720  70.8416748  63.1847191  30.1498532
  71.0610962  61.8935871  29.3910313  97.6327749  94.9364669  84.2244929
  97.1307798  94.2303188  84.6314192  97.9382415  95.4677112  84.9598145
  59.9312449  64.3571949   8.1620729  59.1313887  64.8693180   8.2811987
  60.6040430  64.8513937   8.6304194  88.4481330  99.8592956  84.8693424
  88.3432145  98.9078815  84.8748702  89.1129394 100.0230701  84.2004341
  42.0905113  87.9707527  11.0303259  41.1720896  88.2398224  11.0118711
  42.5046682  88.4848118  10.3371811  92.4732299  78.3932693  72.1557593
  92.2709556  79.3212492  72.0367277  91.7499204  78.0563743  72.6844895
  54.6249771  54.9547386  33.1962729  54.4458294  54.0760851  32.8614497
  55.5690861  54.9631357  33.3538127  44.1606617  76.8872404  17.9524302
  43.7464952  77.3771477  18.6628413  44.2839527  76.0072947  18.3084130
  92.5631615   5.3901602  80.8268464  91.6344281   5.3890778  81.0585475
  92.8142043   6.3136126  80.8479524 108.2218976  93.9290626  76.6399705
 108.7324567  93.6576946  75.8771348 108.6010356  93.4380443  77.3689342
  56.9645309  50.8869505   2.8832981  56.0886621  51.2466812   3.0235901
  57.5549555  51.6209745   3.0531034  39.6628618  36.0585070  19.7392547
  40.3414297  36.0129428  20.4128289  38.8452220  35.9031606  20.2120829
  56.0214853  39.9520135   1.8932985  55.7672787  40.8738899   1.9351780
  55.8160925  39.6874213   0.9966172  37.0296431  61.2355900  24.8477745
  36.4066672  61.9206524  24.6052408  36.9600034  61.1749029  25.8005071
  60.8223152  15.5096757   9.2789006  60.9431839  16.4033449   8.9579970
  61.5405607  15.0145364   8.8849574  91.9215055  86.4691622  89.6836412
  92.0193048  87.4181301  89.6053688  92.4254032  86.2400515  90.4645570
  47.6483488  48.3267879  33.7385368  47.1199512  47.8592110  33.0916977
  48.1850052  48.9269114  33.2207727  33.8649964  60.8719492  14.1627085
  32.9732752  60.8429003  14.5094395  34.3853521  60.3809404  14.7986114
  57.3440075  64.5378304  32.4616241  57.2415400  64.5951223  31.5116501
  57.9759216  63.8308048  32.5921559  13.9404154  82.0875359  31.3490772
  13.6004019  82.8302670  30.8500981  13.1592703  81.6211033  31.6465402
  45.0929308  32.9097843  46.7780781  45.6524324  33.6802888  46.8756294
  44.2221832  33.2118058  47.0365524  66.9514465  55.2543402  30.7670188
  66.8311262  55.2706051  29.8175502  66.8001986  56.1582851  31.0431314
  19.4539416  51.2076092  29.2416811  19.4197726  50.5481720  28.5487080
  18.6315632  51.0965490  29.7187495  90.8225580  69.6800513  87.7737805
  91.3662954  69.2574103  87.1089795  90.0501390  69.9812741  87.2953832
  49.6393871  26.2209654  27.3163772  50.5790758  26.3877010  27.3899674
  49.3406105  26.1304474  28.2212353  74.1829109  58.1352377  13.5149598
  74.8273468  58.3927059  14.1742349  74.6962214  57.9992533  12.7185607
  27.2855902  27.4737644  41.6892862  26.6582584  26.7508364  41.6814137
  26.9608378  28.0653143  42.3681307  63.0271912  56.6168118  37.8835821
  63.3279371  56.8453646  38.7630963  62.3789883  55.9266186  38.0239201
  48.0402565  46.8122435   3.7103942  47.4038124  46.7008638   4.4166297
  48.0917883  45.9507704   3.2963455  51.7125559  40.4472017  37.8931713
  51.6450787  40.6565714  36.9615912  52.2773647  39.6750474  37.9248214
  76.0568618  15.5907608  91.2068060  75.9834281  14.7240807  90.8071804
  76.9066115  15.5801751  91.6473114  30.8399534  57.0731831  21.9834995
  30.1663518  57.2273159  22.6458716  31.5255451  56.5918016  22.4466085
  56.8866873  61.5922928  31.4869690  56.8659639  60.9561586  32.2019076
  57.3912287  61.1610794  30.7972407  24.8262763  46.9549513  50.8236074
  25.3387904  46.8763065  50.0190115  24.5621586  47.8746033  50.8504200
  53.6133289  20.1367855  22.1502686  53.5639381  20.8713555  22.7619886
  52.9412460  20.3250051  21.4952064  55.5454397  43.2254601  41.4218044
  56.0094166  42.3888159  41.3904333  55.6289959  43.5790253  40.5362272
  72.6736498  52.4832439  16.1396337  72.7626228  51.5552473  16.3567400
  72.4143839  52.4898767  15.2182400  29.8459697  40.0203180   9.0984434
  29.9318123  40.9096909   9.4417840  29.1307974  40.0762272   8.4646970
  31.6889310  45.5101299  18.6736000  30.7338023  45.4864359  18.6152804
  31.9226050  46.4017487  18.4154534  65.3804250  85.1383455  70.7525349
  64.7707816  85.8430512  70.5335426  66.1332412  85.2864225  70.1801944
  79.4368315  43.0343723   8.2139194  80.2152443  43.2828331   8.7124890
  79.0922737  43.8623905   7.8794014  60.1317739  10.6573486   6.0548288
  59.4758511  10.3207648   5.4443324  60.2780485  11.5609729   5.7750088
  57.4691196  93.0899198  87.6488119  57.0939513  92.9253490  86.7837119
  56.8792792  92.6416142  88.2549006  60.4495096  49.8310661  20.7808185
  59.8756552  49.5682812  20.0611877  59.8993635  50.3831387  21.3365030
 110.2468248  95.9419925  62.5830531 109.8499246  95.1306302  62.8998923
 110.6360193  95.7054098  61.7411566  51.7754889  50.7754564  27.1505117
  51.8653297  51.7141438  27.3149133  51.6836882  50.7064390  26.2002277
  79.3107319  86.0600948  28.7049699  79.4472218  86.3507271  29.6067119
  79.0386581  85.1460075  28.7865233  63.7282610  38.6630821  24.6574783
  64.5314360  38.1643128  24.8070669  63.0333948  38.0047655  24.6607637
  31.2868118  29.5190334  10.0219941  31.1528778  28.6370564  10.3689969
  31.9565320  29.4115472   9.3466043  70.0057741  97.6153428  66.7941737
  69.1048045  97.3188360  66.6654491  69.9186535  98.5073001  67.1304131
  49.3516159  16.0446525   2.1767315  49.1371727  16.0608220   3.1094611
  48.5279179  15.8170521   1.7455071  32.0743728  52.4612045  18.0840099
  32.4942136  52.7999592  17.2933054  31.5052009  51.7583132  17.7706122
  42.1885014  66.7327881  30.6756902  41.6072941  66.0074902  30.9045482
  42.9217863  66.6537952  31.2858438 104.7827148  56.6688776  20.8279705
 105.0846767  57.1971941  21.5668392 104.6773911  55.7890081  21.1898637
  88.4051800  43.4068346  16.5150440  88.7719822  43.5327721  15.6399286
  87.8449917  42.6352167  16.4311755  86.0364246  35.8462405  18.5636580
  85.7211018  36.5102601  19.1767514  85.8753395  36.2231445  17.6986575
  35.2532125  67.0536184  17.1602261  35.3958035  66.2244797  16.7036855
  35.2222395  67.7087069  16.4629948  79.5989652  94.3562610  88.6956483
  80.4565282  94.6463640  88.3847582  79.0045686  94.5448406  87.9694504
  42.3202181  78.4829712  24.6122336  42.0090675  77.8198576  25.2284265
  43.0449724  78.9116335  25.0674486   4.0986967  62.5311995  11.7511177
   4.7359371  62.0061588  11.2668765   3.5017303  62.8622103  11.0800779
  59.5166969  43.4525156  18.1572282  59.4021034  44.2910719  17.7100956
  60.0437975  43.6622477  18.9282084  21.3692856  52.1139050  35.8771348
  21.7885375  51.6471624  35.1542163  21.5160155  53.0394077  35.6818223
  37.2368383  57.2900724  13.3176911  37.9718709  57.1837568  13.9215589
  36.6364169  56.5797234  13.5438108  43.8338709  70.4573154  18.5038006
  44.5611954  70.2307749  17.9242194  44.2176294  70.4579353  19.3807054
  60.2481651  68.4550190  16.6015303  60.5984497  67.8041983  15.9932828
  60.6808281  68.2626772  17.4334204  64.5412779  70.2551079   9.2485338
  64.0197706  70.6802273   8.5676992  64.3438244  70.7485485  10.0446236
  40.2168179  29.8470235  31.2126780  40.9223843  30.1394367  30.6357026
  40.4981232  28.9840746  31.5166831 103.5377641 100.9187992  91.0633223
 103.3589168 101.1985977  90.1655705 104.4426914 101.1873491  91.2221146
  20.6529021  60.4839706  35.1761246  21.2649202  60.0905466  34.5541239
  20.4754782  59.7888470  35.8098102  37.3926401  81.8249130  32.2271371
  37.9029799  82.6047230  32.4455118  36.6022873  81.8983555  32.7620983
  15.4680538  69.7542334   1.5201558  15.7949567  70.1557302   2.3252437
  16.2565196  69.5473862   1.0183926  48.0890560  91.5269279  18.6978590
  48.2401752  91.4323235  17.7574098  48.8172770  91.0583973  19.1057861
 100.3076172  30.3351879  25.7785869 101.0105419  29.6861720  25.7484651
 100.6132126  31.0455942  25.2145290  86.2549348 103.4012992  72.8104591
  86.5670200 103.2755716  73.7065756  85.3008218 103.3778913  72.8836226
  53.6989784  61.6653824  21.5552187  53.4470224  62.5887489  21.5672970
  53.6204052  61.3837337  22.4666619  75.6446977  69.1153080  90.4709978
  74.6939750  69.2242594  90.4931423  75.8917590  69.3488223  89.5761999
   1.8641137  81.0862906  84.7953087   2.1436594  80.7785685  85.6575114
   2.3169659  80.5121238  84.1776609  54.2622566  67.1596718  17.9343355
  54.6625996  68.0283737  17.8980744  54.7559452  66.6964912  18.6110687
 100.5323263  81.3075454  73.3051407 100.3488632  82.0837576  72.7759230
  99.6973415  80.8411295  73.3437061  29.1720485   2.7417733  77.4994469
  30.1231241   2.8482844  77.4810016  28.8322210   3.5616852  77.1409965
  19.5384729  68.0750895   8.2379913  19.6946812  68.3174801   9.1507220
  20.3630757  68.2717133   7.7934682  61.8369480  89.0213544  73.6405396
  62.4575348  88.3276160  73.8637674  61.7958851  89.5676596  74.4254577
   4.8148298  20.1025177  75.1419044   4.8171520  19.7381188  74.2567813
   5.7405185  20.2221276  75.3541064  42.1413421  13.3561160  76.0167432
  42.5605678  14.1953970  76.2067139  41.7650985  13.4684826  75.1437902
  50.2443457  59.7157288  25.4235697  50.2559662  59.0945578  26.1517501
  49.9329329  60.5335760  25.8113551  40.5539894  75.4486370  10.7730567
  41.0270929  75.3532982  11.5996861  40.8737803  74.7284603  10.2296269
  28.5203028  46.8017101  33.9782977  28.2401276  46.0944891  33.3972859
  28.1397843  47.5918102  33.5946536  37.7958131  54.9136114  36.3746071
  38.0888939  54.8328018  35.4669714  36.8406105  54.8818541  36.3215852
 103.5561080  92.5398691  72.9542923 104.0393253  92.0801265  73.6408567
 103.6470600  93.4663970  73.1767845  86.8998332  91.6647036  90.4010126
  87.6694007  91.8599136  90.9356980  86.2284417  91.4069087  91.0326833
  68.8328691  70.1493211  83.9027035  68.8196297  70.3917916  82.9768175
  68.8423152  69.1921730  83.8995236  89.0787697  60.8138084  36.4190245
  89.2788601  61.6719580  36.7928910  89.7435951  60.6864834  35.7422471
  36.4944148  61.3153410  10.3130877  36.7628908  60.9612179  11.1608768
  35.5560017  61.1331892  10.2637541  61.9575548  54.6464872   7.9939973
  62.6246929  54.1907740   7.4806929  62.3410559  54.7273540   8.8672787
  52.1358395  22.4363136  10.9877920  52.3530769  22.4748588  10.0563657
  51.6931868  21.5945220  11.0958552  41.3983679  71.3900661  21.3357067
  41.3382769  71.3257742  20.3825593  41.7944479  72.2470760  21.4934564
  68.4310484  29.0550208   8.8795596  69.1070604  28.4109974   8.6686647
  68.9169836  29.8533583   9.0863389   9.2088979  58.2783842   0.8394937
   9.2116523  59.2331409   0.9077927  10.0666893  58.0619287   0.4740179
  28.2021022  37.6248908  51.9763708  28.2976913  38.1554651  52.7673101
  28.5064459  38.1929827  51.2686443  32.5578332  65.1599312  33.5423279
  31.8483973  64.8398733  32.9851055  33.2295728  64.4801092  33.4890032
  51.7913628  88.5253429  29.0886307  51.1317301  88.3352757  28.4215546
  51.5828323  89.4108963  29.3861914  33.5434961  43.3338286  87.8042755
  33.4741925  43.1794001  86.8621600  34.1452455  44.0741469  87.8820065
  39.1601229  64.1609573   4.9914065  38.5521865  64.5721912   5.6058407
  39.4961071  63.3978128   5.4614741  67.8916311   0.6765801  34.0924191
  66.9701481   0.4177818  34.0813875  68.3641243  -0.1288868  34.3026710
  38.0295324  64.3286848  27.0502067  37.6341939  63.4624052  27.1476412
  37.3359370  64.8669815  26.6688943  58.6525774  29.0742779  31.1936927
  58.9595032  28.7043667  32.0214558  58.8880110  30.0007391  31.2434506
  58.3042192  48.9683008  30.0272274  57.4777508  48.4854984  30.0179935
  58.3906031  49.3122911  29.1381598  51.0587168  55.5532646  16.1946309
  51.7469168  56.1336279  16.5198815  50.9919548  55.7598543  15.2623785
  56.5735674  32.7791786  32.6836681  56.0612965  33.5748863  32.8273940
  57.1894073  33.0129719  31.9891787  53.1626320  85.5205917  36.1925840
  52.8923035  85.1645088  37.0389652  53.3151197  84.7496700  35.6460810
  78.9150667  75.8668137  36.4767861  78.3195734  75.5043936  37.1327376
  79.4955778  76.4438152  36.9730806  51.9847727  52.5351048   8.8814849
  51.5818882  53.2075596   8.3321953  52.6525879  52.1377516   8.3225906
  50.3551865   8.6931318  24.8058271  50.9437466   8.0212587  25.1499438
  50.6277657   9.4984102  25.2456689  67.8790903  31.9964147  26.1307168
  67.4338865  31.7706800  25.3139734  68.0729103  31.1526227  26.5389800
  57.1630187 104.8518093  88.6331019  56.8095322 105.7274921  88.7894732
  57.4104567 104.8549993  87.7084422  84.8462296  40.7295704  11.1550093
  84.3926907  41.3991356  10.6429386  84.6886253  40.9771967  12.0660937
  23.3567190  45.9985399  33.0036283  23.9777088  45.2746344  33.0846763
  22.8438544  45.7879257  32.2233438  92.2781563  52.8344870  12.0629108
  93.0055046  52.4642181  12.5630081  92.6981831  53.3740377  11.3930643
  34.0896368  22.4644160  20.7651305  34.6123195  22.3988032  21.5643382
  33.1925511  22.2915792  21.0507774  96.0852046  82.9220183  66.5236807
  96.5755220  83.4777934  65.9179306  95.7660337  83.5239203  67.1960497
  50.3411818  40.3910971  18.2509291  51.1763430  40.7703876  18.5245740
  49.8504400  40.2797651  19.0651810  78.6727662  88.5474999  62.7265978
  79.1687436  87.7840454  63.0221868  79.3108840  89.2609579  62.7230096
  50.9298229  87.7388668  49.8952627  50.5901814  86.8635941  49.7087622
  51.4538813  87.9613972  49.1258001  52.1956921  46.7694330  30.3650236
  51.7235947  47.4979305  29.9617267  51.7131853  46.5886211  31.1716986
  50.0593996  34.7100282  12.2022891  49.5290184  35.3941345  12.6108599
  49.6866465  33.8910103  12.5286317  23.2264709  58.6098719   0.6071029
  23.7510633  59.1281843  -0.0031312  23.4155536  58.9875078   1.4660962
  85.3825994  84.7511585  84.0033478  85.5030008  84.7426994  84.9529076
  86.1725517  84.3352659  83.6580414  54.7553682  59.4293356  32.3260975
  54.2910957  58.6556864  32.0064926  55.2820253  59.7175980  31.5805984
  31.8191719  35.6479812  26.2573624  32.3390889  35.3908896  25.4959011
  31.3533878  36.4349866  25.9746933  53.0689812  62.2795868  28.5164475
  52.2144079  62.6368523  28.2749987  53.1225872  61.4479065  28.0456352
  55.6547737   7.0162076   0.7891998  54.8597479   6.8729323   1.3026591
  56.0156298   6.1395723   0.6568192  34.6039200  56.9223976  26.1640167
  34.3726826  57.6375484  26.7567396  34.2195439  57.1736240  25.3241515
 106.0882516  88.1066496  75.2905750 105.6881233  88.3023507  74.4433272
 106.5615936  88.9057310  75.5221987  86.8081760  11.9587255  53.7693739
  87.3517799  12.0153189  52.9835510  85.9197903  11.8295050  53.4372520
  92.8816409  65.6986601  62.4133182  92.4305101  65.8531613  63.2432842
  93.0442949  66.5742762  62.0625019  15.9067010   7.0352913  88.1491160
  16.7823457   7.2642781  88.4606311  15.6139707   7.8088881  87.6673597
  69.3840647  10.0210190  23.6543322  69.9887848  10.3625274  22.9956102
  68.6226559  10.5988193  23.6029434  27.0448160  81.0937786  13.4967089
  26.9640470  80.1399994  13.4929729  26.2191463  81.4026070  13.8697076
  60.4605532  47.1844292   4.8753801  61.1142635  47.4394560   5.5264217
  60.9565020  47.0903444   4.0621069  39.5127058  60.8119440  21.1048675
  39.3297029  61.4940691  21.7509699  38.6674404  60.6434727  20.6884813
  49.3909454  68.7332344  68.3407307  48.5727644  68.7003469  67.8450155
  50.0602674  68.4513855  67.7171946  13.0746865  78.3892965  21.5918446
  12.8439796  79.1435289  22.1341968  12.5643194  77.6665688  21.9571066
  11.2149870  59.0817642  11.5415359  11.3982880  59.9753809  11.8314910
  11.1706841  58.5718441  12.3503959  27.8982925  15.2456522  42.5653124
  28.6266828  15.0479591  43.1540394  27.6823425  16.1596990  42.7500105
  54.2020512  76.4531374  10.6412971  54.8602915  76.3904285   9.9491882
  54.5871925  77.0477724  11.2849629  37.7372813  70.5417633  12.9966903
  38.3196211  71.2161827  13.3463597  36.9668460  71.0232925  12.6953793
  71.8023872  41.2603188   5.9642333  71.3780689  40.6333780   6.5500063
  71.0783863  41.7399740   5.5617625   5.6083280  43.4848452  56.6501045
   5.2728969  43.8741684  55.8425474   6.2466824  42.8352022  56.3556528
  62.1442080  17.8005826  18.9721775  62.2426701  18.7420571  18.8301826
  63.0231857  17.4999464  19.2029369   9.3142706  54.9965906  15.6631827
   8.3776647  55.0236034  15.8588123   9.7244298  54.7428894  16.4900064
  56.8458748  76.7223406  12.9706836  56.3502216  76.0746527  13.4717429
  56.2937450  77.5042200  12.9776442  44.6701336  41.3202095   4.8050955
  45.5006456  41.6263199   4.4407132  44.0455914  42.0141172   4.5937285
  40.1365948  49.2523956   7.1878111  39.9504757  48.3176279   7.2761357
  39.7306490  49.4999838   6.3570648  49.4755459  57.2084570   3.8384587
  50.2987480  57.3080397   4.3166426  49.6153212  56.4457512   3.2772315
  22.4293685  60.6573248  17.4077427  21.9299102  61.2271023  17.9926562
  23.3439875  60.8194113  17.6388907  76.3044567  95.4864509  77.8404403
  75.7305975  96.1347062  78.2487059  77.1189518  95.9600980  77.6716709
  48.6488485  52.4929810  19.1806328  49.0508509  52.5837708  18.3166969
  48.8151360  53.3314037  19.6114850  62.4864912  17.4745536  59.4768095
  62.3869085  16.7626357  60.1088619  63.3001947  17.9093027  59.7319698
  47.8045034  56.9922209   8.1467837  47.6435423  57.5073719   8.9373183
  48.4362316  56.3266468   8.4191203  61.5206480  30.3501344  16.3389146
  61.2297630  29.6923828  15.7072651  61.7818928  31.0984802  15.8022940
 111.6908070  10.6298329  65.0601768 111.3515755  10.9417225  64.2212033
 111.9416758  11.4262940  65.5280924  17.1303415  14.2627407  71.9563138
  16.5921926  14.9650217  72.3215890  18.0313491  14.5437218  72.1158910
  47.6675177  50.4367018  14.3250167  47.3265457  50.2788353  13.4446478
  48.3285856  49.7560883  14.4514430  50.2263021  42.7499247  25.0042629
  50.1010656  41.9992018  24.4237781  50.9516621  43.2367945  24.6130610
  85.2814865  44.9037743   7.0189762  84.7997475  45.1206350   6.2207687
  86.1134148  45.3688383   6.9304574  84.8809433  54.3268824  41.4623642
  85.7242393  54.4792700  41.0359240  84.4747066  53.6296606  40.9474945
  87.5782299  41.6127396  13.0985856  87.0591545  41.4771414  12.3058689
  87.7028942  42.5606966  13.1440139  77.3250628  15.9472322  23.0756307
  77.8979492  16.6323113  23.4201550  76.7534590  15.7215202  23.8094926
  69.3934770  93.8301141  87.0844170  68.8949843  93.7957961  87.9008487
  69.2861648  94.7298581  86.7759094  39.3514872  42.9368591  28.1562757
  38.6741209  43.4257746  28.6235785  38.8699055  42.4113941  27.5173759
  60.2091312  96.4337635  44.5100164  59.5570660  95.7710838  44.7378302
  60.9975576  95.9324074  44.3020058  72.8005238  77.9211886  65.1939154
  72.1315451  78.2295091  64.5826530  72.3115416  77.6704819  65.9776711
  83.3418794  95.4696615  52.3068547  83.8632245  94.8649557  51.7788720
  83.7648340  96.3196809  52.1851730  66.8763256  10.1074231   9.5973152
  67.2039318  10.6534171   8.8826126  66.0196686  10.4784071   9.8088312
  66.2472153  36.9504952  17.9389656  66.0942316  36.0107851  17.8401089
  65.5155993  37.3619699  17.4789047  49.4352770  48.1260633   7.7516091
  49.8031902  47.8340864   6.9175690  49.0209579  48.9650679   7.5500119
  52.8285646  41.6562653   9.1533655  53.1827402  40.8107948   9.4289941
  51.9057417  41.4808607   8.9693522  97.1148057  84.0237172  74.2138374
  98.0047841  83.6779673  74.1458237  96.9660278  84.4680269  73.3791602
  66.2810946  37.3531580  31.3422751  66.6414928  37.0154691  32.1622205
  66.4841938  38.2884216  31.3585830  37.7184486  82.4638653   4.3985718
  37.3789001  81.5789032   4.5319211  37.3798084  82.7237606   3.5418293
  73.3996010  75.5072355  15.8118415  73.6326599  75.5560637  14.8847330
  72.5366688  75.9181929  15.8638453  43.5592200  97.9284770  81.5062630
  44.2867978  98.4343059  81.1443222  43.6929829  97.9606397  82.4535245
  37.5381565  43.3536816  25.6674337  37.6682758  42.4089241  25.7495046
  36.6151333  43.4488106  25.4324651  86.2245560  38.4050632  10.3448629
  85.5972576  37.6875210  10.2561808  85.7255459  39.1097808  10.7578862
  28.7216949  21.7296912  69.1583824  29.2745208  22.4927832  69.3266129
  28.3532333  21.8878056  68.2892060  45.1302242  50.5693245  31.9767976
  45.7049417  49.8596621  31.6898966  44.3408298  50.4680967  31.4449716
  80.7410717  50.9926319   1.8352167  80.2679443  51.8132973   1.6977710
  81.1221790  51.0793304   2.7089852   6.7693423 104.9800498  85.4071069
   6.9020651 104.0989263  85.0574756   6.6609763 105.5314071  84.6321917
  86.1838531  37.3450541  48.4806776  86.7459011  38.0210924  48.1021166
  85.3162956  37.7478290  48.5175180  92.2603226  20.6423640  11.1660540
  92.6507187  20.4404259  10.3157330  93.0084991  20.7559800  11.7521882
  46.4553213  29.4291139  34.1035557  46.2234402  30.3252625  34.3472409
  46.1252117  28.8920116  34.8238230  43.9723396  51.9589567   8.3034253
  44.3038321  51.3407469   7.6521510  43.0564928  51.7092419   8.4263271
  43.6636019  72.9243708  12.5965440  42.8712606  73.3341646  12.9436779
  43.9756584  72.3654413  13.3081961  43.9068492  91.2664945  90.9588585
  43.9514740  90.8651860  91.8267252  43.0276747  91.0574968  90.6432574
  98.3913656 102.7783878  89.7033519  99.0957208 102.1323879  89.6504132
  98.1027074 102.7438123  90.6153350  73.3297777   7.2344160  52.5060654
  74.2708397   7.3968685  52.4408865  73.2164717   6.3450265  52.1708393
  45.9360361  47.5537968  35.7874489  46.3161516  46.8943071  36.3678050
  46.6901016  47.9599762  35.3600883  22.5112772  71.3592100  29.4234896
  21.8872929  70.8375311  28.9187837  22.3762870  72.2561073  29.1175747
  57.3110104  53.7229967  25.1359224  56.9059706  53.4801674  24.3033314
  57.2077847  54.6733856  25.1843166  58.1794930  32.5347090   8.6170107
  58.8565969  33.1131005   8.9680445  57.5305033  32.4727201   9.3178701
  62.8934240  74.2841196  50.8067465  62.2657394  74.5120239  50.1209593
  63.6915827  74.7549629  50.5669880  57.5735140  87.6291466  45.7310915
  58.1993437  88.3467197  45.8293629  57.2388077  87.7236843  44.8393154
  29.8659467  20.3019835  86.3270110  28.9986228  20.6231762  86.0803926
  29.7827100  20.0744702  87.2530466  65.1045799  54.8332167  34.0347195
  64.2205667  55.1205873  33.8063121  65.6775236  55.5070210  33.6687231
  56.4671659  63.7833166   5.5770540  56.8996477  64.4356251   6.1281329
  55.8165598  64.2813206   5.0821394 109.6798225  90.7834585  61.8492770
 109.6772046  90.5649836  62.7812076 110.5778976  91.0627515  61.6712689
  50.2906275  49.4118452   0.9912077  50.7572556  50.2471304   1.0194232
  50.9195709  48.7745857   1.3296767  73.3678532  69.8334408  10.7949817
  73.6545753  69.0202093  10.3794348  73.3365965  69.6269989  11.7291319
  50.5512238  71.6571617  11.9591796  50.7560968  70.7245111  11.8927169
  50.6969929  71.9978905  11.0766339 102.4116417  12.9436089  77.2375560
 102.6737615  12.1262862  77.6612401 102.3982426  12.7355362  76.3033414
  77.8603649  56.9664097  18.3944285  78.2185364  56.5516567  17.6096177
  77.4349308  56.2526464  18.8695955  32.3274039  29.1148402  67.4114990
  33.0891608  29.5167185  66.9938254  31.9907712  29.7921492  67.9981494
  71.3169909  67.3150444  15.7461429  71.5339804  66.8961954  16.5790379
  70.3767538  67.4856520  15.8016348  68.5980129  56.9923925  40.4649401
  69.2672348  56.3628006  40.7332373  68.9725542  57.8464985  40.6804705
  67.0299768  39.9919868   7.1817654  67.6368427  39.4575620   7.6939535
  66.5712404  40.5235481   7.8323299  20.3958321  38.7918735  18.5006261
  20.2510118  38.3024454  17.6908612  19.9683249  39.6350551  18.3505774
  68.7652206  50.6120968   1.3610817  68.3760691  50.2065420   2.1358848
  69.6738100  50.7813978   1.6101494 109.3736745  10.1421470  43.6925697
 109.5849229  10.0405139  42.7645159 109.3492223  11.0890693  43.8303375
  59.3974638  71.9101381  34.7561026  58.6360407  72.3835325  35.0913167
  59.0384674  71.0924721  34.4114637  75.8892393  44.9863911  19.9371278
  76.1400414  45.2575016  19.0540481  76.6872311  45.0906134  20.4553723
  74.0710016  90.2802784  50.8464479  73.3119531  89.9797828  50.3466654
  74.3322797  89.5197399  51.3656282  60.9330606  65.4195309  33.3068228
  61.7221212  65.3398943  33.8428020  60.6956720  64.5168829  33.0944395
  83.3027744  61.2359762  39.0843415  82.9886913  60.9560251  38.2245708
  82.8357983  60.6755400  39.7040772  62.1634960  83.4904861  38.2133317
  62.8757429  82.9035282  38.4671497  62.5855970  84.1610622  37.6763153
  86.0761929  52.4873352   7.4211848  85.1306057  52.5944090   7.5243294
  86.2859821  51.7060089   7.9328054  68.2133245  52.4951601   8.5074359
  67.7657747  53.0508947   9.1454715  67.5107002  51.9991446   8.0872923
  57.6544809  66.3797760  25.1241040  57.4432182  65.7421207  25.8060074
  58.1375837  67.0681381  25.5812669  68.6291933  85.9845161  35.9505296
  69.0801573  86.8108749  35.7773304  68.0620718  85.8571720  35.1900101
  85.3712030 101.4463384  81.2522686  85.7766242 101.6627843  82.0919204
  84.6290393 100.8870799  81.4817411  35.7110190  56.5709257  30.4513836
  36.5246487  56.2466717  30.0652552  35.0475907  55.9365940  30.1798677
  72.4455166  75.7668209  21.3156915  72.1625948  76.3917112  20.6480789
  71.6875219  75.1972866  21.4472318  81.6252708  86.7369652  26.3777781
  81.0638142  86.9117451  27.1330571  81.4468384  85.8238220  26.1528993
  70.0713968  47.1891212  19.8797703  69.8312378  47.3792791  20.7866311
  69.5879459  46.3910389  19.6662843  67.2168732  92.3967361  19.3358624
  66.6752195  93.1530380  19.1103375  67.3857641  91.9648647  18.4984910
  74.0834951  73.0651236  12.6619625  73.7587452  72.5415707  13.3945334
  73.3157635  73.2029009  12.1071339  60.3834581  40.0128222   8.9923590
  59.8259211  40.6726742   8.5800755  59.8887300  39.7272635   9.7604316
  64.4533396  66.3134813  46.0683727  64.9082136  66.7615652  46.7814970
  63.7430429  65.8377075  46.4988995  65.4860878 102.7531910  52.7044106
  65.0805187 103.6186600  52.6524544  65.1813126 102.3955345  53.5383320
  51.9098663  73.7217712  30.0617862  51.6587734  74.5907593  29.7486687
  51.7595768  73.1447220  29.3130159  75.0541019 105.1308537  31.7273808
  75.9503412 105.4661751  31.7508292  74.9442387 104.8032093  30.8347392
  58.3578300  40.7623529   6.9231772  58.4541368  41.5949535   7.3854899
  59.1023111  40.7345963   6.3221693  77.5974131  77.4837828  43.8010168
  77.1604776  77.4646425  44.6524572  77.2653723  78.2762671  43.3791780
  36.5332294  87.0585918  21.8108511  36.9624329  87.6012993  21.1494279
  36.4760828  86.1916733  21.4090633  78.1155729  66.6580772  15.1670694
  78.8319731  66.7187977  15.7989860  78.3445072  65.9091425  14.6166909
  60.8399391  54.2715216  38.1622505  60.6367350  53.8996840  39.0205503
  60.5457020  53.6081409  37.5380850  50.4475212  52.1196938  35.2979565
  51.1278152  51.7560387  34.7312260  50.1543903  51.3776302  35.8267760
  40.4621553  41.8620682  36.2363935  41.2049055  41.2609243  36.1800718
  40.3066683  41.9633484  37.1754360  36.5174270  70.5344534  26.5614247
  36.1767077  69.7432613  26.9787455  37.1037793  70.2109623  25.8774829
  61.4822721  52.2828150   2.4390258  60.6800938  52.6798296   2.7783161
  62.1737862  52.6117611   3.0133373  77.3943949  59.5239782  30.4968214
  77.5157785  58.5773277  30.5700135  77.1223402  59.6611166  29.5894027
  59.3008804  85.0671673  52.7101564  59.6128082  85.9067917  53.0477381
  58.3599615  85.1930237  52.5874233  56.9977427  62.0294571  13.4908700
  56.0526514  62.0382404  13.6423695  57.0911312  62.1855164  12.5511062
  83.1831837  80.0080013  18.4006226  83.3813286  79.2407799  18.9375949
  82.9006195  79.6460342  17.5607622  72.8930187  86.5574265  48.5374594
  72.1176100  86.6622353  47.9861116  73.6195707  86.8495941  47.9870081
  73.3111525  53.3854580  21.3080049  72.5642824  52.9662609  20.8805776
  73.2446623  54.3067646  21.0570049  54.7945165   2.7472140  64.6657848
  54.0316819   2.7587153  64.0877032  55.3584241   3.4449984  64.3321156
  52.1127129 102.0526600  20.3201461  51.9251966 102.8601837  19.8416293
  53.0683422 102.0004749  20.3367090  66.1932468  73.6844778  40.5156708
  66.0941792  72.8273058  40.1013327  66.0704327  73.5146666  41.4496469
  72.0657110  51.4352846   7.6875448  71.5933752  50.6027794   7.6955104
  72.0127058  51.7493820   8.5901892  48.6932278  49.9892473  37.2830772
  48.6636066  49.0366220  37.1944332  49.2405176  50.1411963  38.0535412
  74.6386623  64.7181892  24.5204139  74.4380760  63.8145256  24.7641110
  75.1012802  64.6441031  23.6857128  77.9804420  33.2250953   5.8369493
  77.7344561  34.1272759   6.0413891  78.3621645  33.2736635   4.9605018
   5.2609443  14.9469830  88.0550575   5.3581666  14.2332436  88.6854187
   5.3468608  15.7430912  88.5795203  84.8871517  72.5319147  11.9972348
  84.3169308  73.0016994  12.6058292  85.5220890  73.1877422  11.7091870
  73.7000465  46.3896561   8.8979310  74.4753122  46.6265297   9.4069356
  74.0012503  46.3883591   7.9893577  56.5777731  62.7589607  20.5332899
  57.0361567  62.2947884  21.2337589  55.6584930  62.5181246  20.6479740
 107.6425000  17.0557667  77.8414953 107.0578762  17.4894215  78.4630990
 108.5064407  17.4226023  78.0293035  38.7084627  84.5942688   8.0625892
  38.1578231  84.8926544   7.3387164  38.6255503  83.6407566   8.0493265
  51.3034725  79.8013687   7.1301162  51.2277365  80.7074165   7.4294066
  50.5637693  79.6833563   6.5341800  21.1650800  43.3143069  90.0762337
  21.5862512  43.1381728  89.2349112  21.8808173  43.2932211  90.7114527
  44.5087337  86.6813469   4.5922920  45.4058218  86.6918182   4.9259818
  44.1506290  85.8465576   4.8941600  19.8675727   4.4436146  83.7890398
  19.4223499   3.7054182  83.3730209  19.3193483   4.6597411  84.5433390
  52.8898907  38.2314682  22.5505972  52.9213238  37.7216172  23.3600998
  53.4532547  38.9863372  22.7209496  80.3341770  35.4969430   1.4810057
  79.8467636  36.3177347   1.5515031  80.8652210  35.4646301   2.2767311
  42.2120571  70.7694626   6.1781180  41.8089628  70.1590919   6.7955273
  43.0582237  70.9836626   6.5709984  61.6321325  54.4514847  42.2249508
  62.3685551  53.9063787  42.5020313  61.9406652  55.3496695  42.3445320
  55.4256201  63.1975698  23.6883736  55.8787870  64.0237999  23.5204101
  56.0826921  62.5240183  23.5128117  95.2862735  95.8706005  71.3578427
  94.8674674  95.7884700  72.2146320  94.5637985  96.0406740  70.7534122
  53.8362455  75.1485395  31.2382460  53.1563044  74.4748116  31.2385201
  53.9909744  75.3330517  32.1646619  79.3173456  68.4846210  20.2785754
  80.2360821  68.5339546  20.5426288  78.9823580  69.3715858  20.4101634
  32.7201556  42.3779799  75.5997312  32.0351886  42.9660727  75.2816176
  33.5383271  42.8321577  75.3983736  15.2306842  18.3902336  86.6341490
  16.1528444  18.6441828  86.5973008  14.8908233  18.8342978  87.4110216
  74.9122000  69.5472193  46.3680172  74.5024300  70.0283194  45.6490898
  75.6406784  70.1034737  46.6439390  81.2387276  52.5397110  22.0073652
  80.5079937  52.7096510  21.4129090  81.6223240  53.4018564  22.1679688
  55.8295155  72.5902367  30.0192952  55.5547047  72.3945189  29.1235256
  55.7064199  73.5354757  30.1064730  76.2706137  72.8164482  20.7921410
  75.6100702  73.0690336  21.4372087  76.3507366  73.5796070  20.2199531
  54.7968864  49.7023916  36.5370941  55.4249334  50.4206657  36.6137362
  55.3064871  48.9759111  36.1782551  66.2459517  62.5727510  38.5317492
  66.7812681  61.8454790  38.2143450  66.5641546  62.7345896  39.4198847
  58.5551977  75.1614380  38.2761431  59.0820265  74.4691849  37.8768063
  58.7929678  75.9525347  37.7925491  58.8470984  72.8427362   0.5524566
  59.5681572  72.2526836   0.3330282  58.9709425  73.5969257  -0.0238224
  61.9822741  74.9211884  30.6742978  61.8363428  75.6531763  31.2735701
  61.1679602  74.4191170  30.7067013  66.6534328  64.0887833  46.1601830
  66.2629461  64.9469757  46.3252878  67.5272512  64.1448450  46.5468788
  51.9516563  66.4604378  28.1471753  51.2161541  67.0564985  28.0058169
  52.0809364  66.0343838  27.2998285  62.7598238  57.8283405  25.5114317
  62.3672915  58.2517862  24.7479868  63.2401562  58.5286140  25.9531665
  67.4858999 101.5226173  48.9934587  66.8394566 101.4557171  49.6962166
  67.3356962 102.3873043  48.6113787  34.6729684  67.1151924  13.0092406
  35.1880550  67.3808956  12.2474551  34.2303896  66.3132763  12.7312374
  20.1328992   4.3074919  48.4942293  19.3210315   4.7982146  48.6218786
  19.8587369   3.3905150  48.4795856  57.8544950 100.4368973  19.6679962
  57.5823832  99.7218800  20.2432752  58.7679052 100.5994415  19.9035549
  58.0018711  58.6147642  21.7363501  57.4190807  57.8635359  21.8469834
  58.2922506  58.5605907  20.8258677  68.9698648  55.6957912   8.2321310
  68.1777382  56.1868954   8.4502798  69.1653633  55.1930523   9.0228653
  60.1438141  73.9155579  11.1221611  59.8615551  73.5141468  10.3003156
  60.7725859  73.2939053  11.4888012  75.9562826  94.0910912  28.2732916
  76.7574787  94.2801285  28.7617373  75.3106594  93.8756275  28.9463282
  29.3446970  67.8614521  13.7689674  28.6880660  68.4708881  13.4318423
  29.3596482  67.1482897  13.1306815  29.7260427  20.1130892  71.9350505
  29.2050742  19.7306372  71.2289667  29.1199493  20.1751686  72.6733112
  51.8510389  78.7343311  26.1727166  51.0198975  78.8861179  25.7228327
  51.9871807  79.5234871  26.6970539  47.8757142  29.6300246  83.1994677
  48.7785863  29.4251276  82.9563993  47.6909398  29.0543772  83.9415729
   5.2028035  10.4574896  86.9288102   4.8755359  10.4329230  87.8279901
   4.4204282  10.5863596  86.3926092  32.9020143  73.6821508  41.5687895
  32.6674938  74.5831490  41.3464689  32.0650029  73.2544851  41.7497540
  29.5334172  69.3885183  11.1715150  29.7437000  69.1860199  10.2599204
  28.5818267  69.2989779  11.2233913  99.1133499  76.9595671  13.5366130
  99.8582363  77.0952606  14.1222382  99.1039753  77.7361631  12.9771090
  57.5224495  40.7278299  30.2304482  57.6265001  40.9500217  29.3052244
  57.6473951  39.7794318  30.2645302  38.4942245  14.9604632  88.6137292
  38.8729047  14.5034720  87.8627354  39.1857385  14.9477173  89.2754516
  62.1457434  82.8677368  56.4217854  61.7188787  82.7732086  55.5702639
  62.4689722  81.9902992  56.6263866  87.2128105  38.3451223   0.1595970
  88.1137466  38.0549407   0.3021802  86.6938114  37.8254294   0.7734302
 109.8557182  34.1334177  83.0900347 110.5937644  34.7203566  82.9256392
 110.2261563  33.4241320  83.6153120  69.1113806  54.9106026  32.5219226
  68.4678411  54.9193001  31.8133950  68.9557314  54.0828466  32.9767084
  44.0528345  90.4054356  23.0827117  43.9016724  91.1637878  22.5185466
  44.7928143  90.6605244  23.6337018  65.2330494  74.3457365  43.4072685
  64.4937277  74.7433710  43.8671827  65.9853077  74.8845911  43.6521673
  27.7858876  11.4821602  75.1306236  27.1883773  12.2123505  75.2919757
  27.9928159  11.5435816  74.1980791  88.2518673  32.7131343  28.1098390
  88.2102489  31.7911959  28.3638620  88.6511135  33.1509209  28.8616228
  40.2596998  77.6622581   4.3868172  39.7517323  76.9389296   4.0193942
  41.1477757  77.5224972   4.0581423  77.1371794  64.2715311  17.4639511
  77.5308228  65.1331758  17.6012325  77.0087481  64.2149878  16.5170932
  52.1458817  53.6446619  32.0644212  51.3032293  53.5663939  31.6171575
  52.3434019  52.7560568  32.3603773  11.5502929  14.9639059  78.0744171
  10.8466291  15.4331423  77.6261866  11.0982465  14.3682028  78.6719346
  90.6200203   0.5737139  80.8398402  91.3769194   0.0212695  81.0351443
  90.9874185   1.4492585  80.7187128  78.6555338 102.1822548  45.7406521
  78.7365007 101.2289047  45.7690763  78.2085371 102.4090862  46.5561104
  30.3742623  99.0132713  37.4019694  29.6503973  99.2690182  37.9736757
  30.9765983  99.7566223  37.4310732  61.4009666  53.1214523  -0.2116523
  60.4972363  53.3347321  -0.4440579  61.3988686  53.0796576   0.7446327
  90.1445389  92.9079914  46.3814878  90.4180241  92.0321941  46.1086893
  89.1935730  92.8450680  46.4705610 110.6742848  32.4776220  11.2476599
 111.1943084  33.2791638  11.3054192 109.8858583  32.6664400  11.7565441
  64.1131639  57.8011036  30.9671259  63.7224579  58.6281490  30.6850338
  64.1734123  57.8771639  31.9193935  60.7672882  75.4518795   1.7699763
  59.8362827  75.2494240   1.6779350  61.1633253  74.6306086   2.0613696
  63.7819481  53.2737494  25.3518796  63.1825352  52.5975037  25.6675100
  63.3281898  53.6670637  24.6064663  59.6297646  65.6068420  15.3414583
  59.3439484  65.4311800  16.2379420  58.8594961  65.9805584  14.9133754
  56.7203808  51.6947937  36.8661308  57.0390415  52.4508333  36.3730812
  56.1664820  52.0710802  37.5501156  42.1362734  94.3666553  42.1197653
  42.8918743  94.2107487  41.5532017  41.8961143  93.4983063  42.4430656
  49.9839067  85.7575989  31.1321545  49.8667192  85.3073978  31.9687080
  50.7509375  85.3397179  30.7406592  47.9866266  35.3962851  33.7380648
  48.4127665  34.5554328  33.9042044  48.6865854  35.9578729  33.4050393
  53.4806681  46.2345123   3.9068571  53.4820700  45.2860975   4.0362367
  54.2996264  46.5315580   4.3034688   3.2303428  50.3780295  89.9232034
   3.0776834  50.6295897  90.8340494   3.0332565  51.1682154  89.4202262
   4.3582582  41.5670992  90.4990958   4.2400789  42.4702288  90.7934099
   4.0982341  41.0343195  91.2506048  78.7007999  60.5799389  32.7980375
  77.9411316  60.4151249  33.3565879  78.4663725  60.1929045  31.9545436
  60.7146931  72.0891905   6.3271081  60.3610373  72.5740051   7.0728391
  61.0259724  71.2656260   6.7027146  45.1226282  60.9393406  23.0931950
  44.2329550  61.2924194  23.0862570  45.5582714  61.3733244  22.3596430
  43.6299944  64.9280548  32.5136662  44.5135450  65.2450180  32.3263097
  43.6146593  64.0386105  32.1602774  38.1931066  26.1365391  86.3908318
  37.6929044  25.7531144  87.1112570  38.6780118  25.4004980  86.0175437
  44.7163582  72.1440744  20.7344985  44.4770193  71.2776423  21.0635018
  45.6727886  72.1580601  20.7702661  33.0186868  51.4543009  34.7260928
  32.9546547  51.6736841  35.6556082  32.8301859  50.5166245  34.6877718
  54.1587496  34.5201206   5.6482786  53.4168100  35.1149702   5.7574296
  53.7592459  33.6713171   5.4581088  99.0517330  59.4694376  26.4565253
  99.7846031  58.9850426  26.0764003  98.4691238  58.7919378  26.7997265
  29.8820304  42.6379038  54.6400356  29.5215129  41.8390395  55.0248623
  30.4158115  42.3309542  53.9071679  75.6727838  11.2378241  68.5166383
  75.5167817  10.3071667  68.3560872  76.4663743  11.2588812  69.0514255
  98.7151432  34.7304940  35.2368999  99.6158409  34.8135018  35.5500770
  98.3016872  35.5606198  35.4739237 101.3638402  11.0656280  36.9649887
 100.7682801  11.7788905  37.1947718 101.9531346  11.4460868  36.3136673
 110.8622611  55.7870579  17.4130034 111.8047290  55.7013798  17.2693217
 110.7672081  56.6083527  17.8953624  89.2199612  79.6729755  41.3826990
  89.7804546  79.9464893  42.1088314  89.2268085  78.7166023  41.4219141
   9.1098547  63.4758997  12.7890646   9.8587912  63.3933306  12.1987176
   8.3811498  63.7206841  12.2187138  39.9076247  49.7935629   2.4685940
  39.6303391  49.6448278   3.3725977  40.5083084  49.0724134   2.2805858
  17.7602279  43.3132935  17.4952829  17.4093688  44.2038345  17.4871790
  17.3787880  42.8985310  16.7215204  52.0988798  60.5536795  23.8986087
  52.4541950  61.2255001  24.4805360  51.2979650  60.2599525  24.3327641
  54.6384573  72.4097443   0.5167387  54.0986729  71.7814350   0.9964108
  55.2076864  71.8681955  -0.0300109  66.4239883  53.0665398  24.6121979
  65.6172323  53.0205727  25.1252890  67.0332241  53.5536957  25.1669478
  77.9409171   6.3513774  33.3503485  77.8644753   7.3054999  33.3432007
  77.0720483   6.0434073  33.6081219  58.8919353  72.3495913   9.3847322
  58.4686375  71.5482664   9.6928418  58.4308577  72.5678301   8.5747862
 108.5673757  79.7761972  88.3823869 107.9453702  79.7422464  87.6556230
 108.0846687  79.4187338  89.1276696  91.5060806  78.4561014  19.2830598
  91.3463593  78.3188295  20.2168012  91.9525719  77.6592875  18.9967620
  31.5097380  84.1750908  37.8261185  32.4430895  84.3528461  37.9422522
  31.0707569  84.8679638  38.3195281  60.6498623  54.3371248  31.3615608
  59.9182272  54.6240711  30.8151102  61.0317516  53.6011314  30.8833265
  62.6622725  43.2160664   1.4826733  61.7153978  43.0988359   1.4057739
  62.7823925  43.6461115   2.3293531  77.6494932  51.8381834  14.9957287
  77.3716211  51.0090685  14.6063864  77.1783543  52.5063562  14.4979262
  86.5495205  51.6634607  18.5860980  86.0019875  50.9285831  18.8624942
  86.4079189  51.7256451  17.6414740  61.2045527   9.6927953  42.1130991
  60.3099155   9.9736279  42.3054218  61.0988665   8.9080316  41.5753174
  64.0109129  81.3796718  90.9383361  63.4794255  81.9984395  91.4392163
  63.6803313  80.5184467  91.1937592  38.3738112  68.9272118  58.6977816
  39.2530990  69.1087914  59.0296173  38.5130906  68.3233643  57.9682589
  54.9011040  68.4781790  31.1944199  54.7887325  68.0984402  32.0658565
  54.8699045  67.7281761  30.6004906  34.1841649   3.5186888  73.8802409
  33.5232305   3.6864687  73.2084930  34.9993419   3.8479926  73.5017240
  74.8479076 101.6439779  79.2048001  75.2194448 101.0890014  78.5190916
  74.6504374 102.4701173  78.7635171  48.9180326  25.6887388  20.6023026
  49.5974016  26.0191488  21.1901093  48.4030628  25.0905013  21.1437345
  64.1160154  71.5955400  38.9489603  64.9263954  71.3304996  38.5139084
  63.4202623  71.2788725  38.3728647 106.6101837  48.6996174  39.0110898
 106.8574333  49.5659447  39.3344593 107.0869064  48.6067963  38.1862617
   5.6560853  74.8302603  19.5193779   5.3357938  73.9961815  19.8628366
   5.3384927  74.8553991  18.6167514  26.9074655  49.9377203  13.2466042
  26.7244220  50.8301687  12.9529035  27.0884562  49.4529390  12.4413311
  32.9906702  40.3798437  20.4779911  32.2379351  40.1800251  21.0344934
  33.2615590  39.5312190  20.1277232  81.4138126  61.6587353  44.9909830
  81.9792938  61.6042280  44.2206001  81.9188786  61.2414312  45.6888342
  58.6797333  63.1877184  10.8630073  58.7736416  62.3262739  11.2696171
  59.3817234  63.2237005  10.2132785   9.3154524  87.4958141  64.7970581
   9.4552706  87.4894650  63.8501453   9.3904875  86.5774782  65.0564075
 110.6491639  56.5053988   7.0945907 110.9361865  56.3129282   7.9872292
 111.3703367  56.2055445   6.5412110  56.4056444  59.5777988   7.8560412
  56.1001253  60.4327583   7.5528288  55.6807899  58.9827013   7.6645386
  84.0412904   5.8779830   3.6367700  83.2755137   6.3399047   3.2955188
  84.0152312   5.0222224   3.2087189  36.1837721  81.6564369  41.6726255
  36.8569183  81.4592361  41.0213089  35.4407668  81.9751835  41.1602020
  88.5621925  79.4321902  86.4948434  87.7781625  79.8695047  86.8269289
  89.2849584  79.8444016  86.9680494  56.2512350  48.1270552   0.7886913
  55.9497213  47.8634644  -0.0806990  57.0667267  47.6424217   0.9165052
  73.5790634  79.4374275  35.7084250  73.7794542  80.3732872  35.6928968
  73.3486080  79.2569256  36.6197658  64.4223309  64.7446537  38.6748505
  64.2856026  64.9397802  37.7477789  63.5527897  64.8239231  39.0670776
  39.1220069  73.3319092  45.6671476  39.8121285  72.8303003  46.1011457
  39.2175198  74.2194033  46.0127783  74.9776316  48.4384966  11.6745102
  75.3816175  47.5808001  11.8063581  74.0955353  48.2418346  11.3591397
  36.8521214  52.4474525   3.5524780  37.0319915  53.3719349   3.3815536
  37.0560670  52.0072269   2.7273473 107.1504970  99.5199163  85.2374172
 106.9206376  99.9610669  86.0552084 107.8797908 100.0309427  84.8863953
  75.4559326  49.7728205  26.4358878  76.1005116  49.2932987  25.9154987
  75.9387684  50.0581694  27.2115684  45.0735044  37.2604967  89.1039431
  44.6363782  37.0782591  89.9357752  44.4242810  37.0348479  88.4377378
  22.7812385  19.5382334  88.9754550  23.3665227  19.8994042  89.6412085
  22.8761291  18.5897089  89.0622458   3.9474486  82.8330810  87.4165103
   3.1745766  82.4763090  87.8542435   4.4782303  82.0653422  87.2041884
  33.1367397   4.5479275  83.4746629  32.4233293   4.5630337  84.1126704
  32.7079677   4.3571688  82.6403975  22.9462908 104.6894557  89.6615197
  23.8835429 104.8838479  89.6624757  22.6308821 105.0266702  90.4999918
  54.8128748  87.6766682  12.4002576  55.3964329  88.3735466  12.1001637
  55.3835201  87.0765781  12.8803527  28.9417720  87.2030163  26.4889550
  29.0191412  87.7496910  25.7070374  28.0000353  87.0682049  26.5947270
  55.2835655  74.1015100  13.2709765  54.4116783  73.8465118  12.9692888
  55.8269787  73.3295250  13.1129253  76.5490294  59.1813564  15.2338707
  76.8466425  60.0899601  15.1881063  76.0343456  59.1382074  16.0397696
  45.0796747  60.2116537   6.3068384  44.4246864  59.6617842   6.7367995
  44.7967529  60.2512455   5.3932631  40.0315905  91.3353920  16.3328421
  39.6147871  90.5465031  15.9862041  39.7539377  91.3704872  17.2482157
  26.6787338  96.1661339   4.9255046  27.4525023  95.6033611   4.8972413
  26.1007905  95.8128548   4.2491883  51.6257763  36.0276461   3.0114439
  50.9394407  35.3619623   3.0566192  52.2401571  35.6942296   2.3575291
  54.1954851  37.0920229  57.8578568  54.1051006  37.6676393  57.0984316
  55.0568533  36.6883850  57.7512836  76.7265272 100.0548363  44.5879555
  76.9451857  99.9245644  45.5106974  76.0871887 100.7672024  44.5915699
  63.9358425  57.1886492  15.6761026  64.7758627  57.0434570  16.1114347
  63.6836958  56.3254690  15.3481209  90.4296494 101.6143703  31.9716859
  89.9906254 102.4133110  31.6798282  91.1332893 101.4819908  31.3363838
  70.5636072  81.3536739   5.8241242  69.7367859  80.8800507   5.9151065
  70.3083706  82.2752666   5.7823408  37.8414178  59.1308689  17.4238765
  37.3023462  59.4788313  18.1341970  37.9892278  58.2155371  17.6616848
  53.2561063  18.7528111  76.5277421  53.4323167  19.4414498  75.8866799
  53.1426095  17.9603888  76.0029399  91.6204024   9.9762935  39.3261814
  91.9306565   9.3970412  38.6301637  91.8935586   9.5452899  40.1360321
 100.1858234  48.5511589  18.1150603  99.4475460  48.0130863  17.8293180
 100.6181526  48.8153124  17.3029387  47.1800851  24.8456646  83.0196810
  47.0288228  24.4234587  82.1740484  47.0769166  25.7806374  82.8424370
  33.0552840  70.2554417  21.8706322  33.8444138  70.3620052  21.3394523
  33.3658838  70.3091526  22.7744436  55.5469275  96.1363125  44.1425657
  55.3284311  96.1412525  43.2106495  54.7711420  95.7717037  44.5685339
  24.1416787  18.8078667  83.9852715  23.9959430  19.5202376  83.3627629
  23.8734912  19.1693665  84.8300332  42.5671864  67.1512222  27.6020503
  43.1055784  66.5620804  28.1305194  41.7085218  67.1348190  28.0247355
  67.4711847  76.7341614   7.7052355  66.8396997  76.0174751   7.7669889
  66.9882536  77.4429512   7.2802299  88.2495637  98.6750324  71.5921378
  88.9026161  98.5704429  72.2840989  87.7844377  99.4795997  71.8214035
  85.5942149 100.1999719  88.3825752  85.6454034 100.9551914  88.9684543
  86.5064187  99.9888236  88.1837401  28.3413339  58.9142323   9.1678798
  27.6737118  58.3795261   9.5975327  28.9058018  59.2115879   9.8814535
  92.6569366  57.9834700  42.6114845  92.0921993  57.4471283  43.1679344
  92.0603657  58.6026478  42.1908283  41.2417841  79.3589163  15.4074252
  41.8462849  80.0108337  15.7621253  41.6427755  79.0840530  14.5828712
  73.8409185  55.2380657   5.1896662  73.0742311  55.5588961   4.7148141
  74.1934204  56.0131216   5.6269950  74.7248983  96.7566490  17.3495305
  73.9459991  96.4213562  16.9055426  74.4342709  97.5705051  17.7611363
   2.2693876   4.9066657  45.9518766   1.6037754   4.4031734  45.4831696
   2.4110178   4.4192809  46.7634344  71.9691133  53.8489653  83.3365887
  72.3232888  54.4802214  83.9629304  71.7540406  53.0810954  83.8660717
  92.7165699  64.2041111  33.7390947  93.0987072  64.1365767  34.6141028
  92.0958996  63.4769344  33.6920238  35.0655984  19.7747113  83.0683947
  35.0575113  20.7163788  82.8968328  34.1413736  19.5366455  83.1415808
  67.1814871  76.0871077  44.2651224  66.8410397  76.5522146  45.0293207
  67.8428078  76.6758442  43.9014196  63.6080027  98.4090233  58.1910992
  62.8080606  98.9169407  58.0556726  64.2027426  98.7113285  57.5047064
  42.8820133  85.4001331  10.2877080  42.3802471  84.7567940  10.7882857
  42.6902246  86.2363529  10.7121766  72.3294687  63.1109858  42.4778128
  71.9902658  62.6454067  43.2422781  71.6209936  63.7023640  42.2237158
  64.2715359  78.8600445  33.9755797  64.9694824  79.3089771  34.4526148
  64.3703508  79.1569710  33.0709791  48.9019108  84.5026112  25.1066732
  49.4467020  84.0239716  25.7314372  48.0067253  84.2362595  25.3162575
  81.2856483  68.1928301  11.6898966  81.3827610  69.0972662  11.9878733
  80.6371117  68.2403946  10.9874940  86.8798828  96.5876102  13.1263328
  86.3996220  96.2736225  13.8924897  86.7848206  95.8874702  12.4805784
  69.2681503  83.6928177  14.1005969  68.9433241  82.8136826  14.2951012
  69.8907232  83.8790607  14.8034108  89.5622922   0.8564872  22.2839451
  89.0963650   1.0492248  21.4703131  89.0239192   1.2541598  22.9682255
  84.8561908   1.1496848  41.1736155  84.3553782   0.8696860  41.9397831
  85.6866170   1.4632625  41.5318012  91.9039536  81.4342308  27.1285820
  92.4643898  80.9142113  26.5526223  91.2036991  81.7518425  26.5584898
  87.6104736  77.1729040  11.9226575  87.5545216  76.7018318  12.7540386
  88.3778572  77.7370167  12.0181763  55.1809978  93.8976669  27.0004654
  55.0660896  93.9867878  27.9465556  56.1084127  93.6877823  26.8905544
  43.0537938  41.0537173  76.3515365  43.0139016  40.2781321  76.9110930
  43.5239457  41.7027499  76.8749380   0.6246447  30.4941584  83.0593431
  -0.2625800  30.1419188  83.1300139   0.9644174  30.4686667  83.9538467
  33.2854842  41.9937540  90.3322886  33.1375694  42.6720549  90.9912669
  33.0579614  42.4125792  89.5022002  88.6102343   4.2239207  10.7217467
  88.9610863   3.7400931  11.4694405  88.5237933   5.1233310  11.0376835
  55.4383564  90.6367970  26.9175553  55.3173876  91.0338688  27.7800679
  54.5557165  90.5880165  26.5504146  99.4605494   4.9491614   8.0050176
  98.9575387   5.7420367   8.1909060  99.0615416   4.5929832   7.2111899
  93.8952541  66.5776539   7.2596449  94.5925236  67.2122478   7.0943195
  94.2195034  66.0503006   7.9897064  57.5349617  79.3396568  27.5197721
  56.7927408  79.4096231  28.1201434  57.2113276  78.7965107  26.8011045
  41.7586327  78.6495066  31.8107963  41.3844919  79.3057156  32.3987031
  41.2554455  78.7383842  31.0013962  54.4661856  90.8518791   5.9632438
  54.0063381  91.0649300   6.7752671  55.0000477  91.6250515   5.7803875
  62.7848196  62.2415495   6.4835387  63.5683537  62.7858067   6.5615517
  62.4808264  62.3863888   5.5875248  78.8739634 100.0535107   0.7829672
  78.6494017  99.2278194   0.3539678  78.0306578 100.4290295   1.0360509
   4.8763708  18.0324191  38.3095765   5.5086616  17.9641074  37.5941896
   4.2619280  17.3148269  38.1555009  86.6254044  49.7314405  48.3397675
  87.3875809  49.1584301  48.2562828  86.9532967  50.6010675  48.1107140
  74.4332790  91.5231991  18.9630747  73.7698269  92.1536827  18.6827755
  75.0866938  91.5362358  18.2637107  16.3714265  42.0018793  62.5463605
  15.6469249  41.3774897  62.5846434  17.0805501  41.5757586  63.0278087
  68.1986141  81.8161297  23.9259076  68.1307411  81.9753647  22.9844904
  69.1079760  81.5483952  24.0585876  85.0393772  81.1763859   2.6590204
  84.1985130  81.6072941   2.5057656  85.5185127  81.2872601   1.8378225
  89.8811531  89.9321747  25.1855206  89.1598415  90.4492474  25.5441022
  89.5136261  89.5172882  24.4051194  75.9844875  79.7110796   1.1554177
  76.6719532  79.5404243   0.5116019  76.2978077  80.4719830   1.6443810
  40.2950334   6.0549857  75.0803685  40.0377416   6.8909813  74.6915948
  39.5551204   5.8117892  75.6367970 105.8289146  80.6350327  27.9618096
 106.0623169  79.7097778  28.0370665 106.5751934  81.1016750  28.3380389
  51.6075181  37.7205016  89.2569624  51.3834237  37.2954108  90.0847991
  51.4827680  38.6543967  89.4258060  52.7441120  64.3835402  21.5044069
  52.2014666  64.5974350  22.2633648  52.7957535  65.2008772  21.0089064
  16.0304831 100.4506071  75.3116047  15.8111380  99.5523603  75.5591393
  16.2320136 100.3991468  74.3772769  93.7719917  75.3440714  32.8098798
  92.9531288  75.2288818  33.2919884  94.2582321  74.5346451  32.9668212
  33.8147926  88.8789368  32.1830392  32.9808736  89.3486309  32.1691465
  34.1958714  89.0418911  31.3202214  91.5488148  62.0307207  39.3537951
  90.6383705  62.3249197  39.3815589  92.0285988  62.6887369  39.8568416
  91.6172218  54.6274042  20.4190564  91.0983181  55.3246307  20.8201146
  91.1653233  54.4348383  19.5975089 109.4038674  17.4377133  80.6535006
 109.7017571  17.7457024  79.7975600 109.0668532  16.5573574  80.4872823
  89.2809010  71.5154696  13.6400259  89.1535473  72.2009754  12.9842091
  89.9469662  71.8688822  14.2296731  10.1624397   1.8177623  10.8130872
  10.4458336   1.5797729  11.6958582  10.2287296   2.7723712  10.7894623
  60.8102655  60.1791906   3.4258482  60.0747299  60.3829336   4.0035224
  60.4347801  60.1944590   2.5455016  69.9906063  58.6377144   9.5943135
  69.8997498  58.0386114  10.3352952  70.5286932  58.1589842   8.9638263
  77.2421265  53.6271143   0.5671968  76.9250488  54.5246124   0.4662145
  77.7775860  53.4732676  -0.2111615  52.6946878  81.0022354  27.6330876
  53.5749054  81.3563442  27.7598023  52.1425390  81.5165234  28.2220411
  63.9395189  85.3976059  24.3947816  64.2155266  85.7127285  25.2554488
  63.2220650  84.7917461  24.5803142  67.6731777  70.8509779   5.5841476
  67.8139067  70.2781916   6.3380319  66.7420435  71.0698843   5.6201816
  75.3087997  64.9935389  21.8618512  75.9108353  64.2505026  21.8208098
  75.0460052  65.1393557  20.9530568  98.4249878  61.6427851  42.6974392
  99.3755627  61.5783167  42.7895498  98.0821228  60.9498310  43.2617903
  27.8101734   7.1473235  16.0945570  28.7188724   7.1886462  16.3925457
  27.8675846   7.2115058  15.1412380  64.3773317  82.4588394  25.4967070
  64.6869516  81.6404247  25.8847427  64.0804577  82.2114468  24.6209812
  60.1578856  67.5751305  31.8235707  59.9692917  68.2833099  32.4393177
  60.4128551  66.8374729  32.3777246  71.8236732  71.9414854  39.9876165
  72.1427727  71.8159914  40.8812904  71.4024639  71.1112976  39.7648978
  78.6573887  82.9244709  51.5276670  78.1136942  83.0130768  50.7448673
  78.0337286  82.7612877  52.2352362  38.2926749  40.4869772  90.6097150
  37.6518916  39.8163153  90.3733900  37.8962564  40.9468008  91.3497437
  58.4576607  87.3924351  39.0070009  59.3611431  87.6453686  39.1966724
  58.5027170  86.9673157  38.1505728  74.9747753  69.7977161  54.1227961
  74.7541428  69.1286278  54.7707748  75.4108572  70.4847240  54.6268654
  80.9843922  90.5996323  27.8187656  81.3209152  90.6853008  26.9267750
  81.1593437  91.4492798  28.2233930  20.0467967   8.6191918  86.4538950
  20.8970403   8.4572722  86.8626723  20.2490186   8.7631060  85.5294353
  32.9065990  77.5453806  10.5670881  33.3995318  77.9377937  11.2876880
  33.5760450  77.1673679   9.9968433  43.0734681  25.1219059  84.6210247
  42.8304719  25.6766917  83.8798112  42.3649358  25.2428700  85.2531481
  81.9825363  55.1652288  21.7892742  82.8121758  55.0131702  22.2418237
  82.1910572  55.8160782  21.1190915  61.6116476  85.7139206   8.3466178
  60.8641052  85.3810215   7.8500414  62.2898579  85.0479412   8.2337928
  78.9907932  79.8607302   6.1817163  79.5621920  79.0930891   6.1602306
  78.6609077  79.8886967   7.0798403  94.7736073  59.7804642  42.1116495
  95.0838947  59.3166113  41.3339615  94.1922665  59.1566658  42.5465631
  32.9530572  34.8946597  88.2497442  32.6405191  35.4418970  87.5292689
  33.9005756  34.8486449  88.1219771   0.3275250  78.7130601  68.8036442
   0.3649043  77.9101522  68.2838607   0.8696602  79.3366392  68.3204556
  59.0002155  93.2766914  55.6987524  59.1971207  93.8694763  54.9734497
  59.3488264  93.7202740  56.4720154  29.4225812  92.8435802  21.2713027
  30.1715565  92.9046726  21.8642068  29.0899205  93.7391949  21.2125754
  79.3650723  54.9516153  40.1730013  79.6875286  54.8843956  41.0717392
  79.4168568  54.0585089  39.8325348  69.0382433  92.0656395  28.5858917
  68.2875061  92.6096725  28.8239241  69.5613861  92.6196289  28.0065393
  49.3156290  85.9870815  28.5303831  49.4527674  85.0487232  28.4003425
  49.2707253  86.0931587  29.4806266 101.1832047  81.3046551   5.4465497
 101.2071323  80.4731464   4.9730101 100.7933998  81.9217968   4.8273355
  54.2235279  98.3254433  38.0431557  53.3249331  98.5796547  37.8330636
  54.5569754  97.9347420  37.2354436  80.1799011  50.7044935  19.4819951
  79.7350025  51.1975813  20.1713133  81.0630608  51.0727262  19.4560015
  45.0857735  62.6811600   7.3792392  45.2712250  62.2813225   8.2289284
  44.9751806  61.9393539   6.7844903  11.4207457  99.4532258  87.1977264
  11.6336249  98.5316236  87.0508733  11.8261145  99.6614940  88.0394712
  91.0618254  50.8587862  62.1221662  91.2063225  50.1199366  62.7133155
  91.2369295  50.5054785  61.2499595  40.3023099  23.0408121  62.3501801
  40.8425330  22.6557328  63.0401850  40.4365634  23.9843441  62.4393725
  15.4446028  98.7996585  89.4287892  15.9139536  99.6322877  89.3771602
  15.7956789  98.3749444  90.2114733  30.3309226  55.1947165  19.6753466
  30.1379108  55.3924179  20.5918026  30.6981087  56.0072565  19.3272328
  32.1055269  41.1083056  84.1956037  32.5912475  41.4095904  84.9634194
  31.4568090  40.4983164  84.5467454  25.6370187  95.0894642  49.1274214
  26.2522745  95.6472874  49.6033669  25.2607536  95.6630611  48.4598541
  62.2051048  73.1856537   4.3364173  62.2225523  74.0377045   4.7722280
  61.5321541  72.6911116   4.8041785  34.7663927 104.6338654  17.7323747
  35.3535676 105.3262711  18.0357373  35.3268504 104.0528011  17.2180879
  54.0983820  56.8266821  35.1559067  54.2744923  56.1145020  34.5410776
  54.5827627  56.5864706  35.9457850  54.3238497  42.7158976  32.1213007
  55.2343225  42.8942966  31.8858337  54.3488073  42.5464106  33.0630469
 108.0062103  47.8137970  54.6770906 107.3916531  48.2780218  54.1087151
 107.6860046  47.9812622  55.5634594  70.6112528  78.8328934  41.4139080
  71.4525986  78.3839607  41.4965153  70.8426762  79.7466755  41.2475538
  62.2790051  66.0604048  21.7381406  62.7847433  66.8381739  21.9738102
  61.5807962  66.0215855  22.3917699  63.9947891  98.3588123  13.3397818
  63.4855461  98.2020950  14.1349816  63.8591480  97.5733376  12.8098154
  19.5454072  18.3157565  90.6969422  20.1382875  18.4079434  91.4427480
  19.2798995  17.3962809  90.7142677  73.0391216  98.7759209   3.3390987
  73.9244127  99.1399097   3.3383003  72.5368404  99.3689346   3.8979182
  75.3615762  13.9896888  19.5889258  75.4089332  14.7515983  20.1664066
  75.8198643  13.2982654  20.0665736  54.0584230  50.8843994  12.6296830
  54.9781370  51.1404181  12.6990485  53.9607286  50.5847549  11.7258584
  35.1989888  12.0207001  63.3839130  34.5774745  12.4944664  63.9366317
  35.8545017  11.6840340  63.9948058  86.1183357  89.3306351  17.9149902
  85.6587315  89.1700077  18.7391233  86.4924240  88.4814930  17.6799321
   3.2973146  47.4865748  73.7659049   4.0475368  47.2905947  74.3271446
   3.6267947  47.3668982  72.8752017  72.0705128  68.7682295  23.6462307
  71.9807100  69.1056204  24.5374846  71.3207769  69.1324091  23.1755924
  92.9719448  59.9144554  25.0053668  93.6686802  59.4829464  25.4999256
  92.6751041  59.2517281  24.3817401  55.6613922  41.4085436  14.0691125
  56.0129929  41.4525986  13.1799173  54.7203016  41.5465164  13.9616585
 111.5751239  23.7350203  68.7470150 112.3925491  24.0421797  69.1390634
 111.0378762  24.5229842  68.6650658  21.5154838  24.7143532  88.7348831
  21.2037563  24.1370989  88.0378649  22.4055480  24.9484850  88.4718332
  75.8194637  83.0769253  48.9661694  75.7796383  84.0218353  48.8185310
  74.9126148  82.8228188  49.1372967  64.9758577  62.7167606  35.7798243
  65.3845835  61.8593025  35.6617761  65.6965399  63.2924509  36.0356188
  48.2022619  77.2918224  31.4835143  47.5705051  76.7457771  31.0155940
  48.9294434  76.7014217  31.6806483  62.4355221  88.3948994  20.2224612
  62.3032665  88.1414986  21.1359882  61.8458939  87.8254604  19.7281814
  65.8698606  74.4647598  24.5409894  65.9132242  74.3849134  25.4938674
  64.9498224  74.3071318  24.3290544  60.7964182  73.7210321  19.6181500
  60.0789165  74.3333054  19.7810733  60.7839346  73.1313515  20.3720427
  75.4181385  79.9292469  54.5002651  75.6545258  79.0814352  54.8765182
  74.4690561  79.8836660  54.3845081  63.1182671  96.8071556  30.2181816
  63.7947369  96.9831467  29.5642376  63.4280920  97.2496986  31.0083675
  49.4705009  97.9462147  32.8711534  50.0232458  98.1648827  32.1208954
  48.6581850  98.4291649  32.7190232  87.2662735  80.8004379   6.0892546
  87.7474022  81.4655209   5.5968988  86.7357635  80.3519821   5.4307103
  68.8653231  54.1671419  37.8276658  69.1517830  54.9619484  37.3777103
  68.8211632  53.5044146  37.1384120  49.7376823  62.1672201  12.3799586
  50.1746225  61.6913223  11.6736758  48.9511347  62.5306082  11.9731104
  82.9655410  12.7668017   8.3515888  82.0756627  12.4142474   8.3589453
  83.5276843  12.0005816   8.4661394  97.7585411  71.6404486  41.3575983
  98.4926605  71.8752050  40.7899857  97.7385998  70.6836176  41.3399792
  87.4840927  62.0244360  24.8277736  86.9435215  61.2346697  24.8111653
  88.0089569  61.9387341  25.6236434  33.4898423  35.3525473  78.5725009
  34.0958070  34.6308733  78.4045076  32.6362991  34.9306322  78.6709082
  91.6441441  64.8897409   7.6447749  92.2413063  65.5935240   7.3911440
  92.1173000  64.0855408   7.4312049  74.9583960  79.4487667  12.5234199
  75.6405783  79.0530586  11.9809508  74.4115353  79.9332047  11.9049597
  60.2090073  62.0779562  30.1559806  59.3068075  62.1064043  29.8374557
  60.5850363  62.9156113  29.8854876  94.6058750  97.5976276  27.9139113
  95.2046299  96.8555927  27.8295255  93.7540817  97.2492123  27.6506901
  63.0362558  43.3776951  17.8597271  63.6713266  44.0038300  17.5120592
  62.4388218  43.2124996  17.1303344  72.0261097  77.9636335  68.7461615
  72.9299212  77.8732157  68.4441996  71.5409040  77.3038626  68.2506800
  49.9454641  88.5069370  31.9519734  49.9511003  87.6048088  31.6320229
  49.1052008  88.8596821  31.6591191  61.1334181  51.1242676   5.4513401
  61.5219545  50.7757282   6.2537074  61.7953014  51.7228270   5.1051128
  76.4108086  81.0839272  14.1415215  76.7437458  80.3951073  14.7167635
  75.9616184  80.6133080  13.4394038  82.6924610  61.6610718  26.0173416
  82.8951836  62.5379515  25.6914330  82.3983860  61.1800957  25.2437663
  54.0965795  13.9654280  79.7174931  54.9775361  13.6151768  79.5853019
  54.0935468  14.7935368  79.2374361  66.8062496  90.7472897  13.7450433
  66.3451242  89.9531078  14.0149736  67.6766443  90.6628990  14.1343105
  71.1027193  49.6690702  20.5179071  71.2223005  49.7163868  21.4664292
  70.5215073  48.9199066  20.3868484 109.2580414  97.6797867  22.0888281
 108.6583614  97.1628857  22.6268077 108.7049675  98.0476189  21.3995934
  41.9154835  75.3758860  13.2136297  42.6436806  75.3580570  13.8346362
  41.1644602  75.6624174  13.7333357  80.3773308  92.3949051  14.6803498
  80.0831985  93.2040501  14.2620111  81.2807941  92.2864246  14.3833303
  79.5818233  65.1943779  21.1875534  79.9140644  65.2700996  20.2930617
  79.1328478  66.0245085  21.3473678  84.7580814  83.9524460  59.6889067
  85.5605888  84.0137959  60.2070332  85.0624275  83.8450336  58.7877560
  37.1364307  43.0663992  88.8282274  36.7627477  43.7427451  89.3931651
  37.4348354  42.3871256  89.4330192  67.2757769  83.2563400  29.2923832
  66.3802338  83.4360695  29.0061402  67.6365995  82.6909637  28.6094570
  84.7529316  44.2129421  48.4776545  85.4661179  44.7270250  48.8562298
  84.2211056  44.8530436  48.0047226  69.8258162  60.9650707  25.1203442
  69.8705959  61.8095779  24.6719718  70.7331133  60.7699919  25.3548408
  30.6255960  30.7710768  79.3556285  30.9168100  29.8961092  79.0989923
  31.2566709  31.0483290  80.0197887  82.7790546  92.2675228  40.3635836
  82.9820347  91.7061996  39.6152854  83.3659649  91.9645786  41.0564041
  17.7904748  42.0158698  54.8972535  18.2134151  42.7778269  54.5013070
  17.4224138  42.3453356  55.7171392  88.5820007  73.9585829  23.7599039
  89.2584419  74.6032953  23.5525227  88.5011101  73.9944363  24.7130060
  91.1641788  90.2682018  16.0627508  90.6906128  89.6204567  16.5846646
  90.8640003  90.1191711  15.1661408  68.0378484  14.1671444  70.0766850
  67.9851960  13.3473231  70.5679703  68.2925081  14.8207356  70.7279897
  21.9065098   1.1054248  18.8275838  22.5044922   0.6629104  19.4299424
  22.0942596   0.7152099  17.9739344  60.3219080  97.2543335  33.3526492
  59.5645046  96.7962170  33.7169290  60.6030416  96.7069626  32.6194477
 104.5888282  21.3080043  24.6883917 103.9340831  21.9965667  24.5725417
 104.9123336  21.4327735  25.5805850  32.0632291  80.3771877  16.7460191
  32.2455382  80.2861881  15.8107567  31.2045145  79.9708700  16.8632936
  73.9349890  55.1529789  25.2180648  73.8409758  54.2124796  25.0669026
  74.7328186  55.2329683  25.7408500  61.0067081  84.9670696  32.9591680
  61.5463114  84.2080784  32.7378273  60.3174019  84.6148682  33.5222363
  81.8802738  70.7932854   0.6321380  81.6034031  70.7888031  -0.2841346
  82.8049469  70.5474710   0.6041430  56.0417414  69.6988630  60.8505535
  55.9905720  69.0803766  60.1217985  55.2091122  69.5955467  61.3112974
  64.1447258  81.1287212  39.2563868  64.7720098  81.6383076  39.7692895
  64.5234394  80.2504253  39.2188478  38.3044910  31.9892336  72.6155353
  37.9181432  32.8497340  72.4526966  39.1074752  31.9847418  72.0945466
  89.0956020  93.7457943  12.5421894  88.1429291  93.6879635  12.6149952
  89.4028664  93.7883282  13.4477317  68.4384441  76.7348385   3.9788145
  68.8075686  76.0184479   4.4953087  67.8871632  76.3011932   3.3274496
  94.2797227 105.0964076  86.5765747  94.9596782 104.9536188  87.2349831
  93.9193721 104.2251165  86.4115527  67.4208927  53.1514740   1.5654892
  67.9527187  52.3644495   1.4472140  67.0567036  53.3270597   0.6978682
  78.7945080  55.4731607  27.9112005  79.3826008  55.9004068  28.5339665
  77.9979420  56.0035467  27.9314208  57.0346022  93.9766979  22.3808646
  57.7731943  93.3910179  22.5472832  56.4877939  93.5009193  21.7556691
 105.5709649  11.8830699  24.0958214 104.8598576  12.4803466  24.3278122
 105.2082682  11.3389033  23.3968520  48.0177689  66.3129854  29.0451956
  48.7351084  66.6978121  29.5487452  47.3855686  66.0307693  29.7061872
  55.1907158  61.9282913   7.2933578  54.6868229  61.4416552   6.6410470
  55.7126665  62.5457621   6.7809814  88.0147266 100.3163624  43.1534576
  87.6443863 101.1580372  43.4193087  88.7655640 100.5471230  42.6064539
  71.4688421   4.1788882  34.9708986  71.8829203   4.7562140  35.6123567
  70.6009055   4.0014667  35.3334475  22.0095590  90.7480145  48.6899137
  21.2305215  90.2480602  48.9335728  21.8534711  91.6230011  49.0452623
  76.2964821  74.0460014  58.0265474  76.7528582  74.1025877  58.8660431
  75.8661985  73.1911659  58.0449867  74.0126801  99.1695499  40.0328970
  73.7509251  99.2995739  40.9443855  73.1968784  99.2395306  39.5371175
  97.3130989  38.1177855  17.1389866  97.2194481  38.9013004  16.5971673
  98.2582283  38.0153370  17.2506082  68.8431454  87.7505589  26.7477965
  68.4559441  87.4989891  25.9093332  68.3189392  87.2884750  27.4019480
  78.2306051 102.3661232  34.0225387  78.1137562 102.8830147  33.2254195
  77.3744202 101.9668865  34.1767740  44.3478779   1.3291472  24.4325995
  44.7672085   0.8713550  25.1611710  43.9753631   0.6312007  23.8937807
  78.3883667  79.8170471  46.6547918  78.9149427  79.9652529  45.8693075
  79.0260458  79.7837734  47.3678780 101.7371464  83.5168171   1.5459329
 102.6837826  83.5684013   1.4138025 101.5355015  84.2528343   2.1237260
  20.2160267  33.6064357  26.0701227  19.8407844  34.4554061  25.8363056
  20.0956158  33.0677814  25.2880836  59.5706797  61.8220997  14.6798253
  59.7898149  62.0359325  15.5867350  58.6213684  61.9341421  14.6299958
  63.0225706  75.0286674  46.9125938  62.4955702  75.2813148  47.6706696
  63.2135439  75.8544159  46.4677286  84.2780685  70.4548359  81.6631508
  84.8400497  70.1805735  80.9384537  84.7314739  70.1465797  82.4477768
  61.1113167  86.0955238  47.5522900  60.5885744  85.9128761  48.3330727
  61.2943792  85.2331161  47.1794939  85.8899212  82.4784374  37.2757840
  86.0349941  81.5448952  37.4296999  84.9495792  82.5995827  37.4073601
  52.0175313  36.7318751  75.0638819  52.0939683  37.0645262  74.1696036
  52.2823571  37.4672533  75.6164277  41.8362045  70.7824039  15.6368470
  41.9648838  69.8368454  15.5620468  41.2850285  70.8885193  16.4122033
  61.3962555  48.5064554  34.7800541  61.6113472  49.2303848  34.1919279
  62.1173096  47.8865242  34.6705008  32.8257846  32.1967532  82.2427058
  31.8812703  32.1871687  82.0876586  32.9223966  32.5939871  83.1082147
  98.6750412  97.8452587  14.6530306  97.8840446  97.3135090  14.7413206
  98.3515549  98.7267303  14.4670701  18.7334728  50.5701758  83.3520317
  19.5432281  50.2177740  83.7212688  18.2704591  49.8033453  83.0146706
  47.3352003  92.1662045  27.5536227  46.4489794  92.0062351  27.8780556
  47.2069216  92.6130962  26.7169213  77.3986673  96.1972523  44.1997385
  77.4456310  95.2416897  44.1693640  77.7532291  96.4273071  45.0585699
 108.9991665  72.3951483   2.4956316 109.3786049  71.5592575   2.7668250
 108.0815887  72.1934366   2.3123452 102.7472973  80.7354259  12.2352529
 103.6134243  81.1394119  12.2886503 102.3935604  81.0369301  11.3984787
  92.3932362  66.2944221  20.4705739  91.9026852  65.8866119  19.7569394
  91.8310833  67.0089912  20.7699180 100.0076675  82.0811653  42.0759726
 100.7975292  81.5934658  42.3094225  99.4966316  81.4697456  41.5456486
  90.8383369  82.6068211  41.0666656  90.7724667  81.7115021  41.3987589
  90.0887012  82.6999855  40.4787922  73.7417841  81.0639000  10.6079853
  72.8172302  81.0216331  10.8522069  74.0415573  81.9062042  10.9498882
  92.4909782 100.9841061  18.7333417  91.5734959 101.2336540  18.8437021
  92.8829288 101.7166710  18.2579863 103.5576344  79.8181486  50.9377480
 104.0919304  79.9960470  51.7117691 102.8295135  79.2902708  51.2654877
  23.7371110  58.8479639  69.8577452  23.2327937  59.6522738  69.7353172
  23.2462405  58.3552481  70.5154014  32.4872613  80.1667500  14.0621948
  32.5927186  80.9652328  13.5449576  33.0933499  79.5418167  13.6642671
  31.9616794  45.0418021  78.4837830  32.0508384  45.3568579  79.3832362
  32.8434848  44.7602488  78.2401049  95.5679989  70.5823088  17.0307362
  96.1792850  70.8059216  16.3289118  95.5354595  71.3663483  17.5788736
  28.3421277  54.9487902  79.5717418  28.5722350  54.0237643  79.6589875
  27.3958301  54.9476458  79.4276893  98.5493994   5.4788798  22.1762347
  97.9204846   6.1766070  21.9921827  98.5224486   4.9209517  21.3989162
  86.5838195   6.6954631  17.1092045  86.2813521   7.6022834  17.1584463
  85.7809067   6.1744136  17.1170163  75.1752090  76.3124609  31.4771986
  74.3993664  76.4164448  32.0280933  75.8264065  75.9125662  32.0536208
  84.3330860  86.9963455  35.9457564  83.5872269  87.2838402  35.4191995
  84.1957378  86.0562611  36.0624266  54.9135876  91.5473366  29.4670010
  54.4082737  91.5066338  30.2789307  55.2865601  92.4288559  29.4609451
  84.0611839  62.5804424  52.8689528  84.7318649  63.0842304  52.4078560
  83.5005951  62.2355652  52.1739531  49.2954159  76.4454794  27.6618481
  48.3820105  76.4862204  27.9451656  49.2736149  76.7149639  26.7436242
  84.4977474  95.5218601   4.3911448  85.2668381  94.9550629   4.4501513
  84.2174435  95.6404781   5.2986640  70.9962988  77.0088434  44.8226118
  71.1491585  76.6857719  45.7105827  70.9972000  76.2217474  44.2779016
 101.2922955  67.9296637  18.4797549 100.6987095  68.5354280  18.0359864
 101.2707233  67.1371412  17.9434025  95.0376321  36.5505904  17.8775859
  95.9451438  36.8362254  17.7723742  94.5166684  37.3252505  17.6660836
 101.8859386  89.4491959  25.0955534 102.2860527  88.6811543  25.5032897
 102.5592136  90.1274014  25.1501226  76.8786001  67.3882532  52.6891613
  76.2354708  67.9945087  53.0566835  77.3418331  67.0397425  53.4508610
  53.6213350  26.2420584  81.4049208  53.0830526  25.9354617  82.1346366
  54.4270276  26.5547062  81.8164295  51.7819977  68.3559275  19.6166742
  52.3247290  68.2154512  20.3925252  51.7407894  67.4977779  19.1946340
  50.7428693  37.6072241  79.2915726  50.2984189  37.1993853  80.0347877
  51.6469716  37.2992922  79.3547916  20.3422165  70.7990551  38.1876683
  20.1895332  70.1337051  37.5166774  21.2318277  70.6278276  38.4967017
   7.5612835   1.9600028  17.3411119   7.1694282   2.8171653  17.1739328
   7.9940418   2.0558471  18.1895018  72.8614902  86.7944813  42.6105547
  72.7991676  86.1533833  41.9024944  73.5973930  87.3542023  42.3627853
  11.1433271 101.9743824  69.8056078  11.9125608 102.3548603  70.2295685
  11.3066152 101.0312557  69.8149681  90.2463818  66.1908531  36.9812012
  90.9685898  65.8263636  37.4928474  90.0794220  67.0458460  37.3778701
 104.9900627  94.4908333  61.5197468 105.6485748  95.1839352  61.5664911
 105.2511215  93.8663769  62.1966076  89.4512939  98.7692547  30.4349828
  88.9402771  99.1281796  31.1604190  89.4414520  99.4585991  29.7709489
  97.4587631  83.4089947  25.2088714  97.7446175  83.0737114  24.3591022
  96.8061447  84.0760612  24.9959326  42.6585531  32.4378039  73.1752014
  41.9772529  32.2391535  73.8175380  43.3161496  31.7543532  73.3044076
  25.2367977  28.2741183  37.1280551  24.4693569  28.3476466  37.6953840
  25.7913975  29.0130252  37.3784041  87.5906563  81.9286728  20.7120180
  88.0545330  81.1215782  20.9348440  86.8977928  81.6492939  20.1135874
  57.5747395  96.4371490  22.8968215  57.6870966  95.4865742  22.8930616
  58.1810951  96.7473412  23.5693884  82.6647949  96.7180634  11.6040814
  83.0409718  97.3272133  12.2394204  83.1877995  96.8444157  10.8124185
  52.5591326  80.7258701  41.3481092  51.8366909  80.7528496  41.9754696
  52.8609371  79.8177433  41.3692665  96.9640346  85.9980543  89.3383114
  96.6603895  86.5456803  90.0622864  97.5158019  86.5784843  88.8140151
  40.3926516  11.5072036  14.6269083  40.0652361  10.6086922  14.6681976
  40.8646059  11.5521669  13.7953615  59.5824909  27.4907136   8.1302738
  58.9297581  27.2582245   7.4698818  59.4330788  26.8701458   8.8435793
  36.5396285  14.2864347   1.5924588  36.5781045  13.3304262   1.6207384
  35.7245374  14.4797397   1.1293259  54.4384527  18.0275714  43.1435490
  54.1906261  18.6391354  42.4501467  55.2795124  17.6703489  42.8585196
  60.2488708  23.3482385  31.5060616  59.7835732  24.1036963  31.8652511
  60.7661247  23.0147791  32.2391939  47.8574133   5.6037605  21.3540459
  47.3208237   4.9058419  21.7298293  47.8826046   6.2783027  22.0327139
  86.7473836  76.6980488  82.4626499  87.6892801  76.5564449  82.5575864
  86.4491315  75.9687836  81.9190961  93.5890670  94.1627319  83.7984890
  93.6864467  95.1131637  83.8569933  92.8656288  93.9591462  84.3913001
  51.1052322  42.7454519  16.4080465  50.6509018  42.1437597  16.9977760
  50.6753397  43.5890293  16.5487874  28.1658935 104.5928891  24.0837097
  28.9768552 104.4842975  24.5804811  27.6057624 105.1214425  24.6521449
  53.5760689  25.4843736  11.5341234  53.9693594  24.6384835  11.3195860
  54.2754030  26.1195803  11.3802469  61.8916368  97.3247879  21.4357066
  62.6657438  97.4392545  20.8844352  61.2406396  96.9301128  20.8554840
  87.1806812  31.2388730  37.8771138  87.2911263  30.7758784  37.0466518
  86.2657738  31.5202570  37.8746200  90.9195777  89.1379541  21.7065167
  91.0174473  88.8184279  20.8095455  89.9740203  89.1492074  21.8549299
  37.0878530  34.6444750   1.4864331  36.5003085  33.9329386   1.7408651
  36.5060425  35.3288627   1.1557612  96.3864036  71.9034095  85.9551412
  95.7473798  72.0136006  85.2510518  96.6594787  70.9883256  85.8897018
  74.4030714  47.4738312   6.3075912  74.4632149  48.4163284   6.1516786
  73.6442947  47.1942759   5.7954025  74.2729425  42.3274803  16.3651121
  73.7704563  43.0595112  16.0075319  73.7166595  41.9706917  17.0575583
  19.7098970   0.3871371  84.0491664  20.6108617   0.7101895  84.0606225
  19.5987987  -0.0427650  84.8971486  95.8061309  70.2175290  82.1840912
  96.4965864  70.1389737  81.5258092  95.7413335  69.3433995  82.5687081
  42.5265884  21.8892336  56.8062592  42.6668262  22.8238297  56.6542864
  41.6732264  21.7079329  56.4123869  90.8807893  99.4796378  86.3385895
  91.3463683  99.9870498  87.0034188  90.0327297  99.9155624  86.2549365
  50.6763315  12.3721170   9.4471991  51.3810205  11.8876398   9.8772299
  51.0780573  13.2023358   9.1911018  46.6722202  56.5779114   0.5550847
  45.9363937  55.9744263   0.6580094  46.6497517  57.1197271   1.3438582
   8.0437277  62.1420689  81.5283906   8.5259150  62.5673975  82.2374862
   8.6418437  62.1700067  80.7815921  36.0780644   6.7486954  11.2565589
  35.1592541   7.0134270  11.3005650  36.1601472   6.3081717  10.4107261
  90.2207216 101.3956925   1.5420593  89.8686989 101.8889299   0.8010944
  90.8319231 101.9999891   1.9633558  97.5776334 102.2182710  71.8339956
  97.8446098 102.9774911  72.3522043  96.7443891 102.4777038  71.4407694
  40.8467436  55.4619312  18.8720334  41.0430431  54.6132898  18.4751642
  41.1460114  55.3779268  19.7773576  61.4795876  47.3328924  21.4332247
  60.8546591  48.0304527  21.2354779  61.1081171  46.8872738  22.1945810
  77.6513286  57.2134120  88.8405150  78.2301612  56.6309352  89.3323508
  76.9052787  56.6635356  88.6011842  73.0838938  70.4116900  76.8310273
  73.0316396  71.0954471  76.1632121  73.7150045  69.7828300  76.4810729
  21.6607952  83.6743259   5.0980377  21.9091439  82.7501106   5.1177788
  21.4871740  83.8952732   6.0130614  34.4578552  30.1084352  15.6336689
  34.2729354  29.2021036  15.8798385  34.0087533  30.2256441  14.7965300
  24.8945951 103.7540546  -0.0488751  24.3107414 104.4423186   0.2699315
  24.7117805 103.0038464   0.5168093  77.0384236  74.4578321  85.6982052
  77.4339385  74.9093611  84.9526054  77.6326509  73.7297661  85.8799946
  18.5372972  95.3279680  35.0310135  18.6132001  95.7139051  35.9036684
  17.5969075  95.3225177  34.8525000   2.6057480  59.9089123  81.4781278
   3.4027146  60.2400316  81.0640800   2.9056929  59.1897244  82.0340347
  61.8648243  26.0975718  15.4050195  62.4022532  26.5282106  14.7402251
  61.0279846  26.5611982  15.3736985  63.7331915  36.1055851  27.6276350
  64.1978741  35.8739042  28.4317660  63.0414677  36.7019844  27.9140878
  58.6402793  80.5292113  77.8938949  58.3609743  81.4402182  77.9849100
  57.8997083  80.0179202  78.2200408  27.4577522  83.6266232  19.9060023
  26.8769503  83.1808758  20.5226183  26.8664718  84.0753269  19.3016171
  89.0452142  66.2881405  54.4278026  88.2180162  65.8261092  54.2917705
  89.2451330  66.6771026  53.5763502  43.1560135  47.7867079   9.1331297
  43.2439709  46.8484211   9.3008059  43.6379957  47.9306984   8.3187640
  29.0171385  29.7427988  48.3392286  29.0595913  28.8786077  48.7486219
  28.4421754  29.6218681  47.5835705  50.5182266  22.9860020  40.5822086
  51.4440775  23.2166982  40.5059767  50.2504015  22.7717733  39.6885610
  49.7065735  45.7627869  19.9459255  50.4694700  46.3335800  20.0376916
  49.7785330  45.4073715  19.0600717  26.3337135  24.0778232  28.9206696
  26.3910174  24.3487883  28.0044127  27.1825361  24.3150282  29.2941213
  79.2576599  12.0559084  12.2778761  79.3522596  11.4133215  12.9809880
  80.1362038  12.4188340  12.1652937  11.9739198  97.5005805  11.1374521
  11.1264991  97.3399728  11.5525627  11.8689965  97.1729457  10.2442122
  92.3134895  79.0035112  81.6430819  92.9888769  79.0688927  80.9679449
  92.4971433  78.1751497  82.0861620  50.3939247  38.8170171   2.6721406
  50.8150721  38.0084205   2.9637590  49.5421124  38.5362864   2.3377217
  57.1171904  17.2513342  64.7891617  57.1362543  18.2029057  64.8910522
  58.0152464  16.9731557  64.9690056  36.0465121  35.6449890  28.5751486
  35.5555415  35.4812098  29.3803549  35.4372907  36.1286473  28.0173326
   1.5386914  45.8285792  84.9652392   2.2600363  45.8678151  84.3372583
   0.8773421  45.2852596  84.5366961  60.7126284  16.4559031  12.2343981
  60.1569891  16.1552060  12.9534793  60.5084181  15.8641076  11.5103078
  86.6686721  73.8280852  89.6499330  86.5123887  73.1655748  90.3229016
  86.8069406  73.3258207  88.8469122  16.3594174  22.6589179   3.7029374
  15.5928421  22.5874043   3.1341848  16.1285722  22.1513915   4.4809848
 100.0127931  72.5360818  88.0913889 100.0932165  71.5860171  88.1758910
  99.2060514  72.7507527  88.5597059  83.0087133  91.9697029  75.8456993
  83.7997623  92.4250824  76.1339736  83.2618184  91.5456636  75.0257230
  62.0330954  22.1208549   5.6175250  62.7437115  22.7494860   5.4907340
  62.0000362  21.6281414   4.7975412  61.9381471  65.6262894  78.8999152
  61.1496039  65.4542608  79.4145393  61.8840785  65.0133629  78.1666839
  11.9279670   6.5851284  59.2960501  12.1679115   6.2309672  58.4397626
  11.3146924   7.2931744  59.0990901  62.5088549  41.0740280  15.8780491
  63.1976032  41.4829588  15.3539920  62.9619265  40.7454348  16.6545689
  77.9140282  60.1754427   1.5962596  78.6407471  59.7879601   2.0840809
  77.6040220  60.8885193   2.1545167  69.3953228  23.7364602  38.6550546
  70.3513098  23.7081456  38.6939406  69.1893005  24.6574044  38.4948945
  12.6978635  90.3450685  13.0116236  12.5613164  90.8962375  13.7822068
  12.4960899  90.9157878  12.2701395  15.3321603  17.0450425  33.6556935
  14.3926099  17.2245955  33.6203456  15.6930688  17.5078809  32.8995466
  75.9396505  21.8533444   8.1107068  76.4577770  22.3161340   8.7691903
  75.1837111  22.4205232   7.9587311  81.7671108  24.2540932  18.5820425
  81.9032097  23.9671183  19.4850135  80.9345055  24.7258258  18.6035597
  66.1991739  65.0484610   7.3300231  66.8302917  65.5486345   6.8125772
  65.3562212  65.2190256   6.9098234  56.6976786  65.3170681  22.7970934
  57.5698328  64.9593687  22.6308680  56.8319654  65.9632587  23.4903717
  53.7162256  43.4350014   4.4707727  53.8128901  42.5748634   4.8794881
  53.0676270  43.3003283   3.7798232  80.4531193  64.9393892  18.5847366
  80.6215000  64.0075970  18.4445643  80.4032230  65.3090286  17.7031982
  99.3347068  76.1051972  89.5558818  99.0417285  76.7456443  90.2041282
  99.5780034  75.3364427  90.0716846  46.0546017  31.1952353   7.1501625
  45.7948256  32.1027493   7.3088038  45.5626965  30.6888103   7.7965349
  77.2954841 103.6003978  79.4118404  76.9950838 103.9021070  80.2691412
  76.5009089 103.5621173  78.8794696   8.8024043  97.7041347  76.4955354
   9.0677546  98.6106784  76.6504633   9.4117640  97.3867805  75.8290529
  16.6583918  86.1883862  83.8721609  16.5362738  87.1120603  83.6527342
  17.5853919  86.0221107  83.7011236  98.9534374  98.3641155  65.0202894
  98.5996862  98.5527189  64.1510820  99.7238584  97.8213365  64.8527241
 109.4455024  23.0492093  82.5794154 109.3763372  23.4778525  81.7263556
 109.6334811  23.7613512  83.1907630  99.6566582  26.3398337  27.4098349
 100.4029274  25.7419133  27.4522781  98.8900757  25.7666039  27.4114084
  83.2877445  24.9559045  34.4414496  83.9368153  24.8960900  35.1424241
  82.4547958  24.7559667  34.8685956   8.2189558  81.9986756  69.8440313
   8.4694003  81.3820679  70.5320024   7.2684573  82.0762498  69.9263310
  48.8951635  61.8732262  18.9364469  48.5923910  61.1151648  19.4363511
  48.1237459  62.4350977  18.8626492  27.2345733   0.6039168  58.3274317
  28.1210803   0.6743266  57.9733348  27.2903346  -0.0990556  58.9746976
  96.7600056   7.9543425  85.5081904  96.7098328   7.4086977  86.2930375
  97.5844999   7.7013756  85.0929219  77.2133608  77.6443131  72.7975142
  76.8852325  78.2282646  72.1137285  76.7305227  77.9005225  73.5832989
  37.8477477   3.2769276  69.3566966  36.9872379   3.6555172  69.5367575
  37.6787090   2.5976492  68.7038279  59.9755307  81.7711742  64.4804668
  59.6800156  80.9242852  64.8146534  59.2261072  82.1102126  63.9909267
  15.7201956  60.3713603  65.7147956  15.6086920  60.2369739  66.6559339
  15.5713843  59.5075400  65.3302169  38.2031202   5.6064202  83.8207561
  37.3298215   5.9743048  83.6856943  38.6061811   5.6213356  82.9526818
  59.7028160  44.5707512  21.6691113  60.4128504  44.8880100  21.1110520
  59.8559904  43.6284876  21.7391396  58.7388659  23.3723283   1.8693770
  59.0938568  24.0560865   2.4374357  58.9732885  23.6508107   0.9840942
  38.6351752  34.9414182   6.7190123  38.3545065  34.7255540   5.8297098
  39.3424153  35.5753088   6.5997356  37.6583719   5.4557396  76.0629988
  36.8929195   5.6253983  76.6121161  37.9176902   4.5610787  76.2833905
  30.4650450  49.9719667  17.3603606  29.5942926  50.0631475  17.7472782
  30.3008676  49.8660326  16.4233148  58.7221622  63.5717821   3.3881062
  58.3973312  64.2750597   2.8258616  59.3253136  64.0064096   3.9910483
 111.1728759 105.1931817  85.3609037 111.1970373 104.5073373  86.0281843
 110.7327791 105.9278829  85.7884085  72.9150772  26.5992904  39.0197444
  73.4160662  26.7080688  38.2114077  72.8942966  27.4738836  39.4081831
  54.0451431   8.8191390   7.1149212  54.9087906   9.2045403   6.9672394
  54.0640211   7.9953361   6.6278648  83.3176561  92.4205429  89.5761393
  83.0640359  93.1276376  88.9829025  84.0533777  91.9926889  89.1380960
 103.8979907  97.8040702  81.6865510 104.8148628  97.5348098  81.7419875
 103.8951679  98.5136468  81.0441124  82.0327282  16.8870234  15.9894717
  81.6571522  17.7605581  16.0995102  82.1092606  16.7768645  15.0417161
  73.0442762  35.3137779  12.6397943  72.7836227  34.4132805  12.4464083
  73.8701391  35.2270794  13.1158841  54.2637920  38.7335610  14.5534873
  54.1600037  39.6832609  14.4940841  55.0497580  38.5459566  14.0403676
 106.6346069  98.0634553  78.0860841 105.8186193  97.5633438  78.0692554
 106.4429422  98.8517005  77.5779867  49.2905903  50.1131630  32.6050544
  50.1415730  50.5253792  32.7538347  48.6736202  50.8440590  32.5679708
  82.9673958  19.6203351   9.1422915  82.6591492  20.5258060   9.1057491
  82.8324413  19.2854214   8.2558084  62.7742338  12.1169257   3.1326178
  62.7722454  12.2044933   2.1794340  62.5808096  12.9974103   3.4544319
  44.2792606  44.6391869  17.2723520  44.2374897  44.0816689  16.4953971
  43.8671589  45.4594183  17.0010078  30.0960064  35.6909657   6.8819386
  29.4711208  35.4503107   6.1979520  30.8984113  35.9084702   6.4075238
  60.1091671  44.7251511  15.6600368  59.9513006  43.7926292  15.8073783
  60.9421778  44.7556353  15.1895058  52.8540945  37.1602488   5.3543913
  52.3893690  36.8264318   4.5870396  53.5654974  37.6886010   4.9924740
  71.0817575  63.7450647  17.8457749  70.3350878  63.3205795  18.2683015
  70.7723904  63.9513779  16.9637549  71.4136600  32.7182221  13.2619596
  71.3682175  33.3001971  14.0205586  72.2407675  32.2486043  13.3695662
   8.0854558  18.2673909  88.9081918   8.9184331  18.5065104  89.3146503
   7.7254533  17.5898434  89.4805190  49.8421001  31.2533569  66.0859108
  49.3380690  30.5454040  65.6846809  49.6977282  31.1470866  67.0261765
  23.6961007  39.3677521  10.5581903  24.2166758  38.9954090  11.2699449
  24.2866659  39.3691707   9.8048884  60.9648848   1.8010844  17.2841227
  60.7774448   0.8670838  17.1906316  61.9004107   1.8775709  17.0965850
  51.6403866  34.0052772  30.9430790  51.5696430  34.8379850  31.4097977
  51.4315653  33.3429837  31.6018581  14.9318694  72.8061588  85.4999381
  14.1576098  72.2916372  85.7280266  14.6875380  73.7092097  85.7025081
  45.8782816  52.9985762  12.9974961  46.2674713  53.3211565  12.1846569
  45.4243374  52.1951056  12.7433372  89.8676582  84.3175108  87.3104712
  89.5207782  83.6294348  87.8783253  90.8052631  84.1327770  87.2556424
  47.5032091  24.6253681   1.2386248  46.6178322  24.6504426   1.6015410
  47.4669075  23.9460111   0.5652828  18.4492110  64.6106369  79.0035570
  18.1807040  65.3129978  79.5958614  18.8503836  63.9557667  79.5749056
  22.0049857  72.3791439  79.4620931  21.5981673  71.7374117  78.8799334
  22.8834914  72.0343668  79.6220529 106.1760373  80.7721860  53.1915903
 106.9989963  80.2977664  53.3094716 106.2294145  81.1275775  52.3044157
  38.8033915  27.5248694  17.7354133  38.6292338  27.0561242  16.9192171
  39.7106028  27.8190398  17.6537800 111.3906999  95.1142175  68.7834978
 110.7562824  95.3310115  69.4666886 111.5504260  95.9435756  68.3330703
  80.8375740  48.6228943   9.3059486  80.7082653  48.2038641   8.4551090
  81.6556835  49.1106319   9.2108637  99.6992012  23.1812359  60.8552432
  98.9861103  22.5564219  60.9869385  99.9085375  23.1129052  59.9237180
  93.0066200  80.0092037  63.2215071  93.5972495  80.3625710  62.5562835
  93.2721897  80.4430182  64.0323758 109.4979806  78.9803512  62.3357773
 109.5494886  79.8718197  62.6805449 110.2313323  78.9174683  61.7238379
  51.9452715  20.0791502   3.0552682  51.7838097  19.3304062   2.4812090
  51.6286230  20.8340120   2.5591320  94.3498607  63.4489412  91.1471892
  94.2697425  64.3565316  91.4406026  95.2176805  63.4026594  90.7459648
  26.5372228  89.4797414   8.7193370  26.4784192  89.8737555   7.8489769
  26.8303918  90.1933235   9.2859787  91.1937523  37.7002335   6.0728788
  90.4052067  37.7929735   5.5382496  91.1660385  38.4462380   6.6719925
  38.4259057   0.5077897  18.9172256  37.7658916   1.1092915  18.5725367
  38.7564039   0.0472874  18.1459022  16.1763143  95.2068525   8.3687711
  17.0318221  94.9232667   8.0464041  15.7741927  95.6508612   7.6221895
  77.1583176  22.7314329  71.2995100  76.7715168  22.2583294  70.5627680
  76.9106436  23.6445689  71.1543465  63.6758518  16.7656815   5.0100821
  63.8320255  17.0328581   4.1042906  64.4750595  17.0145190   5.4743850
   9.3698977  79.9445779  71.4434493  10.1871203  79.6271713  71.8276727
   8.8232134  79.1628988  71.3637900  84.5761681  42.6237679   8.2187611
  84.6884441  43.3341074   7.5870597  84.8840904  42.9897118   9.0479159
  69.5603848  68.4669542   2.4965455  69.3761587  69.3924522   2.6569974
  69.8530960  68.4354067   1.5857458  58.4461260  40.9054708   2.8673846
  57.6078272  40.5159092   2.6189318  58.2121372  41.6186476   3.4614071
  60.2712202  54.1553593  16.2693834  60.8528566  53.6309099  15.7190359
  60.4540777  53.8594961  17.1611559  63.5335302  19.5241143  53.5985970
  63.5791253  18.5920645  53.8117528  63.7299108  19.9683310  54.4234228
  66.9418812   7.4823624  11.0654664  66.0940599   7.8337389  11.3374233
  67.2368622   8.0760503  10.3749931  32.2823930  50.2877569   3.7048250
  31.4730263  50.0301647   4.1461891  32.7558303  49.4661808   3.5740733
  46.1004543  62.4017334   2.9864603  45.6844330  61.6644430   3.4331897
  46.7223072  62.7491999   3.6258301  50.7527924   1.1802784   3.0859253
  50.6829977   1.5380386   3.9710060  51.3334608   1.7874652   2.6272553
  72.6305151  54.3201590  11.6410553  72.3205853  53.4558916  11.9116509
  73.1848812  54.6130753  12.3643196  99.2632337  83.2516391  49.6942329
  99.6299453  84.0245993  50.1235199  98.9135118  82.7227147  50.4112864
 107.8165288  59.1794039  80.9587133 107.8566976  59.0393354  80.0126696
 108.4033103  59.9190230  81.1164582  32.5411940  43.0784607   5.5593783
  32.4109149  43.9928484   5.8106899  31.8657184  42.9122066   4.9018639
  25.2441358   3.3174588  78.6081839  24.6797513   2.9717423  77.9166746
  25.2555751   4.2627074  78.4578109 106.9624133  68.3685608  81.9583935
 106.2793537  68.0012650  82.5194252 107.4512525  67.6070447  81.6463685
  41.4356518  37.9735231   0.6294052  40.6144714  37.4937773   0.7377800
  41.5906572  37.9727006  -0.3151602  58.2255979  85.2238233  77.7440751
  57.8951021  84.6659739  77.0399368  59.1760702  85.2141626  77.6312041
  65.1994057  79.8535426  79.3002903  65.6489559  80.6957562  79.2309308
  65.5371399  79.4676192  80.1085186   1.7605685  81.8405611  89.4755578
   0.9984110  82.1600897  88.9925981   2.1234225  82.6211913  89.8941123
  47.0050764  37.9747415   5.1976240  46.8870258  38.8013029   4.7295502
  47.9438162  37.7975178   5.1377100  57.9167318  15.1920725  89.1251338
  57.7376031  14.8827483  90.0130886  57.0514440  15.3476788  88.7465915
  71.7733522  97.5009305  47.1781445  71.7690416  98.4426839  47.0069408
  71.9769330  97.1044261  46.3310480  74.7742367  67.4278402   3.2529682
  75.1563311  66.6994047   2.7634555  75.3537369  68.1679535   3.0722946
   4.5867203  75.1868279  86.8644029   5.3855322  74.9607141  87.3408502
   3.8805436  74.8061020  87.3865062  76.3645506  50.4884481  12.5930059
  75.8837795  49.7701693  12.1817017  77.1934319  50.5261135  12.1157587
  79.2630954  67.8489513  85.5711430  79.0866371  67.0865292  86.1223292
  79.9736686  67.5682945  84.9944717  90.1751741  39.1742064  77.5274622
  89.9155542  38.6612631  78.2927835  89.5901462  38.8773085  76.8304503
 103.9896079  20.5546500  78.0103564 104.1924401  19.7901083  78.5493970
 104.6579763  20.5487467  77.3251700  99.7028060  49.1233263  89.1368592
  99.9221797  49.9503932  89.5658921 100.0408883  49.2183689  88.2464099
  65.3991985  55.5629921  23.2481599  65.8572149  56.3785172  23.0447507
  66.0966396  54.9149895  23.3476496  38.8965988  93.5379219  24.0359306
  38.7811875  92.6413822  24.3507695  38.8341260  93.4671783  23.0833960
   7.3126745  17.6044346  85.9740949   7.6326370  17.8640152  86.8380815
   8.0748367  17.6886870  85.4011738  65.8964682  32.6069856   1.3574418
  66.0799932  33.5115361   1.1037892  66.7588186  32.2231007   1.5162368
  10.1932047  79.2500217  74.6384978  10.7799242  80.0020392  74.5581162
   9.4492911  79.5794613  75.1427746  92.3110862 103.3889921  62.8966880
  92.9904409 103.6758716  62.2864342  92.7710004 102.8267343  63.5200453
  86.9711018  84.6919823  19.2740858  87.4515438  83.8644028  19.2968369
  86.0617542  84.4368172  19.1184843  86.0822673  91.4458091  82.8257006
  86.6589065  91.5710647  82.0720243  86.6029020  90.9316165  83.4427732
 108.2163568  67.3721774  67.6201367 108.4711356  67.1355910  66.7283154
 108.2616849  66.5500374  68.1082582  91.1861134  41.5975237   3.9238086
  91.5614700  41.9253969   3.1065959  90.3077888  41.3030720   3.6827880
  41.7407274   2.1503426  86.0102004  41.5504646   3.0807234  86.1302811
  42.2490882   2.1124483  85.2000368  51.4826202  31.7055440  32.3516226
  51.8506479  30.8761644  32.0467925  52.2248125  32.1684289  32.7403641
  28.1610918  48.5266399   1.8433876  27.6366878  49.1535568   2.3415956
  27.5596237  47.8056049   1.6574329  31.1460495  80.3746986  35.0066280
  31.3263154  81.2199974  35.4179811  31.8792295  79.8187447  35.2704310
  45.0360394  41.7396498  19.0808785  44.9357891  41.0433578  19.7300017
  45.7644606  42.2680950  19.4070351  52.0485735  41.3172293  22.4602032
  51.9630098  40.9490728  21.5807867  51.6517019  40.6618023  23.0339026
  81.0605335  54.3054724   9.5137477  80.3481960  53.8577986   9.0572453
  80.6232834  54.9682903  10.0482678  65.4516554  33.8024163  32.9321003
  66.0025978  34.5382404  33.1990361  64.5770502  34.1798329  32.8380084
  82.3067232  98.2326610  44.5326519  82.8235431  98.5351570  45.2793932
  82.2696967  97.2818239  44.6364355  67.7077579  64.2195034   9.5359731
  68.2371140  63.4351730   9.3916303  67.2454882  64.3521214   8.7083542
  84.6227784  96.0803325  80.5070305  84.3552347  95.9249837  81.4128554
  85.2539964  96.7977054  80.5634010  63.6854124  64.4827366  20.1696420
  63.0935383  64.9916506  20.7236481  64.3973207  64.2234230  20.7545996
  44.1327667  13.6125398  21.9568586  43.4935760  13.2313740  21.3548803
  44.0311146  13.1089485  22.7645063  30.9053849   6.2744738  90.2544836
  30.0067090   6.3049294  89.9263248  30.8635234   6.7061116  91.1078117
  31.9070577  13.1182076  86.3039318  31.2282800  12.4479367  86.2249750
  32.6169681  12.6854540  86.7782533  22.5084233  12.1681154  10.8327758
  22.8684139  12.6685989  10.1005495  22.0406842  12.8165174  11.3591075
  29.1064501  15.5363166  40.1224661  28.4348917  15.4204667  39.4502902
  28.6284328  15.4840946  40.9501171  36.8235397  32.8541923  19.0213883
  36.0999990  32.6161289  18.4416926  37.6079345  32.5586367  18.5592151
 102.3153253  84.1106756  80.8219099 103.0726190  84.6639330  80.6304836
 101.9945045  84.4275625  81.6662377  33.3818006  22.8347279  39.0848112
  33.2967328  23.7667109  39.2858315  34.1697501  22.7772213  38.5443878
  90.2233215  75.9735567  48.1431055  89.9378391  76.8871910  48.1415319
  90.5290790  75.8166249  47.2497320  54.7645664  20.5530214   2.5559339
  54.8188734  20.8662963   3.4587860  54.2099810  19.7744298   2.6055202
  60.5522013  35.3666282  16.0682392  61.2546730  35.5297017  15.4388154
  60.3954220  36.2173986  16.4779222  96.3781830   4.2507721  84.8856342
  96.8400665   4.5495583  85.6689745  97.0687910   3.9167525  84.3131638
  49.9814510  28.4069610  12.5593209  50.1084661  27.5821471  13.0281281
  50.3592539  29.0709162  13.1360877  44.6332121  60.1166487   3.6241958
  45.4324293  59.6349287   3.4110445  43.9240789  59.5089817   3.4141797
 110.3197522  86.1276133  73.9032280 110.5525680  85.9626706  72.9895425
 110.3954835  85.2730329  74.3277168  43.7934399  20.0258970  27.5551319
  43.4679031  20.9206533  27.4568105  44.3057060  20.0448751  28.3634996
  58.9712191  43.2534027   8.3300114  58.3859253  43.8726044   8.7661880
  59.4613361  43.7870359   7.7045149  56.3805294  36.5561867   5.5871373
  56.1391878  35.6336594   5.6703746  57.3286915  36.5684414   5.7177770
  31.0293555  62.9843187  32.5632262  31.6308546  62.4040937  33.0298829
  30.1580548  62.6864958  32.8247046 105.7670446 102.1966751  62.6097274
 105.5724759 102.1344573  61.6745782 105.2236934 101.5196330  63.0129838
  90.0689359 103.4863002  84.3284291  89.4312854 103.7806232  83.6780399
  90.4729934 104.2924173  84.6495813  51.4795256  27.0488000  18.0992079
  51.4150953  26.8924880  17.1570575  51.0769606  26.2773800  18.4980607
  80.0762410  90.1649458  78.7184656  80.7947011  89.6896703  78.3011460
  80.1299758  91.0484631  78.3541286  31.3929605  23.1561114  90.8518392
  31.6092157  24.0324570  90.5332761  32.1899795  22.8568722  91.2893882
  45.0674486  66.9818640  15.6132567  44.2938757  67.3476028  15.1842451
  44.7152281  66.4121008  16.2970281  72.1895409  60.2668381   4.5595083
  73.0286980  59.8422813   4.3811986  71.6944647  60.1699495   3.7460315
  77.8189850  61.1572790  25.4348826  77.7826262  60.9188032  24.5085812
  77.4993467  62.0591021  25.4627562  71.4133024  54.9984360   1.3890566
  70.4815626  55.2162790   1.3636455  71.5911055  54.6067572   0.5339519
  34.5612311  33.2523251  32.3363566  35.3173685  32.6977587  32.5285745
  34.0378547  33.2297945  33.1374812   4.9927853  84.3469555  79.7411275
   5.4752921  85.0056465  79.2415822   4.7208069  84.8023922  80.5378950
  14.0421484  96.8787391  68.5894895  14.6118258  96.1670787  68.8814282
  14.4646834  97.2149045  67.7991176  53.4193850  11.0738623  65.1567650
  54.0103483  11.7217362  65.5404997  52.5481796  11.3412416  65.4495764
  28.1397986  42.1307325   0.8898246  27.3789454  42.7112865   0.9069844
  28.2538700  41.8584156   1.8003529  50.8784056  58.0390024  14.4789863
  51.7393208  58.3860970  14.7126234  50.9956694  57.6795435  13.5996294
  82.9469438  73.5859568  83.6711431  82.6283546  73.1244047  82.8954482
  83.8216873  73.2272799  83.8208485  48.5131120   7.6229979  90.3898874
  49.3974542   7.2567154  90.3863696  48.0791711   7.1941306  91.1274484
  81.6624355  62.7698946  15.6768572  80.8649063  62.5074768  16.1365461
  82.3710442  62.3623514  16.1748636  60.1896954  31.1320615  11.1363041
  59.9989080  31.8980289  11.6777146  60.1907015  31.4668512  10.2395618
  87.1116734  82.4143887   8.6483973  86.8201542  83.3195877   8.5395104
  86.8507195  81.9794273   7.8366399  88.9765739 100.2071190   4.4854596
  88.1090260  99.8036766   4.5142460  88.8173676 101.0948467   4.1647881
   9.4429492  78.2165677  89.5097157   8.9970873  78.4712846  88.7019038
   9.5931052  77.2760684  89.4140905  82.8730011  39.6317124  18.6584723
  82.7686787  40.0475836  17.8026676  81.9937611  39.6384096  19.0367913
  22.1143198   5.5785805  10.0535488  22.0000362   5.9873080  10.9115183
  23.0134034   5.2502459  10.0625098  45.0023317   4.9147965  84.5315987
  44.1932439   5.4045178  84.6791959  45.6989431   5.5580927  84.6625161
  40.5443762  78.1202705  55.2789736  40.1108740  78.9570744  55.4465127
  41.4767169  78.3074124  55.3882456  95.6089020  41.8859959  28.7279201
  95.2882671  40.9926319  28.6041069  94.9405670  42.4386454  28.3227825
  74.0808268  80.5907161  83.3882284  73.7659784  81.4727456  83.5860348
  73.3765240  80.1944287  82.8752506  86.6596647 103.1803377  86.5786627
  87.4497886 102.6522977  86.6931704  86.3434215 103.3343561  87.4688876
  75.1488014  78.5023982  81.2857711  75.3548904  79.2596753  80.7377839
  75.3520627  77.7460797  80.7354081  21.2565231  55.0242376  20.3542089
  20.7580638  54.2878294  19.9999917  21.8343234  54.6301270  21.0077024
  67.3049593  10.1388192   5.4296553  66.5039492  10.6451297   5.2945167
  67.8146648  10.6583357   6.0513765  53.3515215  49.9613142  21.3671470
  53.7328577  50.1449966  20.5086160  52.7581644  50.6950808  21.5276194
  69.5276451  38.4977078  26.8900752  68.8364315  38.7749505  26.2887502
  69.6378756  39.2384911  27.4861622  37.0741105   8.6496603   1.7942278
  37.4725962   7.8711963   2.1833749  36.3878274   8.3067274   1.2218262
  30.0577116  47.1687555   4.7390315  30.0044394  48.1115818   4.8954841
  30.9924889  46.9973660   4.6248123  23.7982749  14.0154435  88.4245232
  24.5639753  14.2885519  87.9192060  24.1233587  13.3180357  88.9938888
  69.0248728  45.5353022   1.1249557  69.9321127  45.8398914   1.1056594
  68.7360477  45.5851698   0.2137343  69.2541075  16.2330639  24.2201161
  68.9762735  17.1483755  24.1848135  68.8160133  15.8794701  24.9942470
  65.2884007  67.5735950  18.3971000  65.4791880  67.7225542  17.4710083
  65.5015421  66.6514730  18.5402501  83.8245964  55.1627398  10.0175762
  84.3593597  55.3068209  10.7982862  83.0647755  55.7320166  10.1393116
  86.8894672  54.7662687   1.2542257  86.6690350  54.7217989   0.3238164
  86.4439869  54.0130949   1.6421774   1.6174840  16.9774319  63.9065266
   0.7115459  17.0503785  64.2068410   2.1028637  17.5907112  64.4583631
  47.2570562  17.7330184  23.5684967  47.6238060  17.6196671  24.4453549
  47.5369453  16.9531870  23.0891681 107.5283452  97.7683669  13.5212719
 107.8531476  97.4344682  12.6850617 106.5797444  97.8226346  13.4053123
  66.9163799  16.0666919  13.4284520  67.3927259  15.2365124  13.4171927
  67.3299599  16.5706527  14.1293132  58.2445288  69.8191690  10.1043725
  59.0798855  69.4168425   9.8665851  58.0122757  69.4131804  10.9395158
 106.3477465   9.8536469  78.0871320 106.1010262   8.9497973  78.2831180
 107.2021838   9.9644829  78.5041225  59.3242884  25.9536600  10.4928565
  59.3734217  26.4996743  11.2775135  59.4610071  25.0618863  10.8126688
  39.6853638  38.1250262  37.8983378  40.4470682  37.6732135  38.2615232
  39.8977542  38.2466578  36.9729567  41.1877108   5.2194273  25.1262760
  41.6182041   5.7913107  24.4907808  40.3541946   4.9896038  24.7155857
  31.6595793  86.6105080  11.2804461  32.5427175  86.5865803  10.9120333
  31.1684203  85.9691143  10.7670164  68.5407448  41.0196543  12.0157266
  69.3553638  40.5674267  11.7963600  68.6401606  41.2586784  12.9372549
  32.9873610   2.3342972  38.6291289  32.2535968   1.8297765  38.2780170
  33.5316062   2.5282770  37.8659773  67.2310972 102.0251560   0.2542892
  66.7381525 102.4059486  -0.4725112  66.7964602 102.3586273   1.0392247
  76.1164570  62.3532629   9.5257771  76.9419718  61.9141436   9.3209988
  75.8311892  61.9554758  10.3483450  56.2235784  20.2712609  76.2803769
  55.9350538  20.0389410  77.1629965  55.4126500  20.4315831  75.7977462
  68.6146355  63.0685377  15.8694661  68.0905342  62.3060703  15.6241286
  68.5890770  63.0789185  16.8262696  43.1178188  47.7114105  14.0983474
  42.4079895  47.8231525  13.4659827  43.7491322  47.1467304  13.6524618
  91.6235161  24.6361136  18.7222445  90.8609962  25.2147007  18.7169325
  92.0453072  24.7879791  17.8765106  76.3114405  46.3785505  23.0979466
  76.1069727  45.4985189  23.4141231  77.1875525  46.2998915  22.7204943
  63.7456608  81.7267609  32.1536779  63.2444239  82.2725868  31.5478206
  63.3665705  81.9122410  33.0128169  85.4090023  55.6417990  12.2641206
  85.9245110  54.8637009  12.4763536  84.5576382  55.4836512  12.6720452
  96.1145496  57.1857309   6.9759679  96.7864609  57.2462320   6.2969220
  96.2919617  57.9268646   7.5551701  48.2007932   5.6616045  62.2375536
  48.8297700   5.8583714  61.5433645  47.9858159   6.5146519  62.6148248
  91.9587040  26.6323352   7.8358817  91.5932083  26.4275098   8.6965144
  92.8916073  26.7715573   7.9988194  25.6453824  54.3091679   8.5536218
  24.7449565  54.1323709   8.2812077  25.9242725  53.5065126   8.9943051
 101.0830684  91.7470963  55.3907466 101.0291381  90.8593352  55.0369072
 101.1350007  91.6243870  56.3386273 101.8791676  74.8526049  12.4826503
 102.2002888  75.1874924  11.6454160 101.5690994  75.6293344  12.9482436
  72.3308086  48.8531399  16.7070460  72.2451258  48.3483744  15.8982801
  72.5063133  48.1969500  17.3814654  55.9428358  43.9018202   7.1813786
  56.3372087  43.5274887   7.9691476  55.5508327  43.1536245   6.7310750
  36.1331510   7.1408821  61.4636016  35.6121492   6.5698220  60.8990836
  35.5402660   7.8564860  61.6930032  88.9482589 104.6549995  54.6106076
  88.8698526 104.0135105  53.9045072  88.0451103 104.8962076  54.8164487
  73.3482885  25.4935718  41.5920734  72.8971291  24.6565557  41.4821148
  73.2165432  25.9478092  40.7598829  84.3977261  49.8802328  17.7494371
  84.6528435  50.1265955  16.8603647  83.6595345  49.2827272  17.6299071
 103.9869690  67.8550720  22.4131131 103.8936996  67.5257206  21.5192103
 103.9371014  68.8068199  22.3241258  88.9428039  67.8167362  56.8406963
  88.8957258  67.1181304  57.4933577  88.8651128  67.3650582  56.0003495
  15.9296988  96.8925626  75.6131732  16.4579581  96.4184768  76.2553668
  16.3509177  96.7082603  74.7736275  77.4016571  26.2037134  11.1544681
  78.3154964  26.2739396  10.8784282  76.9200039  26.7437291  10.5278659
  24.4908617 101.6405780  90.5172714  23.5629843 101.7770345  90.3258013
  24.9017809 101.5485389  89.6576783   0.4861882  76.8760109  11.0898054
  -0.0097129  76.6631842  10.2992249   0.3659013  76.1164379  11.6597283
  90.1142693  49.6251488   4.5186242  89.7723103  49.6827745   5.4107982
  89.5167923  50.1619673   3.9979750  19.4966696  80.1821644  62.4045372
  18.9146899  79.9039848  61.6973209  19.8153399  79.3650253  62.7878904
  86.0779381  35.9168267   8.5117793  85.3322983  36.2387991   9.0183175
  86.3398075  35.1109052   8.9569199 102.6210308  26.3622570   0.3693037
 102.6102161  26.5675902  -0.5655509 102.3533058  27.1759963   0.7963684
  52.8010464  34.6556711  23.8390255  52.1548653  33.9634061  23.6995482
  52.8968287  35.0702000  22.9815745 111.4224382  94.6276052  72.2563958
 112.2913165  94.2354925  72.3431885 110.8519883  93.8960321  72.0205641
  85.9659334  97.7664573  83.7549090  85.4581161  96.9690711  83.6048234
  85.6145759  98.1242759  84.5702273 110.5275007 101.8497236  61.5452528
 109.8511548 102.3524101  61.9992304 110.6552739 102.3131139  60.7175016
   1.6452002   4.2435099  89.4437912   1.6648363   4.3331362  90.3965839
   1.1831784   5.0245406  89.1392273  56.3478422  69.9357033   2.2706400
  57.1480513  69.9873209   2.7933580  56.5557909  69.3115616   1.5753430
  44.9288320  19.8653246  79.2631412  44.1268396  20.3864075  79.2242861
  44.6973562  19.1093422  79.8027170  92.5649829  66.4384050  82.7054435
  92.8179546  66.0238035  81.8806154  91.6418596  66.6624625  82.5876486
 109.6370125  86.0353565   9.3012857 110.3191376  85.8884907   8.6460245
 109.8946667  85.4869556  10.0422978  41.3920164  42.5574017   2.6496029
  40.7966805  42.0468855   3.1984061  41.0435677  42.4601507   1.7633986
  93.7407970  28.6924243  10.5629563  93.7506771  28.2942605  11.4333582
  94.0987015  28.0171752   9.9866068 109.4187541  95.8820922  71.0899830
 110.1868005  95.5943925  71.5835059 108.7400623  96.0054929  71.7535949
  69.6842957  57.5317192  32.3938584  69.0089083  58.1191254  32.7330303
  69.3786716  56.6551924  32.6273656 103.4752508 101.1209018  82.8266692
 103.2386108 100.2531536  82.4991870 102.9477973 101.7258079  82.3050261
 101.8135925  16.8759514  62.3567963 101.9513079  16.0133053  62.7480888
 102.2177597  17.4860789  62.9737425   5.9027766  81.9092066  66.9236064
   6.7009924  82.4369199  66.9483876   6.2098311  81.0181887  66.7561555
  99.5083566  85.0854428  90.6130955 100.1506706  84.4315345  90.3372931
  98.8228841  85.0439699  89.9462822  75.7692479  55.5273463  87.1815908
  75.8825731  54.7338034  86.6584530  75.4617357  56.1841704  86.5568867
  69.1345549  51.4571762  23.0710459  69.9722528  51.8148184  23.3652902
  68.5557222  52.2175217  23.0156350  38.7906980   2.6323487  76.0143113
  38.1422471   2.8431918  75.3425288  38.3526468   1.9950510  76.5784013
  88.7254138  99.9644430  69.3123221  88.7510391  99.2494018  69.9481654
  89.3133159  99.6828372  68.6113930 108.4696674  24.2032480  11.2171459
 108.7567997  24.4416261  12.0986032 107.8112316  24.8610687  10.9936345
  41.9014931  40.7252645   5.7791632  42.1193361  40.3468943   4.9273348
  40.9458160  40.6896782   5.8197075  29.8139761  84.1471059  76.1421418
  30.6674002  84.5500548  75.9823644  29.9139784  83.2453616  75.8370328
  16.4481352  92.7323205  75.7766354  15.9522913  93.2136733  76.4389598
  16.2948988  91.8108351  75.9854698  75.7050037  78.0296612  26.3734388
  76.3568449  77.3636198  26.1549830  75.8900785  78.7518978  25.7731414
  40.2418422   4.3217875  78.1183434  40.5538368   3.7426735  77.4229896
  40.9630298   4.3513323  78.7470293  20.9498452  17.9362751  85.4741395
  21.2203359  17.1124722  85.8796245  21.4935588  18.6011149  85.8967477
  32.6141595  16.1872555  87.8119147  32.1778297  15.3372313  87.8694218
  32.9834651  16.2076689  86.9290605  29.2146634   0.5255104  90.3233064
  28.9616489   1.1559416  89.6489382  29.1857814  -0.3228782  89.8809966
  46.4264726  23.7972666  70.5314422  45.4819059  23.6649872  70.6122637
  46.5128278  24.5943476  70.0085330  48.2079458  29.5987345  77.1892023
  48.1602334  30.3158881  76.5570283  48.8448667  29.8947169  77.8395557
  11.9400118  78.3215124  83.2341611  12.5083064  79.0629489  83.0254984
  12.4794386  77.5500352  83.0607533  32.0547103  10.6943299  69.7959304
  31.2688731  10.2407957  69.4909716  31.7243766  11.4834668  70.2253246
  74.5789099  91.4536572   2.0711641  75.3042364  91.0226631   1.6190833
  73.7973881  91.1642551   1.6003108   4.5271395  69.7996349  75.7693529
   5.0296687  70.3873868  76.3334858   5.0530337  69.7241623  74.9731278
  52.2408819  97.9466820   3.6903128  52.7404737  97.2647476   3.2413036
  52.7977753  98.7236214   3.6405650 103.4684181  29.9863791   7.0523822
 102.5766945  29.7342944   7.2921926 103.7601852  29.2966509   6.4562416
  59.7635365  48.9471340   7.9299122  60.6054020  49.4022608   7.9112768
  59.2521000  49.3609571   7.2346294  40.6364774  19.9510552  70.5015492
  40.2150344  20.5991150  69.9370742  40.5483531  20.3093077  71.3847947
  74.9923897  31.6654658  27.9693747  74.4595480  31.0357094  28.4548831
  75.7730770  31.1732292  27.7154803  71.4485598  66.4006424  29.1346407
  72.3368263  66.7456198  29.0440774  70.8898687  67.1777868  29.1466308
  42.2735500  19.3135334  89.1405967  43.2236051  19.1987349  89.1194490
  42.0917796  19.6442248  90.0202759  75.2281952  85.1813507   7.0602638
  75.1014805  86.1171818   6.9040710  74.9656248  84.7638893   6.2398863
  57.2237539  59.4721937  36.7958617  56.8451977  59.9359608  37.5427532
  56.5027428  59.3957567  36.1709332  94.4888592  57.6536942  14.1035366
  94.2880249  56.7509222  13.8567674  94.6008492  58.1105995  13.2699120
 108.7988186  58.4733963   6.3332194 109.4391441  57.7779484   6.4834499
 108.9305115  59.0814447   7.0606607 106.3261314  48.3762447  56.7693973
 105.8249469  47.5632043  56.8327403 106.4928098  48.6262838  57.6782036
  67.8283882  33.8525820  21.3059306  68.5589170  33.3655643  20.9246516
  68.1323433  34.0943480  22.1807957  87.4278355  38.7188339   7.6777565
  87.0629883  38.2062411   6.9563907  86.8228626  38.5731173   8.4050894
  70.9918165  86.1197758  27.4754167  70.2644825  86.5756512  27.0518661
  71.5586233  85.8498573  26.7528462  74.8369217  64.9518394  33.8475442
  75.7608128  64.7017384  33.8576603  74.5512199  64.7768450  32.9508924
  94.0450139 102.0217807  83.9592576  93.5147662 102.6983745  84.3803090
  94.5360799 101.6213186  84.6766949  63.6512895  80.7577593  86.2295365
  63.7885733  81.6310127  85.8623689  62.9464860  80.8739288  86.8667072
  70.2333117  73.5685635  30.0241661  70.9085035  74.1515923  29.6771431
  70.6260395  73.1881762  30.8098507  99.0891075  68.6725807   4.1375023
  98.2987309  69.2034912   4.0391171  99.7310257  69.2680597   4.5242453
  39.8286294  21.6506173  59.6993256  40.5827712  22.1248413  60.0494909
  40.0482558  20.7271077  59.8222876  12.3304461  74.7411282  89.8794778
  12.8275965  75.3601749  90.4141240  11.4270876  75.0537951  89.9286591
 104.0838286  33.8226725  89.2218323 103.3889528  34.4429327  89.0012366
 103.6586114  33.1776835  89.7869970  90.8924961  76.7250538  11.1139739
  90.8841419  77.6607704  10.9125066  90.0618744  76.3982010  10.7683372
 106.7827606  70.2373743   9.9063832 107.2790813  70.9038734   9.4313258
 107.4224949  69.5503712  10.0934851  52.1629429  55.3207207  21.0897064
  52.9266262  55.7408905  20.6941342  51.5808249  56.0461092  21.3159323
  89.7453117  72.5636148  20.0891066  89.1605377  73.3097696  19.9567306
  89.3000317  72.0231581  20.7416916  96.5934086  46.2442589  26.8337584
  96.9614697  46.8354702  27.4904370  96.5509129  46.7700815  26.0350513
  80.4061890  60.1655912   2.6820773  81.3541126  60.2390099   2.5712243
  80.1343441  61.0277891   2.9966420  55.1184797  50.0507402  19.2534399
  54.7013140  49.4390011  18.6468279  55.9129238  50.3331137  18.8002765
  71.4909029  34.3944788  15.3958893  71.0323668  33.8491344  16.0350871
  71.7550278  35.1710558  15.8892441  87.0276590  95.3014524  65.2588964
  87.4542375  94.5453079  64.8557806  87.6268287  96.0298116  65.0954485
  43.0684328  96.3699341  24.9623322  43.1239080  96.3429737  25.9175420
  42.7092457  95.5166817  24.7190928  72.5119305  35.2815366  24.8793173
  72.3822880  36.2254190  24.7870612  71.7950773  34.8913097  24.3792415
  69.3786621  56.4854383  17.9815900  69.7137928  56.7025137  18.8515294
  69.7226000  55.6099939  17.8040028  71.8231773  16.9312167  13.8396192
  72.2403717  16.8466258  14.6969569  72.5472641  17.0986676  13.2363820
  93.5053968  21.7951132  61.3196492  93.7759160  22.6710869  61.5948224
  92.6382112  21.9220950  60.9348059  67.3052450  88.2896931  70.0310135
  67.4267598  89.1020925  69.5396137  66.4094015  88.3428914  70.3639793
  25.3433417  83.8855345  79.0957451  24.7129248  83.1707818  79.0066743
  25.5883788  83.8748677  80.0209892  51.5011262  10.7273508  90.6129214
  52.3932122  11.0677601  90.6802217  51.5460729   9.8575713  91.0100358
  84.6814728  10.0533140  20.1014328  84.0479851  10.2490032  19.4110441
  85.5160713  10.3724015  19.7581422  52.7942324  46.3391113  22.1945596
  52.1785307  47.0150661  22.4777985  53.6445522  46.7785358  22.1848440
  78.1388616   2.3099638  75.3854597  77.8861093   1.4786269  74.9839294
  78.9606141   2.1177412  75.8371294  79.2144680  67.4125624  32.0433283
  80.1574135  67.2486925  32.0280695  78.9376402  67.1372843  32.9172945
  25.4498672   9.8993994  69.6638846  24.7863054   9.7117878  69.0000176
  26.1538743  10.3341795  69.1826653  82.1976566  41.0680199   3.3196524
  82.1877575  41.9615030   2.9763934  81.7989445  41.1401796   4.1868663
  65.5770683  85.4745102  15.2339184  65.1238918  84.9755478  15.9135509
  65.5422497  84.9118805  14.4603097  82.7235889  77.4868441  11.3119948
  83.5176754  77.1426964  10.9030712  82.0867443  77.5310373  10.5987597
  82.8203201  42.0113659  23.3040452  83.1743622  41.1221170  23.2925940
  82.6604652  42.2173977  22.3830509  75.0326204  61.6120815  11.9530165
  74.3624306  62.2900915  12.0389128  74.5514631  60.8340168  11.6713536
 108.5759588  89.0585191  88.1236836 107.9100175  89.1449721  88.8057992
 108.2446094  89.5863922  87.3971897  94.9770780  85.6075222  52.1108580
  95.3843065  84.7425134  52.0644164  94.9658628  85.8171399  53.0447555
  65.1371574  41.4958715   4.6229118  65.7900858  41.7985201   5.2540368
  64.5716715  42.2549629   4.4806647  72.3634911  67.8861618  19.7709525
  71.5436077  67.4639606  19.5144999  72.7541924  67.2851610  20.4052877
  84.5159054  54.0102768  20.0887656  84.6182156  54.0879393  21.0373092
  85.0370216  53.2425356  19.8537207  86.9716930  87.1000385  11.7187834
  86.9505882  86.3867855  11.0807753  87.4042130  86.7232323  12.4850583
  46.0821104  83.3318901   4.3941128  46.6478920  83.3269119   3.6220372
  46.0764647  84.2450619   4.6810278  42.6270819  48.0924988   4.8869121
  42.5396299  49.0186834   5.1122159  41.9837427  47.6496124   5.4402643
  83.7259145  88.7036974  55.6522799  84.5527454  89.1529662  55.4769468
  83.0617566  89.2534215  55.2364326  25.4704665  12.5123383  60.1029181
  24.7699737  13.0985762  60.3890371  26.0979127  12.5182082  60.8257651
  82.0407768  87.4822409  57.8506732  82.4868198  88.0453594  58.4832692
  82.4105211  87.7331788  57.0041800  31.6542863  17.4580408  71.4197135
  31.6887998  18.2132269  72.0068550  31.0369872  16.8576743  71.8377244
  87.4652286  63.4231300  90.8665678  86.9847389  62.6091839  91.0177308
  86.8230911  64.0095909  90.4666280  43.1357002  51.8617201  20.7717967
  43.4530210  51.2544250  20.1034164  42.2799158  52.1456861  20.4505062
  14.5163153  93.1758077  83.2319182  14.2070673  93.5636957  82.4132985
  14.3910311  93.8639505  83.8853675 105.1735206  98.3549125  73.1594837
 104.4944616  98.3559520  72.4848664 105.4249711  99.2742784  73.2476246
  99.5256233  75.7706022   3.9450449  99.6765232  75.6332064   3.0098540
 100.2767181  75.3584766   4.3719402  90.1387496  69.0359039  71.6904330
  90.7595392  69.6884317  71.3663101  90.6860967  68.3726604  72.1108484
  36.6316317  91.7188580  79.8986745  37.5061320  91.4932783  80.2158320
  36.6147612  92.6759012  79.9030316  74.1365051  62.6657677  14.4941509
  73.3000088  62.8024340  14.0493762  74.5380306  61.9318819  14.0289450
   4.6101616  97.6878030  81.7995048   4.4827364  96.9265134  81.2334359
   3.7235545  97.9797513  82.0114541  92.0604229  64.8636389  22.9246378
  91.9468689  65.2689934  22.0649719  91.2559032  64.3634510  23.0617404
  60.2570485   9.9387051  81.5999204  59.7890329   9.2298151  81.1586940
  60.1370477   9.7607256  82.5327426  94.6086450  85.1334865  80.8275008
  95.0341125  85.9410722  80.5393827  95.1586147  84.4339902  80.4747021
  97.5747776  55.6129074  25.6912208  97.8738117  56.2110329  26.3761020
  96.6750050  55.8854485  25.5113196  84.3615437  76.5063858  28.1690645
  83.6990643  76.2450743  28.8086486  84.7644520  75.6835794  27.8917789
  19.7944259  12.1257283  88.8239172  18.8456821  12.2499157  88.8501799
  20.1544189  13.0045630  88.9434475  29.7437619  30.2997900  86.3087648
  29.5061778  29.7303416  87.0405495  30.6683349  30.1107718  86.1485589
  31.9403100  70.8155823  30.7596135  32.2381711  70.1670218  30.1217437
  32.3317909  70.5352354  31.5868855  69.2344093  52.6303339   5.6486607
  70.0976086  53.0285788   5.5367523  69.3597507  51.9761515   6.3360918
  71.8052959  56.6142130  14.5807505  72.4219322  57.0679235  14.0061772
  72.3150396  56.4084959  15.3643799  31.3165091 104.3933828  73.2304442
  30.8180521 104.1782911  72.4420881  31.2783431 105.3482730  73.2848525
  83.5193487 100.7720477  86.6433060  83.9327379 101.4358623  86.0913163
  84.0607877 100.7455070  87.4322104  64.3833113  58.9830494  43.6179399
  64.8084879  59.3798733  42.8576851  64.7682476  59.4333363  44.3698072
  14.5645617  97.0978410  87.2800925  14.8730944  97.5849683  88.0441234
  13.6427496  96.9192560  87.4661300  60.0637627  58.8341999  27.7714682
  60.5713558  58.1593609  28.2222176  59.3196917  59.0007639  28.3501244
  16.1004065 104.0310819  87.7994812  15.4340933 104.4525201  88.3423042
  15.6578635 103.8575466  86.9686526  51.7629147  80.7897091  23.2419538
  51.4017439  81.4393139  22.6387930  51.1493063  80.0562763  23.1995678
  22.0710706   7.3863579  79.4740498  22.7056264   7.9401471  79.0191996
  21.2578820   7.5001027  78.9820981  49.3046759  91.3958437  83.7778765
  49.9092196  92.0905669  83.5168904  48.9395331  91.0739643  82.9536819
  64.0162754  57.8250933  40.0973749  63.4551954  57.4281454  40.7635975
  64.1794395  58.7117672  40.4189634 104.9196334  93.7184675  86.9800383
 104.8657699  94.1994722  86.1542273 105.7352443  93.2216794  86.9150943
  94.3869400  91.8113804   7.0401871  95.0867939  91.3305759   7.4820697
  94.7740936  92.6621246   6.8338490  81.0312748   8.7102240   7.9551113
  81.6656780   7.9974633   7.8794014  80.5275726   8.5000193   8.7414503
  69.1808605  13.5556269  -0.1490037  69.4336843  12.6328230  -0.1216824
  69.7358656  13.9755774   0.5081438  11.3341521 101.4694602  78.1664646
  10.6824683 100.7872922  78.3282602  10.8500861 102.2900016  78.2593358
  80.6399770  69.6381445  70.4317427  80.0562044  70.0233085  71.0852647
  80.0597759  69.3767817  69.7166967  20.8667901  28.0149841  36.3122749
  19.9334577  28.0185461  36.0998964  20.8946756  28.0017948  37.2689772
 101.0955906  55.4114628  15.8705699 100.8515453  54.5907116  16.2984025
 100.4763889  55.4970264  15.1456511  65.7151318  66.4117432  25.3552485
  65.7030535  67.0052338  24.6043444  65.2112961  65.6506014  25.0670791
 108.2438417 100.1051004  74.2055154 108.1759925 100.4923446  73.3327782
 108.2646842 100.8554084  74.7995102  55.6952714  33.2962061  82.4269199
  56.6049241  33.4444643  82.1684754  55.3983068  34.1447665  82.7555424
  17.7099418  22.2116591  81.1235654  17.9473876  21.4799477  81.6931647
  17.6907348  22.9715802  81.7052770  96.6443539  72.3523998   0.2896763
  96.2266636  71.7149878  -0.2895227  95.9903526  72.5252724   0.9668938
  50.8616352  76.2366199  32.5178456  51.7080164  75.8161783  32.6698160
  50.7775068  76.8701315  33.2304573  41.0101366  52.3703861  18.9783859
  41.5602446  52.4991608  18.2057083  40.7259798  51.4581537  18.9207542
 107.2503515  88.3907373  57.0755053 107.4190517  89.3314559  57.0223808
 107.4954744  88.1535799  57.9698777  53.1594276  49.4092751   4.2189735
  54.0137291  49.0591908   4.4716403  52.5280619  48.8030291   4.6063679
  63.8849783  28.2740641  22.3580813  63.9617157  27.3708773  22.0505214
  64.0980673  28.2286072  23.2901549  79.8552656  57.7187061   3.5526767
  79.3022728  57.4009514   2.8389078  80.3910637  58.4041929   3.1536022
  97.1780682  69.6105528   6.6178608  96.5033531  69.5637178   7.2952116
  97.7898502  70.2750301   6.9347423   9.1581343  66.1780305  86.0715735
   9.3098544  65.9576793  85.1525193  10.0265025  66.3911540  86.4132726
  63.7842941  31.3755298   8.8257575  63.4341955  32.2480607   9.0056270
  64.6945763  31.5300679   8.5733008  53.2583046  89.5164871  19.1811061
  53.1398487  88.9098740  18.4502041  54.1731930  89.7909260  19.1187334
  78.9542532  37.3507786   3.1918195  78.6175346  37.3724413   4.0875778
  79.8989677  37.2352576   3.2937950  41.5796183  98.3923490  89.2725216
  41.3895606  97.7736957  88.5672706  41.3632868  97.9157693  90.0739589
  22.1611547  14.2295529  43.8556194  22.3413705  13.3018042  44.0074015
  22.1058559  14.6093871  44.7324944  65.0382280   2.0395066  72.8260875
  64.2355298   1.6294409  73.1482053  64.7412538   2.6494242  72.1507800
  55.6673717  66.1416531  10.6526148  55.8600187  65.2987337  10.2419949
  54.7893524  66.0347223  11.0185122  60.4896069  43.4897995  10.5968165
  61.0355234  42.7313852  10.8042133  59.8051500  43.1429243  10.0246012
  91.6174126  72.7754831  29.0607023  91.5818214  72.4540949  29.9616337
  91.8512344  73.6998320  29.1452122 111.1927509  62.5489330  12.3789060
 111.8354702  61.8793774  12.6130819 110.3460312  62.1451569  12.5693190
  75.4427262  74.9952204  77.0268691  74.5545097  74.6392805  77.0516288
  75.7893319  74.7154553  76.1796224   7.0468901  77.2461350  85.3862250
   7.3248766  77.4232538  84.4875705   6.8021582  76.3207562  85.3832477
  57.6506471  11.6567065  66.1706495  56.9232320  12.0710160  66.6348076
  57.3464345  10.7663609  65.9946823  53.2411051  73.3793736   8.4674114
  53.3393383  72.9231548   7.6316798  54.0793037  73.2496691   8.9110649
  78.8478279  55.6166887  22.7576399  79.3329477  56.1355448  23.3992624
  79.5250130  55.1706553  22.2490072  81.7689705  36.7224979   3.5482317
  82.4120712  37.4280977   3.6173913  82.2802544  35.9574246   3.2846346
  80.6290054  89.2122650   8.7822658  80.1502037  89.0759277   9.5998150
  81.5078163  88.8774490   8.9606887  51.7142677  47.3252630  37.7012753
  51.5912962  46.3761282  37.6853180  50.9372330  47.6599598  38.1489611
  59.9329901  86.3667679  21.6730094  59.8947525  86.4254665  22.6276422
  60.5897188  85.6920624  21.5006447  85.9699154  39.3683767   4.2020431
  86.1763287  39.8460579   5.0054407  86.2011147  38.4602571   4.3972233
  75.2867126 102.0866966  44.6093082  75.2519226 102.6011276  45.4157734
  74.8305988 102.6246738  43.9621830  33.2699584  38.1277396  87.3142752
  34.2002296  38.3531310  87.3091623  33.2195091  37.3076559  86.8232062
  87.0899963  92.3718739  46.6463470  86.4241982  93.0361843  46.4684916
  87.0863628  91.8147373  45.8680058  16.8442014  59.2310333  11.2230384
  17.0496514  59.3324232  12.1524167  16.4651254  58.3546782  11.1557591
  78.8344955  77.6588392   3.9479512  78.6409283  78.5957909   3.9181647
  79.7587824  77.6128769   4.1925126  98.1887054  80.5395222   5.7659614
  98.9556408  79.9675608   5.7360333  97.9854774  80.7159233   4.8473668
  82.6279640  53.9393330   5.5165559  83.3629513  54.5455742   5.4244047
  81.8504620  54.4883776   5.4152048  78.3573914  82.7034378  43.7519503
  78.8260174  81.9653320  44.1415882  77.7800941  83.0154037  44.4488287
  12.0937155  96.5606935  87.8370354  11.4727782  96.4468534  88.5565615
  12.2603224  95.6724317  87.5216562  62.9717970  53.1249809  35.3914571
  62.7152920  53.4136200  34.5156002  62.1457052  52.9083586  35.8237529
  47.1302986  87.2641087  34.9501419  46.4103365  87.5438213  35.5155158
  47.8472662  87.8619003  35.1619029  54.8553132  34.4853903  76.4984274
  54.0848874  33.9243914  76.4092588  55.2567815  34.2116286  77.3231137
  21.4197159  46.7726994  16.9504404  21.6720319  45.8665371  17.1277535
  21.4465094  46.8464899  15.9964657  85.6999111 100.1229000   5.0332981
  85.5857563 101.0288620   5.3204113  84.9869442  99.9770641   4.4114959
  63.6278248  82.3991013  22.3419428  63.5643291  81.5521049  21.9005919
  62.9078293  82.3950863  22.9726744  41.2090587  23.2763363  79.7589052
  42.0773505  23.5812451  80.0222087  41.3124227  22.3320938  79.6407676
  49.2970800  12.0399548  90.1267257  49.4114732  12.8081585  90.6861989
  50.1231622  11.5625550  90.2035545  56.3424587  81.2446117  21.3585687
  56.2374067  81.5843391  20.4698706  55.9148121  81.8949604  21.9157028
  76.5378522  13.2006670  89.6210560  76.3528108  12.4744822  89.0255350
  77.2740983  13.6600233  89.2171180  84.6008010 104.0007169  65.6426549
  85.4589553 104.2397840  65.2924347  83.9795490 104.5115716  65.1237106
  55.9174871   0.5946185  57.1123481  55.0162458   0.6648899  56.7976093
  56.1103105  -0.3423809  57.0794225  88.4416580  97.4740887  38.3430099
  87.9454613  97.7871799  39.0993118  88.5373878  98.2448864  37.7835941
  69.5341682  79.9524307  14.9893785  69.5401144  80.0714207  15.9391356
  70.3438711  80.3666782  14.6910238  62.8250313  89.5931625  17.9588711
  62.6600456  89.1435909  18.7876630  62.7602196  88.9054108  17.2962821
  24.2968702  22.9756953  76.4204836  23.7388896  23.2765032  75.7032657
  24.4032430  22.0374085  76.2638485  49.1694450  63.7429523  25.8444166
  48.4737301  63.1788492  25.5067754  49.5314503  63.2587242  26.5865135
  85.1141739  80.2754688  13.6645603  84.9191093  81.2078285  13.7588060
  85.0291252  80.1066303  12.7262151  88.2225080 100.6518609  88.3626372
  88.7308784 101.0476072  89.0705757  88.5554977 101.0675437  87.5673029
  47.6142597  59.6261835  19.9617362  48.0409193  58.7794971  19.8301518
  46.7046833  59.4788980  19.7024858 109.3994522  72.0516872  27.3591256
 110.2044487  71.9429779  27.8654885 109.3329811  72.9955912  27.2146869
  68.0373955  71.5721273  19.7038007  67.3121357  72.1175957  20.0082636
  68.4894466  72.1139097  19.0569937 111.7988014  63.6512518  23.9420509
 112.3591518  62.8888178  23.7973738 110.9177113  63.3451939  23.7270427
  80.8069324  57.9718542  48.2963181  81.1975288  58.2024479  49.1392279
  80.6693077  57.0259476  48.3468771  86.3341141  84.9950981   9.8482120
  87.0542049  85.3171349   9.3060052  85.5448055  85.2148628   9.3533033
 105.2485943  87.3985386  24.1714406 104.3769741  87.2509289  24.5384812
 105.4074287  86.6347313  23.6168289  10.1979159  90.1429541  90.1392299
   9.3626307  90.4784138  89.8136437  10.7300089  90.9252841  90.2843597
  80.1568031  75.1401091  11.8862355  81.0479546  75.4681158  11.7658210
  79.6164131  75.7074881  11.3364291  76.1209726  66.3793564  38.1373882
  75.3477955  66.1096191  38.6330414  76.8418694  66.3137579  38.7636805
 106.3966031  95.4795034  75.0281250 106.9392057  96.1126668  74.5581043
 107.0219131  94.8568828  75.3990281  41.1002301   3.9259030  82.6785958
  40.5129289   3.6791445  81.9641572  41.4572191   3.0952479  82.9929256
  63.5943270  71.7777872  11.0615098  63.8867998  72.1299458  11.9021499
  62.6567507  71.6249037  11.1790323 108.4842587  74.1355467  16.0886824
 108.4873009  73.4871197  16.7927873 107.5597668  74.3507719  15.9652746
  88.7597084  79.3883181  20.7050157  89.2564011  79.5616531  19.9053407
  89.3663120  78.9015484  21.2629724  27.7427625   7.9331948  77.8954339
  27.4990415   8.2147242  77.0136333  27.0248317   8.2370211  78.4508574
  68.6009264  45.6039381   6.7000401  69.3476200  45.0360394   6.5098512
  68.2881069  45.3098297   7.5555360  99.8606873  79.9852371  25.6725550
 100.7330894  79.8865986  26.0538936 100.0237370  80.2308464  24.7618842
  68.0576611  52.4621487  15.5025506  68.7502193  52.1233273  16.0698247
  68.4716749  53.1780338  15.0205398  68.0801725   1.9588353  88.3434123
  68.4984254   2.8191878  88.3103576  68.1885480   1.6057516  87.4603397
  93.3069038  61.6396046  21.6041207  94.1020298  62.1278524  21.3905072
  93.0130672  62.0122576  22.4353981  85.9196377   7.5940889  31.8134952
  85.2293205   7.2751462  31.2321448  85.6828690   8.5047024  31.9894266
  33.8079881  14.0517880  79.3972147  32.9937362  13.5491206  79.4205976
  33.8168430  14.4531084  78.5282540  48.3947515  71.8181372  53.8112307
  47.5853872  71.6570282  54.2962074  48.1024885  72.1068430  52.9466677
  48.9014149  77.0191383   9.8742813  49.8269463  76.9862747  10.1162362
  48.4406710  76.6847372  10.6437767  83.0591011  90.4712296  16.2128294
  83.7128067  89.9706650  15.7246351  83.1932449  91.3768768  15.9334636
  90.5587716 101.0470970  83.4105200  90.3848596 101.9713647  83.5886085
  91.4972110 100.9450681  83.5691392  60.0972748  46.5721273  23.5788918
  59.7648239  45.7004070  23.3648348  59.4747639  46.9150925  24.2200518
  20.1022863  23.0853297  86.8390232  19.4189166  23.3979536  86.2461513
  19.8963117  22.1605660  86.9755027  73.8916111  67.1803331  55.0400591
  74.0557384  66.3071823  55.3962898  73.0924845  67.0815372  54.5225048
 107.5265212  92.4143917  83.9330375 106.8163295  91.7741473  83.8889253
 107.4381585  92.8107698  84.7998190  95.7679081  74.0027809  12.6152492
  95.7004833  73.1397676  13.0237675  96.6459560  74.3079281  12.8436065
  86.9058895  86.6504478  36.7136145  87.4075699  87.3968697  36.3858914
  86.0148048  86.8044281  36.3997793  55.5592679  40.1200320  86.9736949
  54.6483850  40.4028345  86.8927810  56.0272550  40.9011485  87.2687796
  65.5990601  35.8872652   8.8831002  66.2297869  36.5889430   9.0445518
  66.0901260  35.0817990   9.0453154  19.6465730  49.5014502  64.7676826
  19.2339658  49.2397238  65.5907798  19.2852639  50.3685404  64.5837378
  70.6710863  72.5198936  32.6796699  70.4023981  72.3754930  33.5869670
  71.5768766  72.2122192  32.6462579  39.7045516   8.9877917  80.5059028
  39.1942500   9.3135620  81.2473178  39.1782903   9.2086007  79.7374463
  69.8885155  40.5521107   2.7598891  70.0031662  41.0453033   3.5721999
  68.9702797  40.6867695   2.5254953 104.7604175  81.3292892  68.4931016
 104.8936601  80.8680637  67.6650000 104.9179550  82.2496874  68.2826686
  55.3392744  42.5073051   2.0200579  54.7653961  42.7499342   2.7467155
  56.0402155  43.1588364   2.0405824  45.8817863  18.3666337  13.2673109
  45.1584005  18.9876604  13.1820345  46.6221189  18.8017607  12.8444588
  99.9035545  88.8332016  54.0687656 100.7378955  88.9715488  53.6204720
 100.1168866  88.2500965  54.7972631  78.4484911  40.3761053  14.0112460
  78.2235146  39.4466901  14.0536523  78.4676647  40.6598377  14.9252272
  95.5483723  41.1033297  41.2582445  95.7975769  40.5936432  42.0291853
  94.8737335  40.5760717  40.8303595  53.8654423  26.4979339  15.6964517
  53.0208063  26.6999316  15.2939308  53.7315607  25.6510139  16.1219299
   4.2881583  82.0237381  78.4873927   3.6407612  81.6080911  79.0569043
   4.5125483  82.8394182  78.9352214  33.5443639   6.6591240  85.7476956
  33.1056976   6.8259837  84.9134529  32.9562425   7.0295216  86.4058417
  58.4959221  17.2801483   8.3987176  58.8042545  17.5762534   7.5422806
  59.0617085  17.7305448   9.0258229  96.2955284  23.3749676   2.8942451
  96.8769836  22.8175926   3.4114280  96.5436554  24.2677689   3.1341890
  70.2792215  61.3170290  46.6747379  71.1605501  61.1720181  46.3305521
  70.4182291  61.7739725  47.5042629  82.2052288  78.9906025  32.1170807
  81.2767792  79.1732502  31.9726777  82.5681114  78.8847589  31.2376785
  25.2775338  31.3620305   5.9569699  25.9253839  30.9434533   5.3901231
  24.9642232  30.6572056   6.5237927  32.6044606   0.2660824  78.7828672
  33.5568284   0.2034975  78.8557625  32.2744941  -0.4297422  79.3513584
  98.8111492  49.3156387  58.9311218  99.2229123  49.2621331  58.0686736
  97.9567714  49.7137056  58.7643409   5.9491919  91.6545565  54.1631627
   5.9513186  90.9169609  53.5530949   5.0497435  91.6939123  54.4882393
   9.6579550 102.3804958  82.5936878   9.5737170 103.2760436  82.9209906
  10.1888846 102.4639232  81.8016124  99.5892616  73.8000376  81.4639741
 100.0515647  73.0371792  81.8111861 100.1064678  74.5489318  81.7604369
  78.4020996  36.2236929  13.9694345  77.7483511  36.1939120  14.6679747
  77.9311132  36.5788317  13.2155907  78.2034159  34.3760061  10.1106763
  78.5250282  33.7336016  10.7432222  77.9613495  35.1346588  10.6417894
  42.3936844  21.6530085  11.4877272  41.5776110  21.7800212  11.0038638
  42.3399496  22.2730947  12.2149396  40.6970453   2.9899241  69.6367717
  39.8129892   3.2731940  69.8700690  40.6801986   2.9137207  68.6827564
 109.2989536  77.7097995  72.7442396 109.4242425  78.4858210  73.2904315
 108.3646388  77.5145800  72.8161752   3.3377884  71.7405350  64.1190815
   4.0577363  71.3267560  64.5952082   3.2186841  71.1937661  63.3424926
  48.5557604  53.9386654  34.7269630  47.8635597  53.3566570  34.4133449
  49.1225719  53.3748245  35.2533102  69.4270515  47.5743246  25.1329541
  69.5226526  46.6960096  25.5012584  68.6814451  47.9503775  25.6008124
  94.2890067  86.2089879  83.1170136  93.4319539  86.6312392  83.0587310
  94.4070478  85.7880909  82.2654593   8.1324767  73.0087860  83.3083284
   9.0342425  72.6878006  83.3126366   7.6089953  72.2560580  83.5832804
  87.0214462  42.3117304   9.8836040  87.9222775  42.1740580  10.1764929
  86.7780399  41.4875364   9.4620621  84.0676256  58.7212808  84.9391884
  84.4438024  59.0585328  84.1261798  83.5922857  59.4649167  85.3097147
   0.0622514  33.3159494  26.1540318   0.1551679  32.6872563  25.4382515
   0.0002626  32.7750826  26.9413400 101.9948955  77.5559122  54.4922876
 101.2490125  78.0920966  54.7613573 101.7651458  76.6692407  54.7702503
  62.5773287  69.8058271  13.6523938  62.2256756  68.9587402  13.9262950
  63.0937672  70.1041651  14.4010699  98.8888688 100.7415445  80.4527140
  99.1603656 101.3425977  81.1464441  98.4985681 101.3063104  79.7856736
  40.2971552 100.9902007  88.5351598  40.9441756 101.5682895  88.9394045
  40.6417559 100.1085622  88.6772469  63.2564640  48.8699961   0.1056456
  63.2082224  49.5775986   0.7484563  64.1531086  48.5425711   0.1767121
  90.2216721  15.2244174   3.3522582  89.9293995  15.8564103   2.6954535
  90.8920765  14.7074592   2.9055572  63.0729437  52.6960039  30.6550956
  63.2433081  53.6036396  30.4032898  63.1446886  52.6947546  31.6096020
  50.4608567  86.1405594  76.2545872  51.0972984  85.9314163  75.5708957
  49.9222846  85.3528054  76.3295388  52.9260206   6.0282743  13.6660433
  53.5873032   6.1854762  14.3400049  52.1551323   6.5070331  13.9705920
  68.1520414  21.9049978  16.9833124  68.0251551  22.8532743  16.9533145
  67.6497316  21.6201687  17.7467179 109.3880887  90.2006132  80.9861755
 108.4617133  89.9744589  81.0693324 109.8329110  89.6189220  81.6026157
  48.8249922  56.0754967  27.5618553  49.0266848  55.4875803  28.2898021
  48.5559940  55.4933214  26.8512607 103.7016054  75.3430683  81.2542593
 104.3297191  76.0458071  81.0873294 103.8637872  74.7064955  80.5580521
  41.6619921  14.9751580   4.1986644  40.8160353  14.5485938   4.3351564
  41.5637255  15.8370018   4.6033883   9.1319750  91.5794237  54.9473572
   8.2627104  91.9727332  55.0243568   8.9691447  90.7067330  54.5894027
  77.1594763  12.3225296  14.3993342  76.8493652  13.2274628  14.4333553
  76.4715433  11.8510985  13.9295149  42.7635336  21.2313485   6.2495983
  43.6619377  20.9755731   6.4586091  42.5436544  21.8920612   6.9063658
  54.7849178  52.6167822   3.2927653  54.8681545  53.5619688   3.4189937
  53.8442278  52.4703598   3.1932616  97.5215860  73.7299259  88.2113105
  97.1651359  73.2260687  87.4796671  96.7518516  74.0912611  88.6508307
  26.5133666  96.0488088  89.1208012  25.8665369  96.7522962  89.1751553
  27.2288607  96.4206369  88.6049953  71.4864635  20.4373217   4.2837647
  71.3445139  19.7391129   4.9229732  71.4074612  21.2455845   4.7904229
  96.6891952  98.7059457  79.2735636  97.5619645  98.4373243  78.9865971
  96.2893815  99.0926177  78.4945476  22.7680539   0.6411148  82.3248190
  23.5656881   1.0310627  81.9671130  23.0534887   0.2065731  83.1285173
 106.6723676  80.2807720  76.7248750 106.6845270  79.9848134  77.6350904
 106.9606729  79.5193322  76.2215662  75.0818300  29.9251556   8.6382294
  74.7003174  29.7479582   7.7784151  75.8971739  30.3889203   8.4475124
 105.8854389  17.4886954   5.4588312 104.9634171  17.5283778   5.2048045
 105.8720589  17.5233150   6.4153117  40.5341625  25.0651336  24.1199732
  40.8384466  25.5449939  24.8902845  41.2902212  25.0499773  23.5331392
  17.4612664   6.1980368  85.4386157  18.0393123   6.6760804  84.8439968
  17.2489309   6.8297936  86.1256587  17.7910089  10.9764744  60.9669900
  17.5038242  10.5629994  60.1528692  17.1104430  10.7533003  61.6020131
 104.6013208  95.7209451  77.2083211 105.1981397  95.0585992  77.5566506
 104.9207778  95.8886773  76.3217306  24.6814154  72.3915286  69.0035963
  25.4420088  72.1531005  68.4736109  23.9902018  72.5671942  68.3651662
 107.1817394  93.7846811  81.5297532 107.9899497  94.2969997  81.5533739
 107.3180623  93.0923040  82.1764863  81.6482162  67.1926975  24.0879774
  81.4932823  67.6194763  24.9306464  81.7812252  67.9152584  23.4744215
  41.2649440  31.4051081  75.2414548  40.3795242  31.4929606  75.5943632
  41.3419627  30.4780699  75.0158393  24.8669241  78.0126722  80.3498173
  24.7514246  78.0894644  79.4027185  25.5254839  77.3261745  80.4559124
  83.6173534  94.5007610  38.8687420  83.2709503  93.8794613  39.5092249
  84.3663216  94.0500641  38.4786677  75.6843090  73.8603687   2.0943421
  76.3370419  74.1608858   2.7266905  75.7991028  74.4372129   1.3391572
  84.6932602  32.5456381   4.4251919  84.5689869  31.6196012   4.6331483
  85.5354118  32.7691841   4.8214662  84.0789127  31.2286043  12.5243652
  83.2178402  31.2387872  12.1064055  84.6854877  31.4843488  11.8294621
  92.5877762  42.9728985   8.5956007  93.4325695  43.2986403   8.9061773
  92.4324703  43.4494019   7.7800930  66.4247655   5.1582362  73.4799230
  66.5799665   5.1546885  74.4244492  67.1894311   4.7171141  73.1098890
  81.6288467  79.4017942  58.4062219  80.7104154  79.1876514  58.5701251
  81.5979858  80.1284559  57.7839351  92.3032284  41.3997698  26.6093302
  91.5272903  40.8400583  26.5795183  92.9972839  40.8679390  26.2198782
  51.6141129  70.5267859   7.2608590  52.3780155  70.7417202   6.7256159
  51.8449640  70.8279848   8.1396180  87.8110600  62.5129175   9.6755540
  88.1129265  62.4273825  10.5798733  88.5952950  62.3670816   9.1464639
  27.9663275  84.3784816  43.8350439  28.6909197  84.5315726  44.4414854
  28.3672808  84.4219930  42.9669571 109.3274398  83.3535154  82.2423762
 109.1743942  83.2024391  81.3096464 109.3965097  82.4762089  82.6189369
   9.9971674  72.8541691  67.3116970   9.2957495  73.2186062  67.8515339
  10.7523917  73.4146244  67.4899268  54.7953939   5.7736803  77.4723470
  53.9886045   5.9263731  76.9803977  54.6204519   6.1403347  78.3390629
 108.5789967  56.4830208  15.7908404 107.6862812  56.5864658  16.1203682
 109.1068649  56.3273716  16.5740132  91.1410518  59.0327431  88.6363941
  91.9382568  58.8495273  88.1392777  91.2791105  59.9090071  88.9960232
  68.4774065  74.4352770  17.9126644  67.9722500  74.5945358  18.7099624
  68.7319613  75.3076982  17.6121354  32.4181937  77.9297502  76.2057066
  32.1662520  77.2039826  75.6347299  31.7056941  78.5627658  76.1170053
  57.0250844  17.0797135  78.5739863  56.6743898  16.5329863  77.8708971
  57.7625512  16.5784527  78.9219987  77.0607996  28.8742208   6.0775352
  77.1449375  28.6025119   6.9914979  77.2506571  29.8123431   6.0881054
  62.8288697  11.5163733  75.4371071  63.1046437  11.5159584  74.5204926
  61.9434785  11.1529852  75.4210126   2.3925971  89.4294460  84.6424150
   1.9137524  89.3301089  85.4652596   1.9426630  88.8458497  84.0315080
   0.6800221 102.0522840  84.2285126   0.7774304 102.5026853  83.3895355
   0.9513377 102.6986654  84.8802841  88.5409164  37.8760052  12.1122551
  87.6524067  38.2131362  11.9976354  88.8164711  37.6226640  11.2312770
  89.1908550  37.4885964  24.7668672  88.3754730  37.7950263  24.3700314
  89.1706657  36.5384793  24.6524048  60.2082443  18.4398830  10.3580284
  60.9894419  18.9233649  10.0893176  60.5304384  17.7952111  10.9879649
  86.7546272  85.0239658   2.7862594  87.3648834  84.3686485   2.4480757
  86.4042854  85.4509926   2.0045032   4.9255036  99.4833715  85.5434334
   5.4002808  99.1907318  86.3213670   5.3806733  99.0640647  84.8132038
  83.8304806  82.1209812   9.5661283  82.8762531  82.1918869   9.5407504
  84.1410255  82.9045963   9.1125292  94.2355919  39.1703224  28.8714457
  94.0542221  38.2825327  28.5629487  93.8649940  39.1977406  29.7535682
  41.2133883  90.5369813  72.6061225  41.7177771  89.8218400  72.2183239
  41.8509100  91.2402089  72.7296817  67.8244638  40.5970980  86.8133119
  67.5617742  40.4606463  87.7235889  67.2022390  40.0777651  86.3040379
  33.0070066  25.5864693  89.4843574  32.5073575  26.3863970  89.3209642
  32.5664233  24.9176051  88.9602044 109.0499496  50.4509449  28.5355377
 109.8598671  50.0175953  28.2663417 109.2914677  51.3722754  28.6306715
 108.3702035  72.8765542  61.9893718 108.1310315  72.1832652  62.6044965
 108.8714261  73.5003526  62.5146198   4.3626073  54.2326546  17.9652882
   4.6903089  53.5777044  18.5816395   4.2913201  55.0344515  18.4832370
  14.1647337  89.3850381  74.6874535  13.5183047  89.9118836  75.1573396
  14.3639182  89.8947174  73.9020979  55.4056452  71.4040465  64.7225213
  54.9848937  70.5778928  64.9605703  54.6807574  72.0199735  64.6157646
  22.1891211  70.0009305  59.5851970  22.8466223  69.9142201  60.2754211
  22.6393031  70.4708452  58.8832378  22.1617579  59.0483236  61.4756680
  21.5397620  59.6844673  61.1225796  22.9683876  59.5475626  61.6034842
 104.4137225  53.8060379  62.9519129 103.7142369  53.3242607  63.3933210
 105.1061353  53.8784790  63.6088324  19.2499638   7.4146766  56.8838453
  19.4522823   6.5111655  56.6410160  19.9722780   7.9275912  56.5213394
 103.6463740  78.8959837  46.9817400 103.5081479  79.8094988  47.2319651
 104.1246626  78.5155869  47.7184677  14.2799962 100.9524822  42.4043322
  15.0214148 101.4597130  42.7348614  13.5350692 101.2484360  42.9275274
   3.6026836   0.2909011  71.5549564   4.4341017   0.2606029  71.0816050
   3.6590005  -0.4281789  72.1842337   4.7090179  83.7699795  83.2251263
   5.1302147  84.6222305  83.3368778   3.8332230  83.8854694  83.5937405
  10.5863440  73.1217337  21.9116330  11.4997911  73.2369280  22.1735096
  10.2513599  74.0129232  21.8126297  91.9129893  91.4210701  41.7787457
  92.4957117  92.1616077  41.9469023  91.2019441  91.7899799  41.2547684
 108.0481932  32.2836137  61.1417675 107.8143191  31.5209651  61.6708231
 108.9123818  32.0736361  60.7877636  15.6503332  92.9818344  48.2860804
  14.8504400  92.9121017  48.8071775  15.3423071  93.0490780  47.3822927
  20.8542776  92.9394627  56.6110516  20.4317713  93.6022186  57.1573734
  21.7829347  93.1707764  56.6289854  72.2977434  54.7079079  35.1010227
  73.0845730  54.8951047  34.5890808  72.1712153  53.7635796  35.0090694
  23.1934309  82.0415211  79.3797398  22.4779510  82.2218513  78.7699842
  22.8878403  81.2936783  79.8931408   7.2236732  21.0324687  83.8011932
   8.0708889  21.4779681  83.7985706   6.7929176  21.3417357  84.5980930
  26.3332438  87.9906082  22.0315671  26.7042422  88.3494473  22.8376842
  26.4137769  88.7002087  21.3942242 109.4353904  80.3850174  73.8520956
 109.3164407  81.0446548  74.5354366 109.3127330  80.8642483  73.0326319
  93.5159752  87.6566696  59.9332571  93.0819103  88.4831715  60.1447201
  94.4478473  87.8370190  60.0570345  86.5876719  95.6815910  86.8206024
  87.2490069  96.0208797  86.2174892  85.8839294  96.3298702  86.7937469
  19.0165579  58.3142233  29.3521690  19.3531680  59.1832781  29.1338301
  19.0091562  58.2937098  30.3091216   8.6338902  84.5476723  49.9988365
   7.9747117  83.8583851  49.9176073   9.1802287  84.2711067  50.7345390
   4.0657821  53.1155586  88.5283566   4.0969619  53.9278555  89.0337563
   3.1845927  53.0995131  88.1548786  87.5770161 100.8368301  61.2703276
  87.8640935  99.9332047  61.4017725  86.6571090 100.8367825  61.5349150
  91.6304681  71.3043308  41.1090326  90.7241961  71.0850668  40.8926392
  91.9545230  71.7708588  40.3385973  71.5783907   6.2675876  65.9130239
  71.1845446   5.4344291  65.6542492  72.1956015   6.0354918  66.6068649
   1.5470883  59.4056177  52.8232431   1.0637230  58.5805035  52.7810764
   0.8696520  60.0756502  52.9147148  33.9176811   5.8920402  60.0662756
  33.4859405   6.6224116  59.6231270  33.2073165   5.2860183  60.2768898
  32.5269241   1.0178679  34.0624475  32.1063305   0.2228374  33.7349534
  32.7371497   0.8191604  34.9748898  24.5237207  92.8877354  40.1969099
  24.6089649  92.0439720  40.6407976  25.3595567  93.3267975  40.3544998
  10.1013899  90.7730198  50.2429295  10.3359520  91.2730408  51.0247183
   9.9375302  91.4375877  49.5737982  58.5909320   3.3113593  29.4812632
  57.8797413   3.6523932  30.0236011  58.9551926   4.0844172  29.0500808
  10.3829300  99.5359325  61.3141823   9.7324836  99.2567635  61.9585514
  10.2312231  98.9676189  60.5590391  13.4968996  77.5297737  50.6047916
  13.8050687  78.0688238  49.8763084  14.2774606  77.0642996  50.9052658
  85.9190287  21.3964455   9.8832607  85.5675735  22.0707076  10.4647160
  85.2083458  20.7611840   9.7960567  97.0777699  66.2249041  86.5881920
  97.8692028  65.7193184  86.4031315  96.4264151  65.8828926  85.9758186
 108.9330149  90.5195713  53.1437016 108.4713820  90.5177784  52.3051786
 108.2927611  90.8593941  53.7688637  38.6106806   3.0535621  91.1274338
  38.3639166   2.7042979  90.2710724  37.9659027   3.7393302  91.3012505
  78.6818859  79.1674137  12.8708172  78.3671424  79.2693043  13.7690306
  77.9252025  78.8346672  12.3881733  43.8892741   1.1126822  44.7649765
  44.0915585   0.6956119  43.9274979  44.7143573   1.5135879  45.0383663
  58.1308246  23.0974025  78.0306053  57.1961892  23.1384677  78.2330942
  58.1661821  23.0208606  77.0771217   6.1238009  89.4275665  34.8862624
   6.2641782  88.5427761  34.5491219   5.8610773  89.2977810  35.7975054
   6.5941876  84.7513580  47.6449919   5.6675309  84.9054527  47.8288269
   7.0494378  85.4614735  48.0974340  94.4752309  84.9383831  36.0749602
  95.0078937  84.1705608  35.8677268  93.7720653  84.9244118  35.4256582
   6.8339086  65.6860733  75.1088572   5.8934993  65.6093645  74.9476814
   7.0807475  64.8442173  75.4917145 104.4390073 104.0115929  86.0999966
 104.9645731 104.5910549  85.5484200 104.6242204 103.1327915  85.7688999
  69.9738500 101.2812233  71.2658167  69.5773932 102.0949745  71.5770531
  69.3350312 100.9242535  70.6487942  80.2695724  97.8093815  70.1869297
  79.8898050  97.2223377  70.8406830  80.6087109  98.5463238  70.6949997
  89.3791792  73.2443905  63.2154989  90.3292510  73.1842375  63.3153820
  89.1532060  72.5192642  62.6329517  95.5936941  84.3892670  68.9206982
  95.1610848  84.0951729  69.7223139  95.1986405  85.2409077  68.7339497
  64.2751528   2.8363151  64.4929218  64.2333341   3.0282992  63.5561085
  64.1297222   1.8919963  64.5506191  98.9984724  97.2160530  42.4819088
  99.0689942  96.2926483  42.2398710  99.1819939  97.6908302  41.6712666
  62.1887232  12.4209517  33.8572311  61.6847683  12.2850055  34.6595883
  62.6753546  13.2301349  34.0142441  16.5796006  79.9119043  76.8303108
  15.7189262  79.8974657  76.4116669  16.9743490  79.0721416  76.5953541
   4.4136307  49.9801302  79.8306561   4.4430992  49.0372372  79.6684361
   3.9335912  50.3368521  79.0832949  10.4994476 102.1224499  64.8521376
   9.6140522 102.0620346  64.4934511  10.3694522 102.2251320  65.7948923
  80.4180480  40.0840752  19.6698475  79.8725142  39.4376557  20.1179123
  80.0924690  40.9288781  19.9805737  89.6452202  23.9086144  27.7053165
  88.7733747  23.9248889  27.3105335  89.6834494  24.7053378  28.2344627
   7.6316994  48.3939886  64.4597673   8.5137594  48.0522251  64.6060610
   7.7659220  49.1931534  63.9503050  77.8483865  72.6630020  32.5334382
  78.4544179  71.9373131  32.6828814  77.0397112  72.2431850  32.2401261
  32.0088185   6.2530631  32.5911450  32.3542798   7.0722980  32.2365284
  32.5529472   5.5723590  32.1951723  21.2099481  96.3914967  57.2426081
  21.0090470  97.1922970  57.7269554  20.3543758  96.0130692  57.0400620
  29.6357608  91.1041260  29.2159986  28.7537313  91.2214184  29.5688391
  29.6811056  90.1755142  28.9882851  76.4484593  65.1435280  57.1330595
  76.3633868  64.6099138  57.9231548  75.5637452  65.4693604  56.9676924
 110.7933594   4.0187686  24.5466042 110.8429028   3.2915585  23.9261627
 109.9196745   4.3869345  24.4148254   3.5129198  78.6641884  63.4612370
   3.0767471  78.0964613  62.8258896   4.2355439  79.0589952  62.9732037
  90.4871628  74.3225002  55.6420708  89.6377298  74.3064785  56.0830212
  90.9022209  75.1278210  55.9509611 108.3405253  83.7043667  69.8259544
 108.8185003  83.2206726  69.1522932 108.4494933  84.6238804  69.5833731
  19.8295927  89.2968655  49.1957569  19.1403997  88.6344051  49.1467714
  19.3842924  90.1208210  48.9981985  44.2912531  62.5216532  61.6017437
  44.9742413  61.8556643  61.5228987  43.8497448  62.5136662  60.7524872
  41.2473530  14.0812034  87.5797176  40.8264504  13.2228774  87.5312233
  42.1428797  13.9261264  87.2793579  41.1185169 104.9508476  70.4810238
  41.5778971 105.6628799  70.9262323  41.2933016 105.0973606  69.5513916
  45.9346969  15.5230254  86.5728474  45.0996221  15.2250976  86.9335747
  46.3357610  14.7321052  86.2125301  14.4200075  93.5145569  52.2216988
  13.8882470  94.0874481  52.7742052  15.3127134  93.6285210  52.5477695
  16.6085696 102.3835182  42.6647425  17.1715379 102.6196766  43.4019899
  16.7108405 103.1053352  42.0444632  60.0775958   1.5591067  52.8666830
  59.8311234   1.5485782  53.7915468  59.2567635   1.4071101  52.3983192
   0.8239595  97.1257401  75.8201075   0.9163223  96.7261887  76.6850090
   0.2971877  97.9100704  75.9736252  52.0010055  16.6784400  74.4479084
  52.1521021  15.7823199  74.7485018  51.0521520  16.7367763  74.3360758
   4.4181335  73.8371229  41.1273098   4.8424089  73.9744902  40.2803421
   3.8447452  73.0833387  40.9885073  99.8780116  82.7401638  45.8725786
  99.7560009  81.7959499  45.7735777  99.0786549  83.0409527  46.3047695
  99.2811355  96.4806652  46.8306351  99.2287132  95.9483147  47.6244211
  99.6900639  97.2974968  47.1166277  52.3435677  11.6635245  53.4154654
  51.4403618  11.7471427  53.1097555  52.3169077  10.9453601  54.0477324
  78.1227586 100.9239197  82.5048637  77.2336766 100.6488228  82.7286720
  78.5938451 100.9126186  83.3380413   0.2567918  86.1736679  71.3996935
   1.2123568  86.2264442  71.4181852   0.0678170  85.2362823  71.4423943
  12.6155686  60.7693338  77.0573854  12.7341187  59.9109077  76.6508389
  11.6763926  60.9401751  76.9867134  92.8213415  85.5088902  17.8781509
  93.7423477  85.7254028  17.7328980  92.3884568  85.7400703  17.0563257
 106.7838964  84.5315456  66.3213062 107.5660828  85.0827980  66.3444138
 106.9871253  83.8027191  66.9076014   9.4933021  77.4411821  59.3136692
   9.5556235  78.3591938  59.0498400   9.5664996  76.9511127  58.4947014
   7.1114862  97.0669460  42.7414560   6.5709305  97.7794266  42.4002695
   6.5298653  96.3067436  42.7474070   9.7088110  92.5962734  48.1562805
   9.7205794  93.4168434  48.6489868   9.0567815  92.7382851  47.4700403
  42.1024472  21.0537261  43.8734245  42.6369370  20.7743949  44.6167421
  41.5150479  21.7165965  44.2364693  23.2203102  94.8521137  59.1507721
  22.5927901  95.5169868  58.8672400  24.0150356  95.3447342  59.3556309
   8.1494564  83.5920334  22.1402645   8.2824385  84.4408989  22.5621367
   9.0271735  83.3151913  21.8771958  39.9511526  35.4295558  86.0921669
  39.2073775  34.8299998  86.0324764  40.7195289  34.8587436  86.0921288
  34.5086471  20.2880305  69.1711378  34.5846970  19.4366664  68.7402916
  35.4086304  20.5237693  69.3962717  23.9554644  89.0968609  36.6727543
  23.7072802  88.5739136  35.9104109  23.5531878  89.9515533  36.5181518
  35.7683158  99.2348099  72.9672575  35.0417829  99.7309494  73.3443880
  36.5455723  99.5727825  73.4120941  20.2725339  74.7365379  33.5937691
  21.1672950  74.5795679  33.2921100  20.1068783  74.0373898  34.2262101
  53.8047481  15.6626052  37.9911757  53.8958944  16.4292068  37.4252701
  54.2911471  15.8905620  38.7834406  71.8340851   6.8279189  63.3499241
  71.7962290   6.6231269  64.2841959  71.2089635   6.2252635  62.9471064
  89.7149059  57.0856571   7.6679617  88.8257739  56.8372440   7.9208791
  89.6050712  57.5664186   6.8475723  35.0703879  16.7852611  48.0986261
  35.2638727  17.3425311  47.3448086  35.8803444  16.7826480  48.6087179
  58.3126356  48.4731286   3.0307770  58.3948840  48.3762639   3.9795017
  57.8225531  49.2871182   2.9147148  31.6301155  98.8546276  46.0120821
  31.7876530  99.4883347  45.3122044  31.4706445  99.3905354  46.7889977
  13.1028366  66.8491220  61.3167953  13.4783483  67.4700546  61.9410324
  12.1649504  66.8548441  61.5080309  48.9437032  15.1654548  71.8865490
  48.5302556  14.3725223  72.2279596  48.2351495  15.6341380  71.4455128
  40.8435512   1.5335101  47.6634741  41.1071620   1.9258327  46.8311119
  41.0413454   0.6024093  47.5626945   5.4641861  91.7240620  37.3094606
   5.6062210  91.0248566  37.9475570   6.2331432  91.6889286  36.7405128
  24.5736575  89.1408730  68.9170694  23.7506604  89.5098686  69.2376137
  24.3066072  88.4276199  68.3372545  16.5163171  76.2690687  52.6399565
  16.1721766  76.3615608  51.7515612  15.7390928  76.2647820  53.1986475
 111.0841157  97.5749397  65.0747299 110.9441937  96.6427326  65.2410173
 111.5284900  97.6030254  64.2273951  70.8418251  12.2116298  52.9140234
  70.7531834  11.5248889  53.5749054  70.4862118  11.8224925  52.1150589
  56.1729301   4.5112342  60.3851986  55.7780231   3.7780780  59.9132252
  57.1056391   4.4552726  60.1774645 101.6736099  96.7702103  66.4048910
 101.6439137  97.6166439  66.8508577 101.6776142  96.9902992  65.4733467
   1.2274551  65.2397251  57.5074959   2.0694149  65.6810427  57.3953581
   0.6148149  65.7559347  56.9836378  24.0767722  35.6130974  12.7653885
  23.8666014  35.8397286  13.6713123  23.2967858  35.1603692  12.4446201
  31.4428759  25.5621356  42.9394245  31.2129522  24.6803874  43.2325077
  30.6800539  25.8554191  42.4411106  87.8116104  94.9406052  44.9764395
  88.5656592  94.4759083  44.6135330  87.8858683  95.8282089  44.6259165
  99.4540629 104.1475582  60.4500055  98.8180694 104.3982697  59.7800159
  99.9681434 104.9407482  60.6010151   9.8209876 100.0987339  75.5325508
   9.3184394 100.9095860  75.4538250  10.7347655 100.3835106  75.5446291
 106.3830230  81.6572857  64.6073008 105.8736405  81.0615921  65.1567650
 106.5709123  82.4048996  65.1747513  23.8905931  93.6805153  80.3149128
  23.1367493  93.0908489  80.2993679  23.8606715  94.1298294  79.4702482
 106.4869937  82.8332233  33.8601708 105.8304897  82.1498299  33.7252283
 107.2272596  82.3782635  34.2617321  16.5099598   6.8126887  60.4344654
  16.9559098   6.0233611  60.7415867  17.1768428   7.4978084  60.4804516
  43.8710529  17.6223105  73.5583687  44.3154670  17.3034972  72.7728176
  44.5736266  17.7503222  74.1957331  15.0576067  73.5769272  57.1093988
  14.3514323  73.2784939  57.6825428  15.6372964  72.8194523  57.0292282
 108.8308832  76.7005587  54.4294691 108.4298843  75.9344721  54.8400068
 109.1310918  76.3857555  53.5768223   7.2144246  64.2332029  45.7897758
   8.1435448  64.4621801  45.7665682   7.1716160  63.4631109  46.3566589
  18.8538957  76.1677217  61.4527035  17.9733777  75.7928085  61.4716244
  18.7494528  77.0013618  60.9940434  80.3779126   6.7670459  73.4791040
  79.9682284   5.9496326  73.7623453  80.8632184   7.0701808  74.2464495
  92.7898332  71.0959864  89.9164677  92.3757121  70.3569841  89.4708061
  92.0776340  71.5128231  90.4014874  49.7223354  35.4990787  57.0332909
  49.7775865  36.4538783  57.0722675  49.5181204  35.2341670  57.9301500
  16.0594189  75.5367470  73.0440521  16.0726178  75.8503437  72.1397734
  16.9823623  75.4803228  73.2914829 104.8411861 104.3686104  52.3943329
 104.4193098 104.6109104  53.2186747 104.2188653 103.7767124  51.9717121
  91.4893736  21.8753331  18.5544968  91.3931276  22.8048556  18.3472443
  92.2547759  21.5959447  18.0521584  13.1876945 103.5040188  58.4104633
  13.2156014 102.9493237  59.1900587  13.4694910 104.3651867  58.7190294
   9.2920291  60.1579142  47.7344084  10.2424669  60.0585604  47.7894402
   8.9969754  60.1472521  48.6449337  16.2488198  50.5278301  33.9350033
  16.7061484  51.3121891  33.6319065  16.1586177  50.6531763  34.8796654
  14.9781775  85.4605865  39.2826271  15.1627576  85.2873611  38.3595037
  15.7952583  85.2489185  39.7340775  21.5380192  43.6908197  76.5492773
  20.6977916  43.2978582  76.3129854  21.3074803  44.4244337  77.1192741
  38.0530801 102.0097135   6.3317394  37.1412222 102.2287868   6.1400318
  38.4306455 101.7895340   5.4801559 106.4154199  45.7576942  59.4174767
 106.4961472  44.8452234  59.6951771 106.6454181  46.2660074  60.1952600
  20.9242392  47.7787638  35.9444070  20.2996254  48.4614038  36.1895466
  21.2480974  48.0479336  35.0848174  97.7752444  67.1983194  31.8369722
  97.0636520  67.8061962  32.0378590  98.3962342  67.3102474  32.5567460
  18.1722271  50.4657459  57.6454353  17.2702694  50.7756186  57.7271891
  18.2419324  50.1681042  56.7383623 106.5342364  93.3756447  49.1033602
 107.4812815  93.5066032  49.1501474 106.1635527  94.2368603  49.2960548
  11.9492030  74.7966528  67.4134636  12.7036107  75.3795004  67.3274851
  11.2780070  75.3341103  67.8340197  92.6284882  88.2795715  53.0044651
  91.9112453  88.6049557  52.4604750  92.3969969  87.3687744  53.1863451
  24.7189736  88.3296490  17.5199890  25.5123258  87.8018761  17.4290514
  24.7659516  88.9587021  16.8000460   0.9016405  72.0172453  52.8917694
   0.8414716  71.3812542  52.1789360   1.7461365  72.4475956  52.7581453
   1.8939662  53.2765770  63.9903021   1.3423410  53.5660315  63.2635593
   2.7009818  52.9750538  63.5731220   9.7455758 100.5929184  55.7320881
   9.4910693  99.7031975  55.4874325   9.9354064 100.5387402  56.6687107
 111.0430215  62.1076822  38.9964294 110.6717346  61.2368441  38.8549519
 111.5634950  62.2766352  38.2110667  29.8586106  48.1088686  24.3323994
  28.9739704  47.7957249  24.5210433  29.9482417  48.0163860  23.3839035
  40.3195672  84.4848711  91.5500301  40.4799174  83.5988958  91.2251195
  40.0711159  84.9840028  90.7719750  85.5593798  74.4948912  35.6139803
  84.8812434  74.3917322  34.9463558  85.0840423  74.7712803  36.3974953
  98.1464884  86.4606476  38.4224868  97.7573058  86.5536976  37.5529408
  98.8392672  87.1207237  38.4467173  13.4886980  24.9143481  33.2348180
  14.0746272  24.7798991  32.4899411  13.3639956  25.8626080  33.2733512
  49.5528173  81.3658810  53.7705803  49.9334955  82.1765804  54.1083574
  50.2292442  80.7045746  53.9166880 110.7198779  95.0717068  48.1268311
 110.7943366  95.9802532  48.4187794 110.0168890  95.0856876  47.4773359
  12.7372217  61.5961170  88.2550430  12.6297534  61.2278843  89.1320229
  11.8596148  61.5673113  87.8739834 103.2489714  41.0610771  16.6343093
 102.6565835  41.5136147  16.0338771 104.1107169  41.4328527  16.4461362
   3.8790792  52.4500847  37.1693850   3.5372740  52.6913166  38.0303192
   3.4375528  53.0432701  36.5615892  10.1717436  95.1417351  33.1902003
  10.5871785  95.9506607  33.4889865  10.0997376  95.2457523  32.2413969
  36.1796713  23.5058212  37.5028086  36.7157078  23.3584070  38.2820177
  36.2019324  22.6708484  37.0353079  29.3700266  49.4783115  59.9336195
  28.7562704  50.0874901  60.3440285  30.2344108  49.8347950  60.1385307
   8.2985336  77.5369120  66.7236662   8.6896175  76.7293072  67.0569229
   7.9656017  77.9813004  67.5033474 109.4683017  64.3919277  40.7725096
 109.1708529  65.2876663  40.9319067 110.0272986  64.1881752  41.5223360
 111.6178193  84.1639423  41.3371754 111.0367255  84.0728569  40.5820131
 111.8418558  83.2647133  41.5768290  21.3694811  89.9963188  39.5183825
  20.4777288  89.8190117  39.8176670  21.4227867  90.9511375  39.4768476
  89.5868394  40.1284504  28.3583093  90.3336617  40.2290583  28.9485359
  89.9532577  39.7147369  27.5767660   1.3174796  96.0044575  33.5642266
   1.4977816  95.9906483  34.5041895   0.3668192  95.9121609  33.5013199
   7.1221429  54.7291422   5.8848000   7.9874361  54.3722343   6.0850918
   6.5338326  53.9760876   5.9398663 104.1576579  54.9007082  39.2335224
 103.7263384  55.5540991  38.6828160 103.7642321  55.0188208  40.0980997
  20.3346372  74.7034788  18.9533246  19.4350052  74.6518707  18.6304760
  20.2668405  75.1906395  19.7744894  19.4010389  23.3049989   0.7046002
  19.4761264  24.2583609   0.7457495  18.4637487  23.1429648   0.5975302
   0.7328004  72.5831985  63.5167694   1.4062834  71.9513893  63.7687063
   0.8307929  72.6725149  62.5687981 110.1677053  81.4171886  66.0320377
 111.0653967  81.3208389  65.7140732 109.6372914  81.4768982  65.2374744
   1.2402695  50.4483414  62.1183157   0.9527855  50.4958057  61.2065411
   1.0202765  49.5581150  62.3927784  17.6273417  48.6322737  26.8768740
  17.5158036  49.2795134  26.1805439  17.2308600  47.8340816  26.5277052
 106.4518079  91.9663334  51.2608719 106.2634209  92.3092365  50.3872824
 106.8033019  92.7156925  51.7416477  15.7682621  90.7718182  72.3767281
  15.8821702  91.7099285  72.5290775  16.5177047  90.5243874  71.8351126
  98.7133214  69.1678572  54.7506094  98.9402935  69.1774559  55.6804609
  98.1939539  69.9616528  54.6226358 101.2442920  46.8205547  22.9091406
 100.3762683  46.4187098  22.9450655 101.2664708  47.2675228  22.0629978
  99.1271600  84.3126011  30.2258348  98.4643027  84.9558067  30.4771113
  99.5386121  84.6848965  29.4458747 103.6711624  54.0145016  17.3257709
 103.5324749  53.6989021  18.2187414 104.0788057  54.8735237  17.4359417
   8.3807677  84.8511028  17.9867625   8.5405868  85.1248837  18.8899422
   9.2541599  84.7128677  17.6202798  26.4797974  72.3148251  34.2409372
  26.6585636  72.9680014  33.5644507  27.3305583  71.9128132  34.4164944
   2.8582978  57.7411318  55.5122852   3.1150484  57.4882555  56.3990593
   3.6339176  57.5662422  54.9793148  17.4231958  81.5932655  59.1637468
  17.4381304  81.4408302  58.2188797  18.2414591  82.0557880  59.3446970
  18.0029607  34.7508883  20.7737947  18.1067896  35.5517840  20.2599645
  17.3745322  34.9844289  21.4569998   2.9950458  54.7087860  51.2579918
   2.6329529  53.8263464  51.1778593   2.3114926  55.2807665  50.9089565
  20.8381200  44.4529104  49.0868473  20.7965016  45.3619337  49.3837833
  21.4391065  44.0282583  49.6989918  20.5967569  22.7247620  38.6319947
  20.5310392  23.6055851  38.2631230  20.8291936  22.1699977  37.8873873
   5.2282858  20.7599640  27.1668220   5.1285207  20.0239515  26.5630317
   5.2380323  20.3576589  28.0353189  36.1300087  62.0701408  49.7945404
  35.6676602  62.1814919  48.9638376  36.0836387  61.1303711  49.9703646
 101.6578397  72.5249481  54.4701672 101.1102125  72.3907948  53.6966419
 102.5114927  72.1687222  54.2239761 111.9314477  46.2413597  35.0604630
 111.0355788  46.4821053  34.8244691 112.1954642  45.6128502  34.3885207
  26.0004592  69.5603848  36.5209484  25.7716370  68.9231873  35.8442974
  26.9005799  69.8139048  36.3166356 108.3374131  44.5935535  40.1008320
 108.3668560  44.8945332  39.1926575 107.4231783  44.7063208  40.3610039
  19.2934775  69.0435457  56.8733740  19.9088871  68.7054729  57.5239182
  19.3091452  69.9923086  56.9991875  30.8236408  75.2578545  47.1528006
  30.6257844  75.5813122  48.0316973  30.0836396  75.5470228  46.6189384
  88.3721945  84.4495869  53.9472485  88.1732652  85.0915623  54.6288157
  88.9848587  83.8421440  54.3618488   9.8634595  46.0202074  56.9166231
   9.8787081  45.6215525  57.7867270  10.6317902  46.5908718  56.9011354
  91.4146659  85.4320526   7.1274859  92.1072766  86.0462570   7.3709464
  91.3900873  85.4655647   6.1711884   5.2301306  96.4824295  58.1496286
   4.6927875  95.8899689  57.6238108   6.0986090  96.4365768  57.7497816
  11.8626249  93.6932659  19.3190050  11.9528961  93.7300396  18.3667815
  10.9884799  93.3307743  19.4629014  98.8328204  72.6741695  15.8435333
  99.6098229  72.1172285  15.7954037  98.7461850  72.8845978  16.7732894
  14.7178400  71.9922543  34.3886900  15.1383722  72.6624203  33.8499260
  14.8507786  71.1773920  33.9043808 102.5895122  93.7238884  50.0332975
 103.0995730  93.0006218  49.6686602 103.2026455  94.1844368  50.6061745
  38.5399652  49.0693998  34.3263292  39.4646358  48.8360214  34.4084668
  38.1224322  48.6651325  35.0868988  76.0773179  97.0764923  27.5628209
  76.7785999  97.1441269  28.2107878  76.3550040  96.3677597  26.9824529
   7.9875785  77.9845905  22.9683948   7.2913820  78.4404564  22.4953914
   8.7191474  78.6018705  22.9712248  96.8816158  91.0387707  61.3250160
  96.7915329  90.7094002  62.2192383  96.8317375  91.9905090  61.4141607
  22.7887654  98.8421631  19.2583454  23.4861398  98.1882286  19.2107582
  22.0204210  98.3520699  19.5510614  12.1331728  72.5108385  47.2391939
  11.3844597  73.0185843  46.9263792  12.6325965  72.3083782  46.4481068
 102.0980319  69.2870426  35.3020906 102.1896121  68.4444332  34.8572850
 101.5027675  69.1099310  36.0304618  10.9017479  93.8461971  68.5840225
  11.2844598  93.6736012  67.7238035   9.9770737  93.6196518  68.4846020
  13.4128761  63.8856173  29.0835476  14.3644190  63.8240480  28.9998364
  13.2215524  64.8157692  28.9633536   4.2335722  65.1730299  41.7346525
   4.3325162  65.0690079  42.6810265   3.3048522  65.0085115  41.5714169
  95.7709095  59.4931841  39.6295309  95.4522440  58.9637852  38.8984871
  96.7162523  59.5494843  39.4902873  28.2639384  52.6109743  42.9465389
  27.5391531  52.8869534  42.3855066  28.6963439  53.4270763  43.1980085
 105.8744940  31.9668317  29.8484683 105.4273120  31.1662936  29.5738816
 105.9049347  32.5070453  29.0588665  69.4185867  34.2357851  76.8307281
  69.5444184  33.2875849  76.8669152  68.8309612  34.4274832  77.5616038
   1.3986485  97.0081329  28.9572906   0.8971216  96.1929512  28.9710855
   2.1585143  96.8125916  28.4090185  62.5364447  77.9675102   8.1453586
  62.6128197  78.5062933   8.9328301  61.7554235  77.4346161   8.2945764
 108.5316145  74.5237017  52.2393608 109.3050428  74.7086811  51.7066097
 108.0451396  73.8703918  51.7366123  37.5892043  94.5222092   5.0096744
  36.6908336  94.2279625   4.8593903  37.5901508  95.4390144   4.7345382
  76.3830778 101.2632370  20.9577107  75.6273004 101.1614323  21.5362167
  76.0412833 101.7343044  20.1977801   8.0310416  63.8013554  90.1697063
   8.8673282  64.1671848  89.8815632   7.3744500  64.4125319  89.8356628
  97.8457019  70.8201790  61.0091448  98.5369906  70.4384470  61.5500975
  98.3086845  71.3935232  60.3982782  42.1014977  79.6027040  60.4119396
  42.2293520  78.6596155  60.5142593  42.1477127  79.9487591  61.3032007
  38.2667351  90.9998703  30.5331469  37.6632857  91.3058186  31.2102556
  37.8808498  90.1816463  30.2203703  44.8219824  67.4348974  23.1897545
  44.9326658  67.0675135  24.0666866  44.6146917  66.6804028  22.6383924
  50.0172008  17.9363841  53.4884834  49.9484266  18.0128402  52.5368261
  49.1163827  18.0198497  53.8011980  30.1578641  57.9525042  35.7998323
  30.7943487  57.3643732  35.3933573  30.6566978  58.7449646  35.9983492
   9.0387177  86.7677784  48.5258102   8.8998961  85.9143257  48.9363956
   8.7588608  87.4002743  49.1875267  18.9512789  60.7552052  57.1131563
  19.7174597  60.2450609  56.8505669  18.2358301  60.4024076  56.5841055
  35.9630179   7.1882838  77.8280830  36.7679284   7.6328105  78.0940771
  35.4398025   7.1411532  78.6282444   5.7725555  93.4603500  31.7012215
   6.6546845  93.3807564  32.0641899   5.3764600  92.6006794  31.8437338
  38.7808762  13.7096423  43.0856323  38.0370127  13.1252879  42.9392624
  38.6983908  14.3774909  42.4048853  24.2099500  77.1304607  73.1669235
  25.0524187  76.9598484  72.7457714  24.1878819  76.5286398  73.9109373
  98.6457166  99.1021061  53.8371372  98.8725004  98.2263279  53.5243845
  97.7613339  99.2538834  53.5038757  42.7801847 104.3018436  52.8987741
  43.5901356 103.8721180  52.6238966  42.8855610 104.4310379  53.8413429
 101.3852212  86.1180496  11.8488598 100.9326288  85.9907436  11.0150814
 100.8146724  86.7060947  12.3437452  11.9458234  52.1277571  76.0400820
  11.5073431  52.8430033  76.5009403  12.7469730  51.9754362  76.5412664
 108.5113487  54.7369194   6.8820816 108.1035164  54.7332621   7.7480441
 109.2844352  55.2921009   6.9837713  10.5754864  69.7620392  35.9730601
  11.2837422  69.3666983  36.4813018  10.2938771  69.0692902  35.3755426
  39.1335106  45.3680515  19.9760067  40.0149155  45.0618696  19.7624326
  39.1481638  45.4975367  20.9242940  92.9095039  52.2806215  77.4494076
  93.3675489  52.9541969  77.9521275  92.1780750  52.7430344  77.0402384
 112.1041772  74.5033073  74.1973877 111.9164056  74.7980642  75.0885057
 111.2548172  74.5180941  73.7562513  21.5178227  85.2835655  53.4617662
  21.3827276  86.1336136  53.8805723  20.6682086  85.0684547  53.0769110
  56.0814107   9.7315520  58.6657667  55.3780652   9.6474380  58.0219793
  56.3779641   8.8338012  58.8151884  73.6439992   3.2281989  63.4088039
  73.0765868   2.6363963  62.9147959  73.1091738   4.0090770  63.5517168
  14.4798076  54.6379471  56.5020943  14.0887713  55.2581215  57.1174860
  15.0759542  54.1135931  57.0367813  11.5584862  55.9730577  56.4049339
  11.3300741  55.3462267  57.0913315  10.9984124  56.7302132  56.5759993
  89.6715411  31.0553957  89.2754322  89.9364945  30.8937575  88.3699459
  89.1007491  31.8221117  89.2247395   7.5478560  65.4355812  54.5472336
   8.1008005  66.1975956  54.3745422   7.6784188  64.8678541  53.7877131
  29.1823745  81.1634731  24.7085309  28.9664817  81.9124508  24.1529751
  29.7800112  80.6363201  24.1782689  15.5240512  94.5739937  22.1999049
  15.4316676  94.4329834  21.2576675  15.2014375  93.7645054  22.5959945
  60.3741408   9.3346137  57.2595549  61.2166763   9.6923083  57.5395966
  59.7235633   9.8973292  57.6794767   6.1038983  88.2614040  29.5898271
   5.4728574  87.5965786  29.8655510   5.5788195  88.9104366  29.1215467
  62.1933437   8.3833808  14.3707633  61.6032553   7.6695174  14.6124589
  61.8879724   9.1309566  14.8846853  20.3971291  34.2633653  56.4794254
  20.4876399  34.3248892  57.4303484  20.1341629  35.1423359  56.2064934
  43.0923748  85.2989388  30.6115198  43.9444780  85.7132530  30.4755211
  42.7874947  85.6475925  31.4492083  94.8099121  23.7254667   5.8785117
  94.1494367  23.2154584   6.3474441  95.4496905  23.0767298   5.5851597
  13.6561322  68.5890484  47.2640276  13.2000113  67.7588320  47.4016047
  13.4098852  68.8536024  46.3776827  21.2028325   1.3020057  48.1707382
  20.5802000   0.7273120  48.6160374  20.7842649   1.5065021  47.3345470
   4.7198254  63.8837814  21.4457703   4.5063737  63.6030626  20.5559015
   4.2869356  64.7323322  21.5395546  42.8539848  79.2162418  67.2859192
  42.9725313  79.9819279  67.8479719  43.5848045  78.6397934  67.5091743
   7.8059036  89.8109818  43.7328720   7.4896145  88.9387131  43.9681387
   8.3899575  89.6615028  42.9893875   8.6259526  86.2949562  38.2704115
   8.5866791  85.7475471  39.0546465   8.4809738  85.6863403  37.5459838
  14.7957444  65.1719475  59.6528435  13.8886988  65.3977299  59.8590517
  14.8642266  64.2404413  59.8622084  29.7628736  92.5576019  40.9111357
  29.5565510  91.7501926  41.3820505  30.6075644  92.8333187  41.2671041
  15.7531178  73.8896084  32.5683570  16.6841829  73.8452339  32.3506880
  15.3065085  73.8268375  31.7240644  35.4534245  99.1057491  33.5863328
  36.3429165  99.0404510  33.9338541  35.0102758  98.3230591  33.9138079
  10.4959881  69.6789026  67.2666073  11.3923216  69.4689274  67.5287628
  10.4969132  70.6289625  67.1498823  25.1760530  92.5814724  19.7990000
  25.3853941  93.2698536  19.1676962  25.4655910  92.9326344  20.6410718
   7.4394244  72.7465343  61.1267757   7.7056468  72.3839283  61.9716883
   8.1003958  73.4110260  60.9323454  20.4348326  87.2464561  34.7560906
  19.9021709  86.8573189  35.4496884  19.8025441  87.5081635  34.0868020
  12.2190678  67.2558880   5.1788104  11.7356777  67.2954273   6.0040390
  11.7778337  66.5717554   4.6753171  22.9240203  33.5660410  46.7628336
  23.4606814  33.1964803  47.4640131  22.0224380  33.4033632  47.0401716
  14.3868577  66.8349981  53.3234978  15.2479339  67.1840096  53.0933428
  14.5154893  65.8873367  53.3638144  13.1025565  37.7092242  14.7804189
  14.0212572  37.4764872  14.9147856  12.7671933  37.0315862  14.1934180
  13.9489067  91.3535786   6.4398271  13.9890754  90.5938053   7.0206577
  14.7566807  91.8349075   6.6188675  13.0521297  89.1153431  55.2765846
  13.2336473  89.9795532  54.9072313  13.9166379  88.7389183  55.4413986
  75.4563615  66.5676308  43.6440563  75.6398699  65.6488848  43.4479523
  75.9092399  67.0545816  42.9555702  89.2541763  77.7259207  25.2794123
  88.6319277  78.2957363  24.8273635  89.4879171  78.2080746  26.0725880
  85.5983302 104.6554947   7.4311697  85.1872274 105.5014992   7.6086909
  85.7730171 104.2876244   8.2974160  98.6309645  83.4208202  38.2794499
  98.2460365  84.2916298  38.3781886  99.4305405  83.5682583  37.7743053
  91.0932419  77.4273872   7.8807771  91.4756724  76.6106606   8.2016194
  90.9412238  77.2707891   6.9487900  42.8232670  74.7685719  62.8352118
  41.9838858  74.7935247  63.2946157  42.7036715  74.1072845  62.1535730
   3.3275989  87.2741604  48.6293650   4.2009288  87.1263218  48.2665014
   3.0663389  86.4224148  48.9793873  22.8459191  66.2083340  24.1279960
  23.7584519  66.4409018  24.2995405  22.5935531  65.6631231  24.8731709
   4.9678078  93.7019730  45.8302879   4.8235765  92.7564621  45.8681679
   4.8146948  94.0036774  46.7256975  20.4813695  62.4718666  62.7444792
  20.2758360  61.6603708  63.2086563  20.6887341  62.1919012  61.8529367
 100.5180737  76.3960218  67.1859264 101.2956676  76.9540548  67.1991825
 100.4407188  76.0716629  68.0831671  41.1638212  98.2988548   8.8730919
  41.1695004  97.5852299   8.2351708  40.7466698  97.9235744   9.6485800
  78.4652993  93.1990051  43.4310389  78.9140865  93.9478493  43.0385447
  79.0851614  92.8598118  44.0767574 110.3319195  99.9181271  27.7727985
 111.1231723  99.9448395  28.3107924 110.5695879 100.3885269  26.9737530
 110.7661320 102.1863079  45.5237961 110.5286771 101.9760132  44.6206760
 110.0293609 101.8680954  46.0454655  20.1882267  85.5984116   3.6355603
  20.5520725  84.7662830   3.9379114  20.5880189  85.7367516   2.7769214
  69.8652598  97.9592991  22.3210073  70.3784415  98.1687737  21.5406227
  69.8121449  97.0035839  22.3233294 108.6817268  74.0940094  59.6485758
 108.4377795  73.6295652  60.4492092 109.5636567  73.7801027  59.4488430
  28.2197452  98.0833149  42.0863295  28.6309981  97.6922798  41.3154888
  27.6127505  98.7323761  41.7306519  22.2409034  75.6554079  31.0548544
  21.8527675  74.8026466  30.8589435  23.1813645  75.5238152  30.9346509
 101.1047468  77.1688843  59.2854595 101.6180095  76.4081955  59.5577574
 100.3002247  76.7977524  58.9231920   8.2115531  72.4285746  69.3049955
   8.9779967  71.8940687  69.5125961   8.1771678  73.0801868  70.0053167
 105.9283158  85.7298088  58.6721802 105.1211640  86.1925507  58.4472275
 106.3805547  85.6167793  57.8361559  24.1096902  53.9231873  50.6315804
  24.6950316  53.3328342  50.1571417  23.2955456  53.4286785  50.7256889
  30.9377050  85.6784821  55.7472610  31.3450694  85.0907230  55.1110029
  31.0065794  85.2135849  56.5811443  26.2212706  94.7056293  56.8858099
  25.5028844  95.3246593  57.0160007  25.8309817  93.9869595  56.3883924
  86.8671510  73.3226299  68.4640741  86.7127797  73.1742907  69.3970251
  87.4863765  72.6376534  68.2118845  19.5131767  64.0053558  41.8208218
  18.6661816  63.5777569  41.6943598  19.5573771  64.6600580  41.1239433
  36.5400004 101.6392612  28.7230563  36.5236306 102.2295189  29.4764185
  37.4669504 101.5669537  28.4955335  39.8414302  83.1408787  41.6768169
  39.3549037  83.5664749  42.3827887  40.0643682  82.2779465  42.0259237
  91.7626807  90.3972912   0.8379357  92.2149429  90.3348160   1.6792378
  92.3483500  89.9622440   0.2182874  35.9781480 104.4647312  47.4328279
  36.2245679 105.2190781  47.9680538  35.1765251 104.7387981  46.9872761
 102.3868552  72.2064066  70.6445074 102.1016791  72.9723692  70.1463079
 103.3000019  72.3903799  70.8648396 106.2679157  44.2909336  26.8396330
 106.4243326  43.3475780  26.8826175 106.4257112  44.5183706  25.9233332
   4.5548591  92.4716854  77.5447941   4.7636473  93.1607056  76.9140053
   4.0659705  91.8232346  77.0381165  70.1808835   1.7791099  50.2378511
  69.9544001   2.1042365  49.3665123  69.3449283   1.7358893  50.7021189
   5.5624795  90.7289410  32.1476173   4.9359515  90.1015663  31.7869377
   5.5789477  90.5386925  33.0855751   0.1788064  69.0831375  68.6879683
  -0.3308453  69.1584969  69.4946957   0.1755932  69.9664593  68.3192348
   7.2770804 100.9513378  57.8341722   7.1682400 100.7753372  56.8996096
   8.1834060 100.7059479  58.0201483  65.9102607   3.4536666  32.3667979
  65.2695823   3.1199187  31.7387986  65.4174710   3.5540980  33.1812310
  70.5455061   6.5411116  87.6741379  70.7255765   7.0669533  86.8948463
  69.7249844   6.8948485  88.0174237  98.0999729  68.7729263  43.6120510
  97.2229573  69.1124535  43.7903643  98.4075591  68.4478188  44.4581747
 111.0983839  85.2547932  34.3270993 111.8529552  84.6928120  34.5032644
 110.4832444  84.6901035  33.8591599  30.1934886  68.9226770  37.9935098
  30.7691264  69.1875887  38.7109303  29.4608712  68.4823704  38.4243655
  20.6690955  81.6181850  32.3632789  19.8643601  81.7650986  32.8603196
  21.3598275  81.9934750  32.9094315  96.9013748  99.4124508  27.2567511
  96.4274821 100.2371788  27.1496129  96.2253234  98.7763500  27.4903417
  17.5507105   5.4392261  48.7268925  16.6301227   5.6881351  48.6444664
  17.5273824   4.5204181  48.9942312  13.7305999  68.7386370  20.8309317
  14.2118573  69.1195059  20.0963831  13.0093825  68.2599688  20.4223251
   6.7572665  39.3315625   2.7120090   7.1757352  38.9009094   3.4574300
   7.1922803  40.1820612   2.6516008  79.9116888  13.6574150  86.8110001
  80.7480457  13.9757086  87.1507519  79.8467388  12.7597929  87.1370175
  39.1517258  68.2933140  47.5045919  39.7820282  67.6411819  47.1985245
  39.6578860  69.1030407  47.5707388   4.9555898  86.1708641  42.8736448
   4.6229926  85.4800987  43.4467554   5.6967556  86.5426445  43.3518457
  92.3619232  32.9622269  42.2476244  91.5430519  33.3541584  42.5510597
  92.0887825  32.2895098  41.6238642  93.3334181  87.3740101  57.0419550
  92.4318430  87.3547745  57.3629332  93.8685390  87.2277069  57.8219986
  76.3732955  97.3912144  39.1529489  75.9971091  98.2501888  39.3449593
  77.2098085  97.3866653  39.6181965 105.4769453  46.3680983  64.3962812
 105.2426800  46.8729448  65.1750517 106.4340785  46.3568068  64.3971300
  11.1181748  92.0602989  52.7896738  10.5089366  91.8623161  53.5009146
  11.1953306  93.0143452  52.7989960 108.2743174 103.0650043  63.5148954
 107.4201122 102.7469540  63.2226372 108.4427482 102.5871849  64.3270254
   0.3709303  68.1444263  52.5877953   1.2296834  67.7228165  52.5558710
   0.1057913  68.0786896  53.5051918  32.0995498  87.6698780  16.6092801
  33.0208039  87.4200344  16.5378344  31.7865443  87.6919365  15.7049727
  28.6421156  73.7211037  68.4384012  29.5264721  73.5396385  68.1202602
  28.1361580  72.9459476  68.1947374  23.8366151  88.7763596  77.7808380
  23.8012719  88.1658459  77.0444584  24.7664118  88.8321400  78.0012941
  23.0757332  77.9154444  36.5451360  22.3243928  78.4729290  36.3428164
  23.3998251  78.2451677  37.3832774   6.9885659  96.8724728  45.8448458
   7.4821448  97.2921276  45.1402187   6.6087955  96.0927582  45.4398060
 105.0463477  94.1263771  70.0037003 105.9546402  93.8434792  70.1095390
 104.6802041  93.5202694  69.3596458  84.3954898   3.5700149  33.7248492
  84.2514373   3.0244655  32.9516363  84.6437932   2.9512614  34.4116640
  40.7968933   1.6579741  33.0117679  40.0248034   1.6643542  33.5775137
  40.6898565   2.4268550  32.4517727 101.4192519 103.5981655  36.9037104
 100.5049214 103.7194347  36.6477299 101.4207289 102.7851391  37.4088955
  99.6297488  76.0885477  57.1301174  99.4251999  77.0224333  57.1775723
  98.8844618  75.7032299  56.6693497 110.6827109 104.8353958  46.7697001
 110.5347610 103.9830971  46.3599157 111.5659089 105.0827503  46.4958191
  31.2107468  96.3279438   6.1458093  31.7770362  96.0544872   6.8674541
  30.9248590  95.5085468   5.7419646  55.2681757  11.2052077  68.0876827
  55.5601335  10.4311866  67.6061440  55.4514755  11.0001582  69.0045166
 108.4129292 101.6529560  17.8885055 107.7055159 101.9882202  17.3376906
 108.9135125 101.0766125  17.3110271 104.5557353  75.5257130  55.9884882
 105.1405260  75.1518726  55.3293276 103.7310693  75.0538492  55.8722878
 102.6138243  48.5216570  39.9780917 102.3366603  49.4239664  39.8192072
 101.9848177  47.9887199  39.4917154  39.0742922  60.5637836  56.4062166
  39.5395041  61.3337517  56.7332554  39.2117596  60.5852222  55.4591799
 105.3107926  90.2550888  31.0059285 105.8424470  90.2439594  30.2100301
 105.6066516  91.0317707  31.4807558  38.1600976 103.0498123  67.7000761
  37.5333738 102.4878597  68.1557703  37.9696059 102.9171944  66.7714453
  12.8551996  83.9569092  29.6332955  12.3499477  84.0348530  28.8240528
  12.2026718  84.0235996  30.3304267 107.0367846  94.0869617  53.0284643
 107.4959752  93.7918377  53.8147736 107.5942659  94.7779179  52.6706696
  21.2249827  76.8382215   5.4519725  21.5255237  77.5546932   6.0110551
  21.6815281  76.9745445   4.6217838  31.2773121   9.7776813  51.1148691
  32.0929331  10.2240199  50.8873272  31.4290626   8.8638515  50.8738136
  49.7950459  69.2984629  62.7851820  49.5640993  69.4173336  63.7064648
  50.0939894  68.3909225  62.7283669  19.5270526  78.2987022  59.1833019
  18.7469673  78.6491680  59.6132708  19.3314064  78.3564377  58.2480907
 109.0352699  61.7210150  35.2083397 108.6507541  61.0541105  35.7772136
 108.2827967  62.1706247  34.8238039  36.3829160  74.7427845   3.6995712
  35.9215760  73.9304352   3.4910280  36.9931936  74.8651075   2.9723635
   0.4981038  41.1607170  13.5522485   0.6003040  42.0818377  13.7916601
  -0.3331541  40.9008360  13.9493680  -0.0075087  71.7226315  43.0239773
  -0.4233535  71.2604523  42.2961760   0.5629729  72.3664761  42.6041651
  81.5447951   4.8982638  32.9537082  81.6782571   5.8422297  32.8680396
  82.4288417   4.5314330  32.9650140 109.4634299  84.6331406  31.9689035
 108.8096374  85.1617146  31.5113020 109.0718487  83.7613392  32.0223665
 100.4686198  86.8386078  42.5984526 101.4113984  86.9112682  42.7471924
 100.2357170  85.9803677  42.9526043  34.9182534  79.5395184  17.4076831
  34.1195488  79.3204498  16.9277787  35.6064916  79.5340729  16.7424536
  21.9695807  79.1012573  50.0537252  21.7697930  80.0064850  49.8152447
  21.2024951  78.6039495  49.7700024   2.9288411  69.1291428   3.8088822
   3.6396402  68.8959122   4.4060430   2.9732826  68.4711838   3.1150907
  21.5943933  47.1677351  19.8297644  22.3811007  47.7103758  19.8832691
  21.6311598  46.7780685  18.9562416  17.5271583  73.0685949  27.8647995
  17.4211729  72.9087830  28.8025951  16.6469967  73.2862949  27.5579596
  73.9705822  94.0497494  34.0199327  74.0162584  95.0052547  34.0537834
  73.3842131  93.8123894  34.7383094  71.6834781  98.5579491  49.9545956
  71.0711810  98.8529491  49.2805767  71.1746451  97.9498386  50.4908085
  24.5359516  56.9834852  43.9216948  24.9860764  57.0288563  44.7652388
  24.8153329  57.7731037  43.4583616  19.3874836  54.9129057  74.3934107
  19.0602398  54.0389347  74.6062946  19.0066707  55.1093292  73.5374737
 110.5325748  71.7776108  34.6626973 110.4988529  70.8590746  34.9298739
 109.6445507  71.9727564  34.3634248  24.3966627  71.8348074  39.7794318
  23.9779353  71.9353485  38.9245701  23.6703992  71.6935921  40.3867435
 110.5901267  47.1689510  55.1583481 110.9380631  46.4363384  55.6667280
 109.6672797  46.9518852  55.0261784  40.2621941  11.6896361  43.9234114
  39.7180293  10.9229774  44.1033077  39.6382391  12.3763770  43.6882639
  41.7540312 100.3568935  49.3247652  41.1279202 100.2943230  50.0460863
  41.3092279 100.8917046  48.6672258 102.8831634  90.7126999  48.9326715
 103.3520159  90.5816269  48.1085205 102.0924661  91.1918640  48.6848164
  43.8827962   9.7937602  36.7717624  42.9876024   9.5148772  36.5791941
  43.8088209  10.2907008  37.5865054  42.5610990  12.3246211  45.9216118
  42.2582955  12.0838946  45.0460577  41.8257708  12.8013057  46.3067007
  52.9078401   2.5909442  41.8417597  53.2418288   3.4863490  41.7877150
  51.9588149   2.6932067  41.9133425 107.3640642  79.4201422  31.0362148
 107.2474068  79.3948603  30.0864863 107.4662831  78.5027313  31.2894750
  94.5488974  95.3477764  61.4357805  95.1657471  94.7680664  61.8826103
  94.0572962  94.7701454  60.8519220 104.8747215  77.5069952  53.4115601
 105.3873399  77.7192068  54.1915751 103.9648113  77.6293755  53.6823320
   9.8295885  95.4458714  53.9309883   9.5839292  96.3628387  53.8082790
   9.0026724  94.9669266  53.8757610 108.1435227  84.0406513  13.7278354
 107.3079053  84.2321491  14.1536331 108.0474636  83.1451607  13.4036338
  33.7474561  81.7904854  46.0707331  33.6300254  82.7275372  45.9146357
  34.3954968  81.5187645  45.4207754  47.0873213  71.5212059  67.8673124
  46.3365269  70.9276915  67.8504276  47.3430920  71.5577126  68.7889862
  75.8318830  15.8052176  63.5336876  76.0307623  16.3224048  64.3141985
  74.8794676  15.8530635  63.4509325  62.5924350   6.5673656  47.7300835
  62.4553753   7.3044604  48.3251810  61.9649816   6.7115420  47.0217419
  27.4725628  97.3982430  62.7459621  27.9728889  97.9689980  62.1627426
  26.7114854  97.1350288  62.2285604  15.2714443  69.5586920  53.9710331
  16.1722565  69.7632933  54.2218494  15.2245951  69.7835445  53.0418015
 105.6596471   3.1361598  47.0606995 106.2726498   2.4560660  47.3398542
 106.1394883   3.9554900  47.1818447  89.1564942   6.1612338  39.3950510
  88.2963753   5.8499927  39.6771145  89.0769912   7.1151179  39.3923569
  58.6101986  12.6499194  60.2556086  57.8746701  12.1960181  60.6669521
  58.2891441  13.5390586  60.1053095  36.6126513  50.4033184  23.2836127
  36.4078903  50.9766436  22.5449657  37.5398731  50.1926947  23.1734753
  73.8659502  19.6294898  53.0838633  74.4359804  18.8722533  53.2176399
  73.1727863  19.5256156  53.7357616  27.2446632  94.5702362  10.5861354
  26.4553332  95.0087070  10.2684402  27.4809885  95.0485992  11.3808358
  69.6709108  87.5101185  39.5391154  69.9301052  86.6037464  39.3731785
  69.6545506  87.9169750  38.6728430  10.7907128  79.0678978  24.1654634
  10.9704471  78.4695053  24.8906207  10.5381358  79.8883295  24.5889282
  11.1248529  81.6546535  49.4213772  11.3332796  80.7352543  49.5871973
  10.3829694  81.6268539  48.8171673  52.4689472  23.9880961  57.1579647
  51.6426087  23.6351890  57.4879026  53.0336178  24.0367049  57.9293394
 110.4929630  57.2171259  40.3330564 110.8432142  56.9982052  41.1965513
 111.2550713  57.5077915  39.8321176  45.7262754  82.9504585  43.3261347
  45.5345106  82.0129871  43.3015490  44.8817062  83.3630276  43.5070276
  42.4111176  81.8673420  56.3266611  41.8603659  82.6484394  56.2737942
  43.0294943  82.0575905  57.0320988  65.1345110  97.1745110  28.4019685
  65.6895590  97.9539776  28.4259677  64.7930098  97.1510792  27.5080657
  21.7935014  95.0102901  36.2928891  22.5778532  94.6934891  36.7408347
  21.0666227  94.6870804  36.8252516  57.0080519  98.5904980  21.1908364
  57.0820189  97.8084087  21.7377377  56.5616846  98.2882977  20.3998494
  52.3127986  26.6312331  27.5290751  52.1497823  27.4675197  27.0928526
  53.1749953  26.7351455  27.9316354  63.6326838   7.7036399  74.3777609
  63.1736232   6.9088286  74.6493435  62.9435898   8.2732314  74.0357685
  71.9520379   7.9384345  44.8837376  71.9277240   8.5808009  45.5929661
  71.2741543   8.2293433  44.2737579  24.8866034  90.2659035  30.7495046
  24.3959451  89.4446468  30.7173586  24.2311835  90.9280491  30.9690928
  21.3330364 102.7377319   4.3398032  20.8817244 102.9720497   5.1507568
  21.3706017 103.5544491   3.8420209  96.0876915 100.1431847  42.1957016
  95.9568343  99.2313957  42.4559832  96.9779250 100.3484058  42.4813604
  54.0935421  91.9058228  41.3472366  53.2142639  91.6133404  41.1073351
  54.6657038  91.1846161  41.0850763  37.3983550  74.6161890  35.5722404
  37.0864654  75.2837992  34.9612975  37.3950982  75.0514221  36.4247632
  34.1563249 100.4901600  48.0779266  33.7724710 101.0341454  47.3902035
  33.9710379 100.9634209  48.8890553  34.5833278 100.1412582  69.0802670
  34.2875624 100.9230995  68.6139250  33.7820387  99.6456242  69.2491198
  25.2851367  77.7154636  23.7840772  25.0982690  78.1451130  24.6187687
  26.0537505  77.1729994  23.9607120  93.7893078  87.6978207  45.6132174
  93.0454716  87.1400261  45.8408356  94.0383527  87.4173546  44.7325659
  12.5854957  94.0175915  42.5150299  12.5223744  94.9689770  42.5993156
  11.7739236  93.7615967  42.0767927  38.4263265  17.8954333  35.3438449
  37.5258822  18.2095164  35.4262066  38.9604286  18.6892528  35.3722644
 108.5280490  69.4635439  61.4276409 108.7482488  69.0593863  62.2669268
 107.5720870  69.4323635  61.3902760   2.1313828 101.9818592  77.1722221
   1.2792554 102.2520828  77.5144100   2.1436256 102.3104286  76.2732601
 107.4353003  95.9852409  63.2360983 107.0092431  96.6763783  63.7430906
 107.3055369  96.2430286  62.3234415  30.2947164  90.8889294  89.2055702
  30.6215596  89.9893665  89.2195225  29.4633174  90.8343983  88.7343693
  70.2476836  20.9517211  57.6255798  71.0893536  20.7302588  57.2271109
  70.0421024  20.2016467  58.1835747   8.0785167 105.2196884  54.2488909
   7.9094946 105.4911518  53.3466864   8.4984356 104.3634510  54.1666985
  22.9564000   1.0690898  45.3983498  22.5148655   0.2361602  45.2324772
  22.7568758   1.2679214  46.3131618  28.5609413   5.4831428  41.3958836
  28.8258023   4.8486537  42.0618439  29.3824232   5.8714980  41.0949135
  63.2044864   9.6935481  35.4459429  62.4689437   9.2124194  35.8250546
  62.8007770  10.2917689  34.8171520  38.8101365   8.8871688  11.1682427
  39.2652520   9.5811862  10.6913340  38.2059308   8.5125941  10.5272627
  17.5553346  57.7754211  20.2093220  18.2981956  57.3606348  20.6478858
  16.7854476  57.3593664  20.5971384   7.0567387  99.6096897  32.6791215
   7.4214530  98.9925385  33.3134246   6.4175498  99.0959835  32.1853900
  53.0426610  14.3633861  59.6199608  53.8279439  14.6480674  59.1524982
  53.1336380  13.4126872  59.6842670  24.4936300   9.3167228  28.0935097
  24.1797186   8.8382739  27.3261881  23.7224508   9.4031161  28.6539125
 110.4627563  43.4331219   0.0232029 109.6954061  43.9399998  -0.2422714
 110.5603315  43.6177819   0.9573364  66.6813851   2.2467059  53.7844658
  65.8526064   1.9355506  53.4204102  66.4305568   2.7318210  54.5705843
  68.0361654  11.6745799   2.5669003  68.9145996  11.2963717   2.5276279
  67.6786520  11.3640206   3.3987427  25.2814770  56.7133045  35.0579000
  25.9147000  56.0055542  34.9380875  24.5924211  56.5287828  34.4196320
  57.8058672  63.8706779  57.9465771  57.4550867  62.9895782  58.0763960
  57.0365381  64.4399023  57.9652166  70.7931280  95.9014893  35.1231408
  70.9309483  95.0249290  35.4821444  71.5015364  96.4268017  35.4952121
  12.6745570  82.0092392  41.2826061  12.5291848  82.3280334  42.1733761
  13.2054532  81.2206078  41.3941050  34.4000030  81.2219620  33.0102205
  34.2813897  80.6342506  32.2640538  33.5222960  81.5574169  33.1927776
  39.7759262   7.5374621  70.2137470  40.3719906   8.0997962  69.7190619
  39.7921131   6.7019576  69.7469425   4.6646550  90.3517628  28.2437634
   4.2480779  90.9793186  27.6531124   5.5987358  90.4206753  28.0463409
  38.3598876  91.5859032  55.1202345  38.6842728  91.1338902  55.8991385
  38.2273984  92.4899006  55.4056787  44.0185213  95.3785324  21.2500763
  44.6998787  94.7097588  21.1813545  44.3465185  95.9875202  21.9117355
   2.5117296  67.2948408  31.7115164   3.4167525  67.0918751  31.4749360
   2.5844017  68.0044603  32.3497868   1.6632915 104.3986797  43.2741785
   1.9920895 103.7796593  43.9260483   2.4100837 104.9669266  43.0854130
  40.1554441  66.1142492  58.7185621  39.4746304  66.4353800  58.1272984
  39.9203420  66.4755058  59.5732260  25.7653666  71.3367987  43.2423878
  25.4325438  72.0048046  42.6430273  24.9797344  70.9330893  43.6112118
   7.2288316  55.7013178   8.2504183   7.9099590  55.1192999   8.5873926
   7.0332104  55.3608656   7.3774582  38.9313630   0.8926791  34.7770834
  38.1989953   1.2273616  35.2946353  38.7869564  -0.0528794  34.7412181
   3.9295337  79.1734982  39.9052191   3.4999207  78.4338808  39.4755363
   4.7256118  78.8008785  40.2842236   8.3536602   0.9336394  67.8606224
   8.8486219   1.0563964  67.0505762   7.4405075   0.8832759  67.5780487
  54.8849059  12.9996985  70.8553457  55.0844718  12.0935077  71.0903406
  55.5525423  13.5166377  71.3061953  28.3406615  80.7703686  48.7804174
  29.1829395  80.5190945  48.4013891  28.2686090  80.2420998  49.5753813
  28.7637186  71.2303925  52.9009533  29.4029713  70.5272579  53.0157804
  28.8034010  71.4401436  51.9678593  69.4813276  13.1149978  47.5596285
  69.7337318  13.6993808  48.2744741  68.5384775  12.9933375  47.6712751
  39.8122144  49.6351099  15.4394484  39.3690372  48.7867498  15.4291391
  40.4189253  49.5794392  16.1777127 108.5857144 103.0808926  38.1822276
 108.0568597 102.3228931  38.4312010 109.3011090 103.0930710  38.8180685
  49.5162296  97.0196438  68.5804224  50.0212908  96.6485310  69.3038988
  49.8794031  96.6055298  67.7975798  95.6796846  98.2596684  37.7342057
  96.1332902  98.5311413  38.5321903  96.2616119  97.6120949  37.3364186
  24.2210722  87.0751381  38.4228134  23.2797718  86.9018650  38.4355307
  24.3164325  87.8383923  37.8530860  13.3408237 104.4741917  39.5413780
  12.8568149 104.3675804  40.3602791  12.8915453 103.9000225  38.9211249
  73.9432884   8.4012050  57.4404383  73.1194211   8.3618182  56.9547224
  73.6803270   8.3764953  58.3604765  51.1205292 104.5075512  28.6349750
  51.3713694 104.8341656  29.4990563  50.5070162 103.7956810  28.8168311
 107.4576983  55.7997704  41.7765760 107.5388414  55.2796030  40.9771538
 106.7022744  56.3659143  41.6183043  26.3160896  81.0119915  56.7837715
  27.1217680  80.4991341  56.8477249  25.7474995  80.6505775  57.4637079
  41.7330551  91.0171795  12.3804963  40.8174753  90.7382202  12.3919880
  41.8504095  91.4878464  13.2056820  63.1653453  18.8365287  21.7713046
  62.9034615  19.6670646  21.3739800  62.4257875  18.5938186  22.3284197
  21.4745355  82.1789742  77.1753645  21.5574670  81.7239475  76.3373327
  20.5802560  81.9928741  77.4614859  21.6078162  69.2661762  80.0275421
  21.3434529  68.3513117  80.1243114  21.5588689  69.4313240  79.0859699
  33.9316010  74.4812775  85.6527042  33.4102726  74.5633745  86.4512634
  33.6172581  73.6751795  85.2432728  22.2141719  77.4876070  83.8541985
  21.7990470  77.0329380  83.1212807  23.0820799  77.7253532  83.5279465
 104.0106407  74.1356945  43.4435558 104.2092678  73.9296389  44.3569660
 104.4922873  73.4795761  42.9398108  86.0841057  90.0120640  54.6922445
  85.4815719  89.9960232  53.9486551  86.8261716  89.4769382  54.4108009
  18.7742639  61.4688063  31.6644073  18.4958327  62.3454285  31.3993740
  17.9845607  61.0654068  32.0247817  16.9190633  97.0443344  42.6293612
  17.4825227  96.5970039  43.2607412  17.5245488  97.5345993  42.0732498
  54.4367445  19.3419284  54.9339724  54.6555699  20.1867694  54.5407915
  53.5720909  19.1306514  54.5818806  59.2903186   1.4814395  55.2736950
  59.4080711   0.9321517  56.0487127  59.4167639   2.3752231  55.5921268
 104.2568210  73.9588404  13.4701705 103.4620646  74.1678905  12.9793620
 104.3054101  73.0030584  13.4515059  15.2996731  88.9331150  13.4180987
  14.5914412  89.5587349  13.2656741  14.8858953  88.2148743  13.8968027
   3.5197547  89.2389393  31.3469434   3.4073958  88.2904434  31.2840915
   3.1172401  89.5812225  30.5487847  78.5703803  28.9636249  32.6791763
  79.1008902  29.7443313  32.5201535  78.7964535  28.3704108  31.9627786
  43.2295645   3.5051650  51.6687965  42.3235256   3.7714976  51.8249702
  43.7161786   3.8648719  52.4104452  28.2408357  90.3537369  20.7100868
  27.2976518  90.4891777  20.6190276  28.5722375  91.1895847  21.0383606
 103.7687036  72.1355915  76.6428757 103.4920004  71.9614601  75.7432413
 103.9322808  73.0784512  76.6649055   7.7201277  97.6278877  73.9707375
   8.1453860  97.5060844  74.8195934   6.8581808  97.9855061  74.1837931
   1.3045734  81.9668007  45.2036238   1.0060176  82.7064991  44.6745300
   1.0081397  82.1715355  46.0904408  22.8714824  86.3841438  43.3557701
  22.8579855  87.2470188  42.9416370  23.7183166  86.0128880  43.1082344
  27.6608849  96.4851570  50.0069952  27.1582866  97.1773529  50.4365349
  28.0344605  96.9057751  49.2325592  29.4223833  80.4894638  38.5391426
  29.0582752  81.3735104  38.5851359  29.5006680  80.2148438  39.4527531
 105.8326289  92.7140236  34.1390371 106.4376453  92.1264839  33.6862826
 106.1320898  92.7120113  35.0481868   8.6561209  56.6899729  80.4280853
   8.5689121  56.7483377  81.3795185   9.4733328  57.1489668  80.2338791
  38.4603319  13.2655543  60.1090240  39.2975786  12.8063411  60.1751661
  38.3453301  13.4200877  59.1714048  63.4919977  97.4055290  65.8544254
  63.6517286  96.4693356  65.7350254  62.6131344  97.4524689  66.2307692
 109.6610811  54.4132566  39.4443583 108.7151402  54.4473267  39.3019986
 110.0144267  55.0920486  38.8693666 104.4843766  68.6648798  39.1148710
 104.4844487  68.2669067  38.2443261 103.6064830  68.4943342  39.4561172
  81.4387990  23.5683745  26.3015413  80.7836867  23.1434459  26.8551588
  81.5424395  22.9769343  25.5560994  40.3988791  94.7668934  64.3481541
  39.8904252  94.0748882  64.7710514  40.1762152  94.6945953  63.4200239
 100.3468260  48.2677746  61.0217142 100.8836910  47.4878693  60.8811378
  99.9183139  48.4186220  60.1791859  68.5288335   5.9839934  40.3214312
  68.1292439   5.3108233  40.8722496  67.7925015   6.3809222  39.8561382
   9.2777318  90.7122898  36.4713836   9.6905369  91.0925388  37.2467780
   8.7519228  89.9880409  36.8108130  11.9348598  93.8170433  45.4385042
  12.2445798  94.2889881  46.2115288  12.3802912  94.2407131  44.7047949
  33.4505320  64.2361355  61.9876289  34.2932844  64.0541077  61.5718555
  33.2205558  65.1156092  61.6878557  26.9700360  98.7947273  13.2826555
  26.1850619  98.9644337  13.8034689  26.6365290  98.5518932  12.4189210
  48.4601784 102.1715927  70.3042650  48.7589598 101.3203716  69.9843073
  48.7896442 102.2192383  71.2017155   9.9396354  59.8835659  29.4901061
  10.5740988  59.3646383  29.9844766   9.1606575  59.9025774  30.0460434
  30.3789496  71.6713381  56.7768812  30.8010817  71.6029739  55.9205151
  29.6330333  71.0737467  56.7246103   4.0600309  85.2485466  60.2541685
   4.1379720  85.5629826  61.1548805   4.9633434  85.1073170  59.9707699
 108.8757497  79.9489784  41.4002657 108.1581253  79.6002388  41.9290638
 108.4559146  80.5738258  40.8090448  66.5840054   5.1857013  62.2189617
  67.3802591   5.2301234  62.7483368  66.0076428   5.8498210  62.5970888
   8.0940729  84.3023682  36.4452028   7.6222193  83.9354515  35.6975675
   7.9078025  83.6997318  37.1651721  72.9323793   5.2388591  68.0044413
  73.4524799   4.4585151  68.1962299  72.4071599   5.3763503  68.7927818
  16.1795545 104.0817833  39.4492579  16.5188277 104.6440792  40.1456404
  15.2311516 104.0860367  39.5786667  26.7434978  73.0178452  29.3630028
  26.1308169  72.4140263  28.9431763  27.2861862  72.4596643  29.9199176
 101.7343161  36.4230514  42.1286106 100.9800670  35.9120321  41.8350172
 101.4167854  36.8997240  42.8955460  99.1638717  77.2302341  47.3695326
  98.3134136  77.4999619  47.0228338  99.5386359  76.6789532  46.6826010
  45.8492899  94.8043919  36.7448473  46.3656616  94.0194321  36.9276547
  46.4457321  95.3763008  36.2617254  70.1030394 100.5458260  23.4641814
  69.7254273 100.8516979  22.6395106  70.5346772  99.7217178  23.2388687
  11.0164368  97.2043133  51.5312147  10.0765061  97.2399902  51.7086697
  11.4155626  97.6843071  52.2568464  39.0003562  89.7844124  44.2688656
  39.4111466  89.0173626  43.8699865  39.5045185  90.5266571  43.9354992
  11.4477408  74.9693203  28.1664491  11.2084639  75.8373117  28.4913659
  10.7469130  74.3958759  28.4766579   9.7168142  88.6226654  78.6907434
   8.7768459  88.5475636  78.8552189   9.8573834  89.5550346  78.5259485
  44.9706221  95.9514427  41.6988087  45.8944464  95.7933712  41.5044069
  44.5090723  95.6802082  40.9053135  19.0299296  89.3257332  43.4707499
  18.3802807  90.0284863  43.4525442  19.8011410  89.7229195  43.8753605
  64.2362785  93.8485813  26.9739032  64.3350172  94.7884655  26.8218970
  63.4211826  93.7704563  27.4696326  16.9603611   0.6251925  41.8446064
  17.4816883  -0.0519925  42.2757339  17.4281431   0.8046073  41.0289955
  21.4641284  27.9754855  84.4732749  22.3638868  27.7165915  84.2741895
  21.4521169  28.9230467  84.3383205 101.9846663  85.1359272  47.7575922
 102.0007429  84.8089886  48.6570835 101.1959216  84.7500324  47.3765516
   9.5734477  96.6894054  79.0080118   8.9411908  96.3510895  79.6420670
   9.0634304  96.8228626  78.2090712  47.8213907   3.9188594  29.2027950
  47.0903850   3.3011455  29.2201352  48.3008111   3.7002105  28.4036803
  44.7597719   3.1442660  27.9308748  43.8799990   3.5148829  28.0006909
  45.2167607   3.7250632  27.3225522  62.9635716  11.3906878  69.3984747
  63.0912519  12.0946998  70.0343227  62.5179363  11.8104476  68.6626434
  56.8887711  96.4789200  31.3373780  57.4060488  96.2496567  32.1094513
  57.3339796  97.2418785  30.9687114  36.1956525  98.0116177  65.4418659
  36.1951447  98.1114101  66.3938475  36.8561912  98.6333084  65.1362181
  35.7578778  95.8475494  42.3330212  35.4762530  95.5331516  41.4739084
  35.4292226  96.7453766  42.3790503   5.0808221  85.2938843  38.0135441
   5.7161605  85.7313728  38.5802698   4.5451015  86.0044861  37.6610231
  68.2725191  91.0135555  39.1060138  68.1751728  90.5721188  39.9497509
  67.9523468  91.9019985  39.2621732  79.9318982   2.8343314  37.0971656
  79.0591098   2.5266570  36.8526101  79.9826337   3.7204379  36.7387557
  99.3353292  78.5961580  54.7249460  99.2681882  78.6011219  55.6797791
  98.4789821  78.2901192  54.4262171  69.2041255  10.6785888  64.1628170
  69.5422555  11.5673942  64.0536737  68.7307239  10.5009383  63.3500671
 110.3695874  81.7850399  43.6830425 110.3670926  81.2181187  44.4542980
 109.5219383  82.2289181  43.7093258  26.6801346  16.3994998  28.3660555
  26.9195820  17.1921271  27.8858042  26.3381387  16.7193908  29.2008829
  14.2182887  87.4729061  31.5141988  14.1143703  88.0464935  30.7549667
  14.6355212  88.0246067  32.1758509  73.8337851   7.8524894  60.1187229
  73.0392957   7.3240966  60.0424767  74.0632582   7.8073997  61.0469151
  33.8918424  77.8693485  42.9029131  33.4602642  77.7034283  43.7410307
  33.5462666  78.7156200  42.6189566  74.2066670   9.1955298  24.4265604
  73.7126613   8.5653991  23.9020371  73.5946608   9.9166507  24.5737338
  72.5162125   0.9065074  24.1219187  71.6543175   1.1646194  23.7951899
  72.3289371   0.3472537  24.8758340  59.7419263  21.7824668  14.6375787
  58.8200284  21.9347209  14.8453236  59.7315932  21.4263362  13.7491572
  19.2281425  99.3110752  69.2312336  19.6876955 100.0488186  68.8302517
  19.6498728  99.2008018  70.0834179   0.7111803  75.0790930  20.5846024
   1.5624973  74.8211813  20.9381175   0.4870335  75.8792877  21.0596561
  46.3932276  92.5769043  75.2381420  46.2077761  92.9536915  76.0982990
  46.3942671  93.3268547  74.6433210  53.2178688  88.0605030  48.3888006
  54.1196060  87.7549076  48.4873486  53.2827187  88.8120365  47.7995396
  86.9266364  83.9114094  51.5979624  87.4216601  83.1153107  51.4045429
  87.3457119  84.2698956  52.3803282  41.4945364  90.1289082  25.0648975
  41.6908026  89.6688461  25.8810186  42.2345018  89.9270535  24.4922400
  23.9947403   7.2145862  65.5251074  24.1978777   6.2858027  65.4140234
  23.2934225   7.3832912  64.8958826  54.2269398  22.9852695  50.5690098
  54.5665563  23.8471049  50.8101273  53.3496881  23.1602496  50.2283621
  82.1881482  79.1830969  47.9198551  82.5805065  79.9572372  48.3235788
  81.4403126  78.9740753  48.4795713  61.3290549   3.6602515  27.0290065
  60.9268261   4.3248576  27.5882339  60.5944706   3.1284827  26.7226601
  11.6688752  66.4433193  47.4824810  10.7633698  66.7514706  47.5189972
  11.6985917  65.7133675  48.1009674  34.8062233   5.9774703  38.4616184
  34.8756122   6.5555495  37.7018499  35.4436722   5.2834720  38.2935476
  99.6757199  33.2603448  10.9642601 100.3769518  32.8968518  10.4235458
  99.1755177  33.8156884  10.3662395  55.0527287   2.3004169   7.0198971
  54.8788465   3.0662364   7.5671792  55.2295137   1.5957850   7.6431668
  62.6122952  24.6805495  51.6100788  61.8406249  24.3561954  52.0743561
  62.4146534  25.5996245  51.4298630  43.6680889  89.0672684  18.3715415
  44.4574261  88.6142635  18.0749571  43.9921427  89.7655964  18.9403546
  45.1370573  87.7582073  37.0058465  45.0884485  87.4309063  37.9040313
  44.2237234  87.8467369  36.7334247  14.2148805  20.7195777  25.2583766
  14.7021342  21.3417739  24.7182894  13.2999230  20.8525199  25.0105619
 101.2202784  68.0913950  91.2335343 101.1599895  67.1562029  91.0385782
 101.6749283  68.4646441  90.4784149 111.2160264  88.2001400  77.2475290
 110.8952614  88.2571507  76.3474798 111.2836709  87.2607899  77.4186325
  48.0790830  24.3945807  33.4868026  48.4492386  25.2716846  33.5863495
  47.1600390  24.4928092  33.7356830 108.2293177  93.7077141  23.7944603
 108.2964393  93.6088943  24.7441769 107.6545939  94.4633675  23.6723065
  25.4997587  85.6241322  43.2833672  25.7002091  86.1707783  42.5236130
  26.3526130  85.3113556  43.5851002  34.6144199  85.0368404  29.3192935
  34.6777630  85.2022743  28.3786297  34.7731972  84.0971184  29.4084406
  95.6099233  57.6610136  23.2187414  95.6207272  57.8982162  24.1460228
  95.1256189  56.8359375  23.1882048  42.1770070  13.1081504  51.4086819
  42.9323078  12.9074401  51.9613743  41.5788151  13.5845775  51.9843674
  38.7722945  92.9070663  65.8616304  39.3012357  92.1476841  66.1061430
  38.6512589  93.3882332  66.6802025  39.0053630  75.1501274  14.5196843
  38.5303378  75.0614643  13.6934161  38.9278102  76.0778761  14.7421813
  21.7041254  66.9847536  42.6525259  21.8193078  66.0347033  42.6332712
  21.7788982  67.2536898  41.7369270  61.1610032  10.5113334  32.2481751
  60.6710768  10.1573295  32.9903913  61.6585828  11.2416190  32.6160455
  31.1634398  85.0584412  66.5762997  31.6443992  85.6976128  66.0505819
  30.2444601  85.3046417  66.4709759  12.5082600 100.9578133  55.1788235
  13.0434597 100.4191971  55.7616425  11.6255391 100.9023952  55.5448341
  86.6455862  97.8343773  25.9084225  87.1426341  97.7508736  26.7221785
  87.1533868  97.3391342  25.2656960  22.2268701  48.8711357  29.5312667
  21.7606163  49.0661573  28.7183690  23.1328487  49.1244316  29.3544221
  83.3695746   8.3308429  30.7590842  83.6933804   9.1359347  31.1630678
  83.0778218   8.6004180  29.8881984  53.5750341 101.3007641  16.8329799
  53.4081125 101.5439510  15.9223616  52.7373028 101.4384937  17.2750926
  72.3689279  39.1036313  18.0819416  71.5096287  39.0231602  18.4959030
  72.6073894  38.2064335  17.8487110  49.2795408  18.6790866  39.7023201
  49.9125613  18.4817428  40.3926611  49.4799221  18.0521983  39.0072775
  64.2975808  31.2947005  33.6729074  64.7968937  30.9439963  34.4104218
  64.9162722  31.8620891  33.2129931  45.5391169 102.0884800  24.8548269
  46.3093328 102.0064735  25.4172087  45.7216787 102.8530407  24.3086195
  30.8102088  43.0573647   3.3050823  30.4662757  42.1737568   3.1739616
  30.0712590  43.6334794   3.1094456  82.3379279   8.8300151  70.4153013
  82.7758981   9.0214652  71.2446117  82.0548154   7.9194373  70.4985809
   8.0262339  89.1414928  49.8416138   8.8609850  89.5921898  49.9692488
   7.3638380  89.8067951  50.0282621  78.5896444  92.6884842   2.5141603
  77.9304838  93.2821655   2.8737000  78.1764936  91.8255520   2.5439700
  14.8269606  98.5305691  43.6359215  15.5268109  98.0446434  43.1996584
  14.8555219  99.4007015  43.2380724  30.7690167 103.0578423  78.8843870
  30.9818387 103.5686016  78.1033182  29.8235297 103.1637859  78.9895630
  76.8360091   8.1826228  72.5434494  76.3824750   7.4407786  72.1431875
  76.5072132   8.9475173  72.0711470  43.2478476  91.3416862  45.4298735
  42.4523306  90.8124542  45.4872561  43.1863832  91.9473648  46.1685228
  77.7795697   6.3299960  80.3246498  77.5508357   5.4031772  80.2544975
  77.7398682   6.6552276  79.4252777   9.0690541  98.7429810  71.5461206
   9.3276066  97.9602432  71.0595989   8.7275648  98.4077930  72.3751354
  76.2035132  20.1808280   0.4624358  76.1270595  19.2419642   0.2923759
  77.0920897  20.4030246   0.1844116  11.4018571  97.7747250  55.9266281
  11.7715502  98.1678200  55.1360321  10.4731345  98.0045223  55.8965826
  85.0969363   7.9432410  48.1740046  84.1767693   8.1876868  48.2728910
  85.3890277   8.4193439  47.3966789  97.4274922  11.7799968  16.2793672
  97.0341779  12.5829810  15.9376609  97.8661967  11.3880462  15.5242884
  28.1454253  76.6973114  32.5837183  28.5809827  76.8340445  33.4250402
  27.7869940  77.5555038  32.3573017  63.3363438  79.2226744  54.4475222
  63.9264727  79.0162849  55.1723528  62.4776840  79.3221951  54.8586559
  55.9366270  88.0521799  82.8849673  55.0403031  88.0130412  82.5513458
  56.1873420  87.1363665  83.0060172  70.7946063  21.5298862  53.3540630
  70.1437903  22.1670455  53.0596018  70.7113958  20.8009547  52.7392864
  43.1561184  95.7323074  54.3306875  43.6574316  95.5317211  53.5403204
  43.0153322  94.8820686  54.7472382  73.7191273  20.0710792  19.4600272
  72.8027845  20.3282088  19.3578541  73.6889458  19.1230792  19.5888686
  51.9065130  40.5669040  31.3011360  51.3858510  40.3597087  32.0771599
  51.6662789  39.8934859  30.6647205  51.8371964  76.3852882  28.1059909
  52.1094751  76.7864180  27.2806478  50.9049177  76.2033272  27.9877710
  33.3708334  84.4212914  78.9405155  33.9149618  84.2869473  78.1645632
  33.0777836  83.5427952  79.1825771  49.2512608 103.6783791  31.7595792
  49.0871429 104.0239334  32.6370120  48.8247490 104.3027306  31.1726332
  35.9056401  79.8069334  78.3534527  35.1982427  80.2497578  77.8847027
  35.6922841  79.9278116  79.2787123  43.5321856   4.6684951  75.8697319
  43.7506760   4.7081679  74.9386501  43.6871804   5.5570430  76.1901951
  24.9642086  93.1746483  51.1261606  25.2709723  93.5236263  50.2893019
  24.8395371  92.2394753  50.9644365  22.9557347  88.7901878  42.0123959
  23.5901141  89.4188023  41.6679478  22.1366882  89.0083408  41.5676498
  12.2354198  62.3167372  64.2709351  12.4267304  62.4384928  63.3409882
  12.1932209  63.2050133  64.6250820  27.3134494  89.3455982  47.3250723
  27.8354859  88.6987782  47.7997637  26.4683867  89.3479252  47.7746248
  57.2488786  38.7302417  23.4341049  56.4349747  38.9729136  23.8755822
  57.7226473  39.5559615  23.3343530  91.3003159   2.6725120   9.1057283
  91.9385577   3.1347579   8.5624009  91.1607743   3.2507152   9.8556906
  20.3637958  93.0624580  25.0598907  20.6516552  93.9747429  25.0265217
  19.6897113  92.9991055  24.3832612  56.7275667  76.7251158  35.5936551
  56.6805601  76.3221121  34.7267032  57.2833824  77.4945831  35.4702735
  33.9186148  35.8242600   8.1994152  34.3549018  35.5664437   9.0114594
  33.5005860  36.6599553   8.4070110  66.4913702  97.4316406  25.4552174
  67.2899389  97.0573997  25.8273339  66.7569256  97.7548122  24.5942473
  60.6754589 104.7852802  32.9620147  59.9703693 104.8755169  33.6030579
  60.6021500 105.5664921  32.4137759  72.1699811  18.2897491  54.6079874
  71.4733864  18.4381694  53.9684868  71.7359901  17.8448791  55.3359747
  59.3180609  98.4300900  54.2133808  59.1827393  98.9554214  55.0020218
  60.1348543  98.7626934  53.8412809  63.4028221   9.3480891  89.4604206
  62.9050446   9.8140162  88.7885857  62.7926756   8.6931438  89.7995281
 105.3906060   5.9498042  38.9989424 105.2010442   6.8880195  39.0057206
 104.5524884   5.5346316  39.2024851  41.8939352  74.1451025  21.8403196
  41.2312412  74.1305494  22.5308681  42.1140194  75.0711393  21.7390466
  39.1374707 104.1190338  57.3789835  39.0073133 103.3875942  56.7754221
  38.3991838 104.7040844  57.2090387  42.9130507  88.9739132  52.6283503
  43.4668350  88.4206676  52.0774746  43.1041956  88.6896515  53.5221577
  82.0954276  22.4828166  30.1648092  82.7670480  21.8132323  30.0351143
  81.5992261  22.1801776  30.9253550  80.2762700   3.7402553  30.7501388
  80.7206727   3.9876479  31.5610242  79.9158526   4.5610446  30.4145217
  69.4647146  14.8024482  53.1222248  70.1246572  14.1210479  52.9941273
  68.7473179  14.3589896  53.5749054  49.0950155  88.8474751  63.6478329
  48.9790535  89.2529583  64.5071173  48.2399893  88.4681702  63.4446287
  76.4981628   7.0549506  75.0702524  76.4583684   7.2896785  74.1431332
  75.9017707   6.3110370  75.1547861  68.6328483  34.3224544  30.2630305
  68.6958266  34.4325465  29.3142700  67.8899265  33.7317103  30.3868127
  49.5996786   8.4152526  57.7564287  50.2092827   9.0037745  58.2016897
  48.7986124   8.4605330  58.2784176 110.8688898  93.5514069  75.3408384
 111.8058299  93.4805012  75.1582241 110.5922800  94.3384361  74.8714828
  57.9782415   5.0909537  45.7454014  57.2918320   5.5676765  46.2120962
  57.5289894   4.3367785  45.3637791  42.1972704  90.4407024  68.0627203
  42.5595903  90.5275249  67.1810055  41.4629364  91.0544014  68.0814123
 102.9394628  63.0053513   7.9206562 102.4944045  62.1841424   8.1298828
 103.7799908  62.9446499   8.3745956  94.8728896  18.5044974  72.0495939
  94.1694308  18.2732028  72.6561213  94.6022654  19.3440265  71.6778755
  13.9105133  28.5688037  15.9062660  13.5826115  28.2542533  15.0637913
  14.8260216  28.2900924  15.9261274  90.3373242   1.0203952  62.0123196
  91.1004878   0.7895774  62.5419712  90.0095273   0.1821727  61.6864872
  38.7646818 105.5254173  35.7477951  38.6715579 104.6014023  35.5159426
  38.0861020 105.6768417  36.4056945  42.4457026  99.2629528  30.9126306
  42.4691582  99.1689587  31.8649149  41.5172625  99.3688011  30.7051992
  41.2726927 101.3882065  70.4912329  41.5625238 100.5923748  70.9371948
  40.9608698 101.9571209  71.1950350  60.4793978  15.8554954  27.3997092
  60.2005053  16.5735549  26.8315244  61.3598872  15.6367320  27.0945549
  10.0169063  79.2478037  65.5447817  10.8661604  78.8404512  65.3742981
   9.4186139  78.5110998  65.6694555   7.1793348  21.7650819  32.9010153
   6.8215734  22.0786858  33.7316132   7.8043699  22.4410367  32.6390028
  92.9845020  21.4487529  51.4100742  93.8093778  20.9676051  51.4757299
  92.5173923  21.2346339  52.2176552  27.8127599  61.6282225  33.8157845
  27.8505039  60.9400892  33.1514907  27.2724080  61.2579584  34.5137501
  14.9190235  35.3057766  34.5963717  14.2150319  34.8229265  34.1633773
  15.4299951  34.6325922  35.0457740 102.5535551  38.5926986  52.6720428
 102.5593826  38.0089068  53.4305811 101.6595039  38.9329648  52.6385498
   8.0267793  24.0682912  17.1363831   7.7089822  24.4275522  17.9647350
   7.9994220  24.8072767  16.5286148  89.7723600   5.2342570   3.2830006
  89.5802423   4.4726008   3.8299945  90.5779812   5.5967247   3.6515427
  20.9288812  32.9895258  36.4680696  20.4452133  32.3403096  35.9573674
  21.3919449  32.4766254  37.1304417  40.5796289  48.7117720  10.4443896
  40.8489704  48.0715942   9.7857046  40.7982302  49.5596838  10.0577521
  25.8604336  16.4081728  47.8294849  26.6387844  16.5143859  48.3764029
  25.5763865  17.3025799  47.6408434  75.6896016  58.9183140  45.4803419
  75.2145311  58.8786840  46.3103867  76.4521906  58.3553791  45.6137228
   6.1570549  54.2060041  20.7129073   5.3642273  53.6697912  20.7243776
   5.8988553  55.0243950  21.1369395 103.0983677  49.2232084  59.0846205
 103.2692668  49.0721369  60.0142479 103.5960051  48.5399342  58.6354828
  89.2570588  36.7536950   9.0049320  88.6083028  37.3582888   8.6446363
  89.1062519  35.9330940   8.5357803  94.1087088  49.3500376  44.9228430
  93.7508950  50.2372837  44.9544430  94.8345873  49.3621588  45.5466890
  15.2397132  77.8380537  36.8208432  16.0150218  77.5775623  36.3235784
  14.5215654  77.7844477  36.1902714   3.0554006  38.8764191  27.6289105
   2.7294251  38.3668780  28.3707595   3.8908738  39.2323446  27.9314518
  93.0731794  69.3433905  20.4423547  92.1509132  69.5832539  20.5324793
  93.5510084  70.1454020  20.6537533 109.2267367  49.7122812  25.3798604
 109.0081644  48.8369846  25.0599933 110.0089023  49.5828772  25.9162402
  16.2574899  69.8365355   4.1692755  15.7184756  70.0165415   4.9395311
  16.1942244  68.8890600   4.0487817  81.4486477  59.4743490  13.9944839
  81.3376304  59.2947149  13.0608690  82.3835513  59.6538401  14.0943408
 108.3386075  49.0517282  17.5982702 108.8457713  49.8635101  17.5932992
 107.7291289  49.1545630  18.3291554   9.8708153  59.2376947  26.8714952
  10.7245350  59.4771051  26.5108347   9.9197596  59.4932365  27.7926540
  96.7000934  78.1743574  54.1727161  95.8222613  78.5442638  54.2666006
  96.5737745  77.3905039  53.6380720  70.1078283   4.0744854  81.7180586
  70.7079183   4.0089823  80.9752035  70.6132796   4.5239426  82.3953605
 105.9428105  34.7653317   4.9275923 105.9563181  34.7255397   5.8838695
 105.2144852  34.1981149   4.6745342   1.1209683  65.6911087  25.5646968
   0.5943731  65.1146507  25.0109553   1.9820291  65.2740431  25.5940437
  22.8462744  41.1452770  51.1943722  23.4601974  41.8677807  51.0627890
  22.1150231  41.5363789  51.6724300  94.4576856  21.6498375  17.8657222
  94.6055421  21.2075472  17.0298100  94.6600410  22.5686789  17.6896107
  34.8888493  42.4419212  48.8922262  35.0526547  43.1532240  48.2729959
  34.1937780  42.7742052  49.4602871   3.8616130   4.7511289  35.7733083
   3.3798006   5.5754012  35.8416009   4.7253445   5.0048232  35.4479790
  93.8485298  15.8573318  27.7255416  93.0686733  15.4616952  28.1148076
  94.5608470  15.2618408  27.9584074  87.6875707  49.0322304  40.3599262
  87.5570294  48.4641886  39.6006370  86.8382522  49.4531679  40.4929781
  17.6594532  37.2166443  19.3155766  16.8073893  36.9364691  18.9813280
  18.1188905  37.5547123  18.5469043 102.3227724  62.3578835  53.5835838
 102.5004390  62.3405552  52.6431751 101.3682112  62.3271227  53.6475992
 106.2247351  52.1530294  12.8965533 105.7194826  51.5544987  13.4467483
 106.8208075  51.5846014  12.4088848  19.2225373  64.6904802  23.1168246
  19.5079803  64.1466761  23.8510132  19.1802955  64.0876675  22.3744869
  48.5602093  63.7503958   8.4435833  47.7066088  64.1316366   8.6491239
  49.1923475  64.4081116   8.7334794  30.6340575  44.2789078  27.3243928
  30.3909707  43.3828592  27.0915127  31.1427975  44.1873693  28.1300211
  23.7308836  40.6744242  23.4946966  23.2169557  40.8587599  24.2809105
  24.0082955  39.7641325  23.5978603 102.9900059  40.5398703   7.9943776
 102.6512924  39.7173476   7.6408792 103.7293771  40.2782869   8.5431361
  25.1886344  49.1328049  67.5112152  24.9418640  50.0560093  67.4561977
  25.3724432  48.9889240  68.4395170  99.3113324  43.5726023  42.5332880
 100.1091072  43.9335060  42.1465921  99.3590245  42.6345158  42.3490238
   8.7604541  53.5236311  56.1035395   8.6486644  54.4574308  56.2817287
   7.8770649  53.1604052  56.1661863  91.1471006  48.5594654  46.3282681
  90.4579231  48.3203411  46.9480181  91.5042660  47.7221155  46.0324430
  -0.2152455  38.8143849  23.4883714   0.0396294  37.9228878  23.2506680
   0.2017823  39.3670201  22.8273773  97.7435347  25.5511403  70.9889889
  97.2828028  25.6111097  71.8258667  97.3836955  26.2672639  70.4656219
 101.1788377  37.1164989   9.8312080 100.8174941  36.3329458  10.2455854
 100.7725534  37.8448653  10.3009367 104.0799138  30.1779723  51.4979029
 103.2789084  30.6836152  51.3602543 104.5763293  30.6856966  52.1397924
   8.5766810  66.9125032   6.0461479   8.8791537  67.7758932   5.7645470
   7.6219869  66.9678926   6.0046446  26.1993337  23.5255647   2.3903275
  27.1463871  23.6379814   2.4720940  25.9868908  22.8262949   3.0084881
  31.7559671  46.8000793  15.2571809  32.3883557  46.0979795  15.4100430
  30.9247637  46.3470650  15.1153672  26.3334751  52.8987026  36.8971944
  26.0735559  53.6278915  36.3342047  25.7884359  52.1668482  36.6081405
  10.3870535  37.2508764  29.3902922  10.5201745  36.6561604  30.1284122
  11.1061239  37.0527411  28.7903666  10.1717794  54.6890593   5.9098899
   9.9096996  55.0627136   5.0685048  11.0702074  54.9935484   6.0377437
  88.8224098  25.2557325  31.8198967  88.3480522  25.9684443  32.2479844
  88.2915398  24.4778633  31.9911551  94.8638186  24.6688557  55.5091476
  94.8119518  24.1817498  56.3315010  93.9887616  24.5910454  55.1290798
   8.5670292  65.5498934   3.5003430   8.7629169  65.9341192   4.3548784
   9.0970308  66.0547733   2.8835535  98.7818035  71.1247396  90.2866745
  98.8374981  70.4102373  89.6521473  97.8472647  71.3245440  90.3409672
   4.4306022  53.2216740   9.0212274   4.0700820  52.4002361   9.3551415
   5.3057861  53.2728672   9.4054973   6.7822945  19.4535756  20.1610732
   7.0406526  20.0563669  20.8582997   7.6069522  19.0817881  19.8481083
  78.6888835  31.0142970  27.8709745  78.5426685  30.2354288  28.4078312
  79.3945119  31.4832234  28.3164287   5.2372009  15.2670050  24.7218037
   5.6776994  14.9517727  23.9326143   4.5207933  14.6473968  24.8599267
   5.3541142  59.0642309  65.0242567   5.1480991  58.1319618  65.0925779
   6.1835498  59.0918970  64.5472813  16.9680643  43.5738754  46.9151258
  17.7402747  43.0407381  46.7262077  16.2566078  42.9403448  47.0084095
  93.3013615  23.2388759  23.8337564  92.7638337  23.5505557  23.1056404
  94.0718529  22.8547621  23.4153891   1.3115469  73.6976099  41.4315987
   1.2862396  74.0862370  40.5572033   1.8576270  74.2944622  41.9432592
 110.9632693  52.9242849  57.3813343 110.6484781  53.0860233  56.4919662
 110.1808530  52.6676226  57.8693724  90.6180117  42.4592590  49.3702221
  90.9397885  43.2396221  48.9188576  91.2113234  42.3507309  50.1134825
  96.3397345  63.6552143  49.9330711  96.4895043  63.4806967  49.0039062
  95.6080899  64.2722750  49.9459791 100.7018861  39.3812990  14.3248820
 100.9273717  40.3102922  14.2762876 101.3452896  38.9489722  13.7633157
  17.1096230  38.0874348  25.2567863  17.5116277  38.9546251  25.2057338
  17.8453612  37.4783206  25.1943469 104.7000411  47.1873236  13.9051199
 104.2906138  46.8995667  14.7210836 104.7140434  46.4041376  13.3549798
   7.8368217  67.8650331  62.4969769   7.0194757  68.3512020  62.6056719
   8.5063869  68.5416317  62.3963451  17.3007941  45.9658146  16.1015332
  18.1133735  46.3251495  15.7454121  16.7633426  45.7800674  15.3315496
  26.3135393  77.1696050  88.0987552  26.7533632  77.9335196  88.4718749
  25.6533690  77.5367315  87.5108573 110.9211207  74.4733238  50.4258537
 110.6661725  74.0722132  49.5949841 111.6814793  73.9675236  50.7126522
 103.6298850  31.2687349  14.7945487 103.3619931  31.7025256  13.9844310
 104.3329355  30.6764126  14.5278895  36.5452385  41.4595079   5.1036048
  36.2440801  41.6911602   4.2250431  36.4632297  40.5065775   5.1414007
  28.1685448  36.0448194  42.8302860  28.4535527  36.9570017  42.7762127
  27.2246194  36.0792208  42.6751852  29.3987370  26.7871714   5.4424518
  30.0763345  26.2833285   5.8932686  29.8347425  27.6001811   5.1872110
 111.2209757  52.6027584  62.2750473 111.7097366  51.8784618  62.6658678
 110.6377992  52.1841145  61.6419029 103.3373871  27.8083491  54.4686747
 103.0342272  27.6229620  53.5798788 103.6866435  26.9738650  54.7815466
 106.2061945  58.3169222  12.4573696 106.5692189  57.4330759  12.5145304
 105.4235110  58.2904291  13.0077672 111.6800401  41.1900997  29.7397208
 112.5581784  41.5126371  29.5370507 111.1362213  41.5066528  29.0184116
   4.8038676  15.5107653  30.1476836   4.4340628  16.3384652  29.8404551
   4.5410275  15.4574108  31.0665417  11.5130281  34.3340755  28.8117194
  11.4594507  34.0815377  29.7334480  10.6536877  34.1132641  28.4525418
 106.7269418  41.7853022  27.3446918 107.4769258  41.7346334  27.9373026
 106.5098634  40.8726454  27.1545148   5.8068991  57.5085068  55.6438780
   6.0435915  58.3904266  55.3567839   6.4339387  57.3063040  56.3382578
  28.5177220 104.4787891  90.8402518  29.3042852 104.8421008  91.2471354
  28.3143868 103.7029178  91.3626584  15.1809025  66.4849091  65.7833672
  15.7502377  67.2191954  66.0134029  14.7924900  66.7363548  64.9454308
  83.1032129  99.6630771  82.1404248  82.4440666 100.3195579  81.9150478
  83.4549756  99.3775613  81.2972307  92.9589030  63.3649540  27.3717213
  93.2552180  62.9180813  28.1646490  92.6531216  64.2187166  27.6780176
  20.9124780  57.0526886  18.7398744  21.2243867  56.5260077  19.4757783
  20.3921866  56.4451838  18.2140756 106.5669462  50.3985357  24.9930739
 106.0506240  50.4505348  25.7973981 107.4561027  50.2068377  25.2912092
  29.7132206  57.8747892  53.1380510  29.0950179  57.2093773  52.8359270
  30.2679992  57.4171209  53.7697077   6.9970137  46.5821552  21.2477374
   7.6730686  46.2914371  21.8598366   6.2076652  46.1163664  21.5237880
  24.4976759  59.9715900  39.9084544  23.9602304  60.2479315  39.1661477
  24.7124386  60.7851982  40.3646946  10.3311813  44.4259167  25.6081295
   9.7300053  43.7621021  25.9460139  11.0042381  43.9264250  25.1458192
 100.7750675  49.1352177  37.6373243 100.4177269  49.9731350  37.9313159
 100.1151940  48.4905815  37.8927517  76.1191246  23.9102340   9.9757892
  76.4664432  24.3858242  10.7303858  76.0675213  24.5672679   9.2816186
  20.0055027  37.9022408  32.7633882  20.4939008  38.0544186  31.9543505
  20.6771374  37.6956177  33.4133458   8.1952465  61.0061455   9.4725853
   8.5814476  60.7196045  10.3002179   7.2561324  60.8567953   9.5820934
  97.5782332  80.7996750  44.1777611  98.3504865  80.6983376  43.6213541
  97.1995351  81.6375160  43.9116096  17.8381586  38.1555104  21.8283391
  17.8382385  37.8446007  20.9230399  18.7438893  38.0478048  22.1186519
  53.3328660  96.4897783  86.6223353  52.8603156  96.3967855  87.4495471
  53.7441011  97.3524053  86.6770816  25.6818223  48.3671856  34.6631765
  25.3630924  49.2094374  34.9875975  26.5515828  48.5591555  34.3126106
   9.9730778  11.5376246  77.2781801   9.2569548  11.6497827  77.9033375
   9.6760571  11.9918704  76.4897203  13.3118021  68.9033699  16.3824797
  14.1369009  68.6876345  15.9478509  12.8938878  69.5387554  15.8012176
 110.1189776  21.7960358  55.8896399 110.0151068  21.0403562  56.4679098
 109.4884181  21.6469455  55.1850843  90.7626745  62.8563881  29.6512175
  91.6623542  62.7388811  29.9561739  90.5651471  63.7745810  29.8359799
   4.8375359  75.6401253  51.6992760   5.6175965  75.1407433  51.9408417
   4.6610802  75.3854799  50.7936001  89.3919823  55.5377293  35.4261017
  88.4386489  55.6024170  35.4826689  89.7112033  56.0461664  36.1716342
  98.5554799  67.7593899  25.2337050  98.0719408  68.3299780  24.6363354
  98.3206889  68.0729771  26.1070704  13.6827040  48.9620590  18.2661998
  14.5048738  48.7285233  17.8352368  13.0427504  48.3447123  17.9118419
  93.2781491  23.4810138  49.2006922  93.4060165  23.2504153  50.1208591
  92.5671610  24.1218114  49.2109299   1.8605754  43.9551783  46.7593193
   1.4515898  44.7857571  46.5162134   1.2456951  43.5566521  47.3752165
   3.3804947  80.5795860  24.7734642   3.7364426  80.0409412  25.4801440
   3.9732248  81.3294220  24.7220302  83.9360377  58.1679487  48.3082914
  83.1476280  57.7608204  48.6673021  84.6425626  57.8664827  48.8794041
 107.8676391  64.1038561   7.6326394 107.7336940  64.4404125   8.5186541
 107.4931133  64.7751570   7.0622712  20.8687377  46.3139009   9.3943441
  20.1147246  46.8979025   9.4758332  21.0035610  46.2270832   8.4506726
  32.6974106  56.5516376  34.6559620  32.5099754  56.3267136  33.7446380
  33.5934854  56.2467289  34.7984862  22.7758694  41.0385084  28.6780334
  23.4037971  40.3403950  28.8639832  22.9367781  41.6927481  29.3579698
  10.8378518  38.6197615  18.8876426  11.5211892  38.0969429  19.3070972
  10.2623463  38.8824081  19.6060026  31.7519808  66.0573244  55.8771324
  31.8388057  65.1070595  55.8017206  31.9257522  66.3845015  54.9945259
  97.9262027  62.9866362  16.5123165  98.1564543  62.4771500  17.2892582
  97.8538761  63.8870001  16.8290937 110.6686030  53.2806969  76.8091059
 110.6541851  54.2003870  76.5441656 109.7940892  53.1197882  77.1634579
  98.1689426  49.8805046  33.3770800  97.5370917  49.2844439  32.9749489
  97.6679549  50.3429222  34.0489507   8.9446408  16.5605199  50.0387144
   8.1437069  16.5690601  50.5628014   9.5854354  17.0298219  50.5729151
  25.5167961  73.9709139  16.6676509  25.0635695  74.4630861  17.3521829
  25.3009176  74.4329405  15.8576119  44.6359682  74.1923285  19.0185642
  44.4025230  73.3712244  19.4516015  45.0122261  74.7314644  19.7142601
  72.9910943  50.7389879  18.8465822  73.0225798  50.0575209  18.1751335
  72.1979806  50.5461121  19.3465865   1.3467887  51.3455772  -0.0834923
   1.4466755  52.2820473   0.0876026   0.9900649  50.9900904   0.7305167
  91.5516588  66.7153597  47.0433617  92.1512648  66.4876318  46.3328362
  90.8124396  66.1171865  46.9339228  98.0787596  62.5486612  39.0172243
  97.2229812  62.1311712  38.9193583  98.0865869  62.8704405  39.9186850
  36.7752385  60.8550358  42.6562452  36.7196441  61.4817238  43.3776283
  37.6334524  60.4443598  42.7613449 108.5170126  48.8102388  13.4372759
 109.2284486  49.0963459  12.8643584 108.4092399  49.5275640  14.0618277
 108.4416440  46.0032272  13.6229622 108.4157839  46.9590569  13.5787916
 109.1486499  45.7549763  13.0273569   3.0756268  50.0183392  32.7924824
   3.7696150  49.6050644  33.3061123   2.2680606  49.6191263  33.1160545
  96.4483020  52.1809530  38.7869406  96.4272818  53.1131458  38.5705876
  96.8809125  52.1427488  39.6399450   3.7845671  73.1084394  14.2557788
   3.7906152  72.7288818  15.1344883   3.6624724  72.3595667  13.6722398
   6.6273689  36.6832614  20.3779364   7.3537725  37.1453166  20.7963562
   6.9317526  36.5163469  19.4859040  60.4796048 102.5354011  87.0047426
  61.1073203 103.2107980  86.7477450  61.0221262 101.7940767  87.2737002
 106.5664414  42.8696489   2.3657249 107.1454838  43.6244678   2.2599377
 106.0395607  42.8581190   1.5666655  99.3005797  29.0818238  14.9044836
  99.6589515  28.2372904  15.1775551  99.2897841  29.0395260  13.9482784
   8.7463999  88.3456993   2.4029610   8.3892685  89.2337704   2.4058299
   8.0910242  87.8254890   1.9380942  35.3544497  72.0989084  12.5574827
  35.4064679  73.0331469  12.3556948  34.8798704  71.7201090  11.8175364
  25.5957055  48.8122416  46.2421703  25.4050732  49.6229649  45.7703495
  25.8169651  48.1823063  45.5562735 106.7893842  64.7321272  35.3653669
 105.9705862  64.4086313  35.7410669 106.8489188  64.3003845  34.5131421
 108.6795560  40.0601673  38.5741878 108.5561255  39.2459989  39.0621758
 108.8004023  40.7280064  39.2491817   9.6792346  62.1681881  44.5080566
  10.6033933  62.2133493  44.7532558   9.2801577  61.6144848  45.1791573
  75.3700884  56.4362456  80.2102029  75.0182939  56.2907149  79.3319702
  75.8570053  55.6364180  80.4087436   3.6586830  63.6771965  30.5050850
   2.7983963  63.6977005  30.0858974   4.1382098  62.9953861  30.0345302
   3.4157002  62.0900917  44.8411989   3.5332316  62.9792976  44.5069313
   4.0829536  61.5740061  44.3888092  18.1475866  45.3428555  73.5922813
  17.8437722  45.6243896  74.4552231  17.4107838  45.5230284  73.0084229
  95.5988988  65.6585407  26.6958904  96.3897106  65.3264999  27.1208596
  95.8866581  65.9117842  25.8187985 100.4827687  64.3290377  19.6171224
  99.5709965  64.4089174  19.3369031 100.5831441  63.4048462  19.8452175
  68.3429858  45.3171206  19.4012928  67.5215480  45.2782822  18.9114356
  68.5776374  44.4008732  19.5484698  77.6342910   3.4364773  79.5436049
  76.9947854   3.1480910  80.1948333  77.2470664   3.1920172  78.7030518
  32.3407842  94.0255840  91.2704679  32.1826424  94.4350917  90.4198645
  31.6143282  93.4119232  91.3796194  98.1098673  37.8553939  13.5517097
  98.7693366  38.4620523  13.8883054  98.0941150  37.1411490  14.1887641
  28.1487441  72.5768280  42.7228737  28.3056569  72.5845814  43.6670923
  27.4502301  71.9337416  42.6014280  42.4269676  38.4153771  15.0479126
  41.5634775  38.7873125  14.8682618  42.4610138  38.3385754  16.0014188
 108.6644581  90.3982449  43.3315039 107.8803170  89.9365139  43.0346012
 108.3486339  90.9945869  44.0103769   3.2442868  18.3294451  11.9941211
   3.7609994  18.1707084  12.7840853   3.3667687  19.2609406  11.8109667
  20.3170347  73.5387993  37.9712486  20.3285527  72.6221943  38.2468081
  21.1995959  73.6996508  37.6374221   8.2579321  54.7173882  22.7098441
   7.7367067  53.9954948  23.0611634   8.0782402  54.7071838  21.7697167
  86.1252448  33.0343866  43.2098293  85.9048483  32.2593975  43.7265968
  86.8814442  32.7668667  42.6875019 101.5848979  33.0036402  15.1517105
 102.3550966  32.7303076  15.6500244 100.8720931  32.4676561  15.4993618
 110.4850580  75.7026291  40.1108122 109.9666542  75.7187223  40.9153175
 111.1049090  76.4251328  40.2108049  29.0817285  74.3291092  64.8974705
  28.7103844  75.2112007  64.9133635  28.3211732  73.7485361  64.9243832
  49.2898560  36.1775613  29.9267554  49.5432520  35.2619982  29.8094320
  48.8090134  36.1888361  30.7543373  37.9253840  58.1351852  55.5735350
  38.1892109  58.7552023  56.2533903  37.0575428  58.4333467  55.3011703
  98.0499955   7.0247055  87.9965708  98.5413571   7.8247239  88.1830293
  98.7103482   6.3317753  87.9999316   8.2741636  62.9770470  20.3950405
   7.9105073  63.5794210  19.7460926   8.0615419  62.1062803  20.0591969
   2.3872229  51.9152689  21.6591263   2.0218000  51.6747189  22.5104976
   1.6535808  51.8285656  21.0504508  91.4913198  89.3102932  30.1344466
  92.2089300  89.5394707  29.5438981  91.0128662  88.6210155  29.6737838
  88.6952707  26.9535160  24.3530798  88.0847690  27.0680308  23.6247897
  89.0203139  27.8354573  24.5340729  11.7697752  15.4974830  17.8757393
  12.4667573  15.1736891  18.4463561  11.0766494  15.7717609  18.4762228
  88.2901737  45.5058718  41.1073160  89.1273901  45.9653807  41.1717749
  87.7106926  45.9789848  41.7044687   1.7727382  90.5199146  44.2591667
   1.0167558  90.0687313  43.8834620   2.0522375  89.9579334  44.9818659
   6.4404160 104.1591644  11.5514863   6.7053771 103.5968590  10.8235812
   5.7474613 103.6684132  11.9933093 105.4936746  52.3053646   1.2033819
 105.8093062  52.2740364   0.3002611 106.1122313  51.7625618   1.6922441
  39.0874346  87.9816134  87.7624229  39.7275732  88.5062845  87.2816178
  38.3319841  88.5604007  87.8650454 105.4511705  60.0877857  45.6252861
 105.9738085  59.6653509  46.3069248 104.5812902  59.6984863  45.7146549
  75.2258012  83.0237293  70.2718639  75.0111410  83.0280209  71.2046766
  74.8615953  82.2006607  69.9460697  77.9987952  66.9175100  18.0631447
  78.6480257  67.1463823  18.7282395  77.9170558  67.7061415  17.5268507
 109.9792905  61.2343025  67.4940681 110.5701995  61.6949511  68.0897713
 109.1032907  61.4314222  67.8257275  19.4911051  47.7329493  45.0418901
  18.7940502  47.1756649  45.3879786  19.6912754  48.3376741  45.7563591
   8.7182748  95.4678917  28.2672215   9.0126240  95.9451771  27.4914742
   8.9602774  94.5579910  28.0947542  15.3201854  51.4624643  18.8108385
  14.6666801  50.9131765  18.3778882  15.8633840  50.8462620  19.3022299
  29.4879127  69.0262794  43.5155058  29.1468668  69.5646143  42.8012848
  28.7523699  68.9387608  44.1217661 110.2557956  76.3416672  45.5765915
 110.1028922  77.2702312  45.4015875 110.5224684  75.9794378  44.7316647
  80.7110824   6.5716769  81.7546785  81.3005098   7.2081019  81.3499910
  79.8337360   6.9089915  81.5738100   2.5437382  41.6132212  45.8064938
   3.0366239  41.7334938  44.9948120   2.0599091  42.4317884  45.9164381
  26.0466051  70.0667524  47.0272732  26.6580248  69.5355177  47.5373602
  26.2442303  69.8507214  46.1159515 102.0863679  50.7723951  28.2407498
 101.9619849  49.9900436  28.7780476 101.4568898  50.6748343  27.5262785
  11.4478350  51.6265440  42.7703810  10.9909952  52.3991060  42.4376965
  11.8987596  51.2673855  42.0062447  81.6338751  46.3506269   6.6437501
  82.4841091  46.4950943   6.2284678  81.7923567  45.6501961   7.2766149
  95.1734743  33.5164714  20.0996113  95.0408718  33.1011200  20.9517431
  95.0070295  34.4457531  20.2576208 105.1292548  41.9592428  43.8863611
 104.5547727  42.5388813  44.3865824 106.0047004  42.1327925  44.2323494
  58.0581959   7.5133397  86.3397112  58.7388428   7.6887633  86.9894639
  58.3533569   7.9728581  85.5536097  12.1623302  79.2323685  29.8823118
  12.9645669  78.9285946  30.3070116  12.4536419  79.9212027  29.2849183
  21.7869091  81.1236668  58.5540295  21.6283965  80.5336761  59.2909241
  21.3210058  81.9270325  58.7859106 102.3403528  44.7604036  31.2789297
 103.2840064  44.8093462  31.1261058 101.9520256  44.8440933  30.4080510
  28.5913682  33.3892894  44.4679737  28.3055615  34.2777324  44.2553377
  28.0702043  32.8265309  43.8953304 101.4586291  49.3041468  15.7536089
 102.0516929  48.5628891  15.8762527 101.9847992  50.0715685  15.9781981
  16.2708533  76.8088436  49.9426937  16.8556976  77.4922228  49.6153164
  16.6234481  75.9970093  49.5782280  22.7796960  77.8766155  63.0721474
  23.0757880  77.6190376  63.9451981  21.8903184  77.5285006  63.0084753
  19.9579668  64.8375177  32.6133585  20.7136559  64.5612574  32.0948529
  19.2021239  64.6335125  32.0626163  45.3548479  48.2897711  17.3747456
  45.3755093  47.4580669  16.9013798  45.5907345  48.9450312  16.7180705
  82.3028252  68.4810066  39.6313620  82.1653220  69.2591858  39.0912080
  82.4030110  67.7670431  39.0017176 105.7645604  63.8596010  12.8065622
 106.3766685  64.5861101  12.6893342 104.9019036  64.2468834  12.6580119
  91.4416453  45.2186728  43.8020658  92.1118209  45.8405733  43.5186386
  90.7017919  45.7666492  44.0639257   7.2956389  29.8341918   1.8982488
   7.2664720  30.7697058   2.0987366   8.1605250  29.6990800   1.5110174
  29.2101169  44.4280720  40.2488661  29.5097327  43.6083317  40.6419086
  28.4053087  44.6402597  40.7216167 105.9873882  46.2682056  24.5279884
 105.5785450  46.7924929  25.2166128 105.3092679  46.1822176  23.8579226
  59.6297166  60.0397873  19.2892146  59.4908711  60.7829618  18.7021506
  60.2545974  60.3613997  19.9390805 103.4331051  60.3290081  48.7303400
 103.8298979  60.5309105  49.5776987 103.1680861  59.4120502  48.8023663
  25.0713992  65.9948301  36.7975187  25.9804988  65.7863188  37.0126820
  24.7452450  65.2128029  36.3522172   6.9421202  58.2196283  59.5737171
   7.2496706  59.0045834  59.1204119   7.1545827  58.3757067  60.4938936
   2.4913326  75.9539747  65.0193691   1.6622612  76.0631180  64.5535803
   3.1406838  75.8309793  64.3269491 108.2443875  60.2707720  44.7396469
 108.3015773  61.2013292  44.9565029 107.3194078  60.0540113  44.8565245
 110.9767190  33.8559127  68.2714939 110.4609799  34.5684767  68.6489820
 110.8086383  33.1084943  68.8453817 104.8564193  41.8647718   6.1872554
 104.1801128  41.3423014   6.6183758 105.1583567  42.4709415   6.8637377
 111.6419458  40.9004927  19.4394839 111.5437177  41.0016727  18.4927285
 110.9280342  41.4186430  19.8110807  28.0169845  41.4346504  42.5771809
  28.6872983  41.4056969  43.2598782  27.6550531  42.3189497  42.6342344
  37.0288086  60.2407312  20.2848434  36.7398214  59.3476629  20.4723191
  36.4765739  60.7924318  20.8388233  89.4387576  82.8347015  17.7575243
  90.0492331  83.0546761  18.4612000  89.5896098  81.9041061  17.5917649
   4.5378205  61.3634396  19.7546911   4.2151374  60.9775972  18.9403009
   4.9910176  62.1602488  19.4791198 108.3471242  81.5377617  12.6877522
 109.1734967  81.1419678  12.9646742 108.1547806  81.1260033  11.8453228
  53.4565449  79.6796179  75.0269032  53.6169720  79.8496008  75.9551287
  53.4396505  80.5476665  74.6238756  18.8337827  18.1443787  29.7564697
  18.8871801  17.1889472  29.7334456  19.1663086  18.4234750  28.9033771
 101.2481973  12.7223456  10.9255004 100.9347984  11.8462956  11.1503315
 101.6602334  13.0425799  11.7279387  22.2394514  29.9709988  80.2926254
  22.1098828  30.8953142  80.0802898  21.3998127  29.5586395  80.0896549
  28.2353878  73.8593292  56.2279081  28.7254000  74.4850683  55.6944561
  28.7577987  73.0578423  56.1974001  16.9094443  57.1253204  49.8421526
  17.7298069  56.8891382  50.2751112  17.1560073  57.8074694  49.2175627
 101.2967739  71.6739225  25.4674006 100.8958492  72.4734926  25.8082438
 100.6357917  71.3056850  24.8811102   0.5629897  74.4782782  14.4854474
   1.3888668  74.5354223  14.0049326   0.6096572  73.6387825  14.9429405
  60.6350514  52.3568487  36.3840151  60.5481669  51.4590216  36.7043161
  60.2775857  52.3301554  35.4964709  36.5512123 101.3802202  76.1805129
  37.2482650 101.9169719  76.5576684  36.7263481 100.4971511  76.5057087
 108.8689986  48.6416912  73.4938145 108.7423861  48.0783558  72.7303648
 109.7876748  48.9063168  73.4464931  16.8426013  51.1719704  30.2954292
  16.1291313  50.6957722  29.8706603  16.4693189  51.4740944  31.1234474
   3.7363818  60.6286001  69.8034716   4.1472226  60.4242229  68.9634275
   3.4182045  61.5257072  69.7025156 111.8450591  41.3691521   9.9285144
 111.8228342  42.3063755   9.7352409 110.9260859  41.1257982  10.0403070
  33.4896040  70.4504108  28.6783171  33.3098245  70.7347250  27.7821708
  33.7016511  71.2572813  29.1475987  27.3159981  22.4124551  52.5053072
  26.4011478  22.3559666  52.7811480  27.6197600  23.2508183  52.8533125
  14.2018020  69.4370031  44.1676760  13.6544085  68.7922335  43.7194967
  14.4552851  70.0543451  43.4814835 108.4267536  60.8946419  56.0585213
 108.0315983  60.4059887  55.3365135 108.5181981  60.2513361  56.7613935
  23.3042216  55.7033157  41.7646694  23.6362123  56.0033035  42.6108503
  22.9060602  54.8531151  41.9513607  91.6312787  40.9194088  30.2322555
  92.3028430  40.4237604  30.7008362  92.0185384  41.7853117  30.1038909
  38.8182378  87.2092628  27.2143960  39.6713185  87.0596218  27.6219416
  39.0179229  87.6867867  26.4092064   9.2873377  63.8398075  26.7580485
   9.5653147  64.7549105  26.7974019   9.8989755  63.3787918  27.3321557
  33.2820796  91.7873223  83.8525510  33.9040472  91.0747988  83.9998555
  33.8257699  92.5284393  83.5853869  15.1201713  39.6228743  17.9187846
  15.4755962  40.2576637  18.5408378  15.8774459  39.3400311  17.4061775
  40.5658722  31.1411905  41.3637400  40.3038788  31.7928529  42.0140696
  39.8760772  31.1735487  40.7008934  21.4855671  62.1588898  32.5465894
  21.2895298  61.8425560  33.4284806  20.6676722  62.0426035  32.0631027
  11.8785322  72.7144384  33.1580281  12.2630560  73.4416580  32.6686144
  11.3015807  73.1338406  33.7963557  18.4125590  36.2394929  38.9123368
  18.4653199  36.2726021  39.8675084  19.2788589  36.5174246  38.6148310
  29.7436881  18.7564659  13.1807005  28.9840579  18.6397851  13.7512970
  29.3809938  18.7507868  12.2948956 111.3677836  81.1893463  31.6375327
 110.5791292  81.6330910  31.9495344 111.4948932  81.5230370  30.7494307
  89.9542233  24.9957919   1.8680301  89.6267602  25.8878231   1.7527944
  90.8913419  25.0589561   1.6834968  11.5163016  63.9599514  48.6689377
  12.1440601  63.5032558  49.2289162  11.1835170  64.6729231  49.2140579
   3.4517106  80.2457905  45.0756931   2.6496586  80.7666683  45.1161289
   4.1447738  80.8526516  45.3357267  53.6327060  96.5130718  82.1550554
  54.0334971  95.6590183  82.3169053  52.8516622  96.3169248  81.6376305
 104.0693828  27.6730990  41.2517691 104.2328128  28.2283306  40.4893732
 103.1168559  27.6702166  41.3461924  21.5658712  77.2742701  67.7780771
  22.3649049  77.4841928  67.2946405  21.8120861  77.3649216  68.6986208
  96.1063048  59.9344301  62.0823002  95.6210777  59.1117477  62.1454048
  96.5239927  59.9007320  61.2216997 102.1888480  77.4843884  45.2859688
 101.3793156  77.9426384  45.5115747 102.8751478  77.9725313  45.7408762
  10.0337076  96.8102837  62.5225401  10.6050551  96.1089420  62.8354549
   9.9300838  97.3895836  63.2774591 107.8519288  72.8009605  45.0790548
 108.0988470  72.4529409  44.2222309 107.6905909  73.7313414  44.9222374
  90.6539484  17.3440005  79.3924022  90.1856872  16.9467331  78.6581385
  89.9932119  17.4296643  80.0796580  20.0020671  69.7797489  14.8939264
  20.2101183  69.4366360  15.7629621  20.6952906  69.4380045  14.3292284
  79.9459073  85.9782982  36.0696387  80.0957867  86.8488121  35.7008910
  79.2415258  85.6102276  35.5361557  35.5298901  67.6487017  44.8750210
  35.5888033  68.2126904  44.1038656  35.2304149  66.8062258  44.5332909
  21.6868758  97.9550552  63.8379288  21.2861037  98.8153076  63.9627886
  21.1164403  97.5141907  63.2082701  15.7292438  38.3652973  29.7928834
  15.4665220  38.0118966  28.9429903  16.2083113  39.1665411  29.5813727
  47.0764875  40.4408598  12.4068964  47.2289419  39.5707273  12.0383036
  46.3574696  40.3159809  13.0262876  31.6818142  64.5654488  27.1232390
  32.3259807  65.1370955  27.5409675  30.9022832  64.6406364  27.6736116
  22.8441644  63.6129427   7.4166971  22.6978827  62.6671028   7.4021256
  22.0078516  63.9889050   7.1419871  44.0657444   7.8055114  31.3486934
  44.3800194   7.6735324  30.4542398  44.2879976   6.9928378  31.8030071
  32.1993446  80.5241394  62.0459652  32.3344922  80.0171566  62.8465462
  31.4090395  81.0362816  62.2173357  26.3213420  87.2381973  26.9848752
  26.5151930  88.0733681  27.4104834  25.3696179  87.2366810  26.8826485
 103.9467809  76.8947649  42.9544401 103.9891824  75.9458113  43.0724430
 103.5411730  77.2182608  43.7588406  41.8409109  88.2263088  42.4818182
  41.0668802  88.3021736  41.9238281  41.5160608  87.8275585  43.2890987
  16.0939467  60.1679707  41.6549587  17.0243680  60.3343296  41.5037203
  16.0635972  59.2774105  42.0045519 101.2821457  68.4730387  13.3456898
 101.5571842  68.2749653  12.4505067 101.6975066  67.7955770  13.8793111
  25.3490710  46.3637686  19.5380116  25.6906271  46.3306284  20.4315853
  24.9982381  45.4867697  19.3830204  52.3735380  56.5012121   8.5207248
  53.0220222  55.8753252   8.8431740  51.7252779  55.9622765   8.0673587
 110.5115241  58.8572979  43.1494284 109.6700197  59.0157938  43.5771894
 110.6326792  59.6113586  42.5724125 108.6883137  56.0916853  34.5483017
 109.2936519  56.8194914  34.6900582 107.8354150  56.4339209  34.8160172
   4.4076270  37.1523690  22.0530629   5.2498859  36.9892955  21.6285181
   4.5934439  37.0805645  22.9893041  13.7054288  31.5842986  77.4948263
  14.4129610  31.1831927  77.9995441  14.0975821  31.7755437  76.6428423
  13.4213269  66.4568901  70.9191132  14.2482114  66.8880272  70.7032061
  12.8537333  66.6386271  70.1700878 101.0796568  59.4104338  11.9914412
 100.9108111  58.9874220  11.1495471 100.4676530  60.1459837  12.0169175
   0.9167980  15.4570128  87.3325944   0.0137543  15.1749779  87.1869948
   1.1613130  15.0563313  88.1668004 103.7933716  52.9152727  11.6959155
 104.7005269  52.6349640  11.8172693 103.4823969  53.1095505  12.5801003
 110.1311227  32.0301939  84.9005043 109.1975685  31.8390013  84.9908036
 110.4204317  32.2364451  85.7893193   9.9009323  52.2138596  19.6281862
  10.6283557  51.7233324  20.0109053   9.1845530  52.1071577  20.2540040
  13.9691229 102.0407255  88.4645855  13.7769385 102.9426296  88.7212372
  13.6908980 101.9874294  87.5502649   8.1206524  62.4434900  60.0361300
   7.8991222  63.2343245  60.5277967   7.5535840  62.4737978  59.2655849
  18.9294004  47.5187111  14.2026889  19.4595039  48.0665684  13.6238289
  19.5503271  46.8922281  14.5744419   9.6766627  82.8405762  43.3029604
   9.6960747  81.8929195  43.1695366  10.5918407  83.1114864  43.2302427
  33.2968688  44.5657921  16.4028990  32.7601266  44.5633125  17.1954465
  33.9275336  43.8586140  16.5385270  24.3652701  58.8574171  14.9832964
  23.8386321  58.6316013  15.7500386  24.3779898  58.0576658  14.4574928
 105.2039424  65.7091284  38.4315443 105.2179787  66.5368700  37.9510450
 106.0904524  65.3612041  38.3352113  63.1698831   8.0060126  86.8806967
  63.2886823   7.5935389  87.7362579  62.2452541   8.2527234  86.8600640
  26.1116362  81.8920040  49.7416353  26.8123651  81.3416290  49.3919325
  26.4298320  82.1674156  50.6013632   6.3531166  32.3577213  28.7545228
   6.2332857  33.1613636  29.2605186   6.6192561  32.6590681  27.8858519
   7.7567530 100.5340958  42.3343420   7.8279537 101.3714409  42.7926159
   7.9579598  99.8779869  43.0016279  20.7207298  82.8265667  20.7196927
  21.3357949  82.2030067  20.3335571  21.2654829  83.5679817  20.9838486
 107.2056898  80.1814461  34.5296526 106.8146476  79.9844313  33.6784768
 106.7276403  79.6275520  35.1468253   9.1180903  77.9582071  36.1070514
   9.3280137  78.7798500  36.5509701   8.2433468  78.0984974  35.7445955
  97.2316429  85.9016132  31.5846229  98.0319783  85.9170723  32.1094608
  96.7434272  85.1472569  31.9145107   3.0738309  68.0909824  51.3133955
   2.9638833  68.7317181  50.6108284   3.3697787  68.6065626  52.0636082
 100.7143578  78.6742258   9.9405003 100.3194746  78.8981724  10.7832026
 100.9069690  79.5192194   9.5341492  87.1968481  66.8598700  46.0003138
  86.2626097  66.8806934  46.2076664  87.2424027  67.1026468  45.0755358
   4.3430689  62.2210646   3.4360641   3.4561625  62.2427177   3.7954521
   4.7181803  63.0693007   3.6727458 109.1997978  62.0608997  31.5709639
 108.7424412  62.8056192  31.1805201 108.7145442  61.2946415  31.2650156
  42.8037500  95.1882839  60.9620333  43.3340168  95.3807163  61.7353439
  42.0090342  95.7083607  61.0810852  56.1483574  46.5695953  38.3555746
  55.5661535  47.0376015  38.9541078  56.6327810  47.2604322  37.9035687
  65.7360312 100.2892017  11.7905653  65.1965567 100.6067371  11.0664308
  65.1338145  99.7789669  12.3320735  25.2210212  80.4073906   0.1399547
  26.0375071  80.8805943   0.3001228  24.6500254  81.0504055  -0.2804349
 105.6340656  65.9462070  31.4559650 105.4119351  66.5543652  30.7509565
 104.8073730  65.8005190  31.9159508  27.2397661  60.1131773  19.1128588
  27.5755262  60.9519815  18.7967825  27.5783920  59.4697332  18.4903288
   0.4135728  90.2669907  54.5455694   0.8446199  89.4254208  54.6945477
  -0.4517308  90.1664257  54.9422693  20.0461507  53.2880831  42.1531057
  21.0016584  53.2505035  42.1958351  19.8530948  53.4255838  41.2257147
  53.0397749   9.2387158  35.6875134  52.0933628   9.2952532  35.5558372
  53.4151363   9.6306580  34.8990226  40.3038041   2.0087165  20.4133987
  40.5031265   1.4934939  21.1950946  39.5970770   1.5274447  19.9831104
   3.7164381  71.9011164  16.7128873   2.8123999  72.1696377  16.8767214
   3.8215533  71.0939407  17.2165251  78.9255711  79.1894531  59.2098713
  77.9773828  79.1135454  59.1030598  79.0842840  78.9444256  60.1214695
  16.3027358  92.7498722  60.1183128  16.4006019  92.7503014  59.1661310
  17.2000992  92.7585602  60.4513264  24.3113923  61.8120098  23.9947104
  25.0298905  62.2906160  23.5812783  23.8896632  61.3437366  23.2742262
   8.2938778  39.9072790  17.4384773   9.1882306  39.6596265  17.6730704
   7.9962498  40.4498959  18.1686926 104.6765295  34.2181945  24.4248152
 104.6669438  33.2784820  24.2429352 104.4034937  34.6241832  23.6021042
  91.1836144  21.2068058  85.8764732  91.2731119  20.9956767  84.9471468
  90.8096501  20.4167725  86.2666380  17.3274469  51.2804651  15.2297449
  16.5956211  50.8656216  14.7730505  17.7416754  51.8325186  14.5665061
  28.5450268  79.3634319  42.6737118  27.8964782  79.5028877  41.9836617
  28.0257130  79.1992092  43.4608412   5.5049652  99.6673393  44.0629530
   4.8635328  99.1006470  44.4915009   5.4604435  99.4231892  43.1384850
  11.4073777  93.3328342  29.8723650  12.0840168  93.0277443  29.2679572
  11.4767039  92.7460957  30.6254673  18.1007183  81.2627792  15.5204940
  18.8663530  81.7166996  15.8726096  17.3534167  81.7106152  15.9169960
  12.6130629  83.7675953  43.5223341  12.9624772  84.3054485  42.8118086
  12.7064168  84.3127346  44.3035746  17.6781416  26.3157582  17.5204587
  17.2218227  25.7811046  16.8707287  18.5837889  26.0072517  17.4911249
 103.4820154  61.8027925  39.3757677 103.8130811  61.3696814  38.5889745
 102.5354275  61.6639662  39.3452716   3.7994504  41.3304281  24.5047140
   3.0879217  41.1218834  25.1100802   3.9176193  40.5321646  23.9898944
  15.6559205  75.9659815  62.8137255  15.4634142  76.8691540  63.0656195
  15.7476115  75.9972763  61.8614435  78.5650060  26.5333509  62.3635483
  77.6390192  26.4841223  62.1261549  78.9665839  25.7876873  61.9175053
  99.1798211   7.9871577  18.3518052  99.7952748   7.2622508  18.2425010
  99.6577311   8.7560386  18.0409122  42.5576830  46.6672945  16.8369997
  42.5282860  47.2483826  16.0769320  42.0820904  47.1411371  17.5192881
  30.5184293  65.5112743   7.3321325  31.1115694  65.2651167   8.0419385
  31.0914850  65.6481504   6.5777421  17.7867317  46.6259766   1.7235300
  18.4563339  46.0481215   1.3575436  17.1640718  46.0339594   2.1454805
  36.4967775  77.9416895  23.6819196  37.0481110  78.2514572  24.4004655
  36.6958094  78.5323811  22.9554915  72.4586436  60.6878376  37.1122479
  72.1332762  61.2325382  37.8289533  73.2659289  61.1186981  36.8313956
   2.4447691  63.7379122  60.9523249   2.8618729  64.5379114  60.6325388
   3.0777609  63.0454350  60.7625198 101.1809179  79.5479202   1.2651056
 101.6512009  79.3429852   0.4569805 101.6665122  80.2796936   1.6458148
 112.1061321  75.8168411  36.7417836 111.8269662  75.0622416  36.2232542
 111.4499041  76.4892197  36.5587282   5.8424276  81.1151695  36.5407610
   5.2191830  80.3887177  36.5332437   6.4123595  80.9340668  37.2881651
  83.2393504   5.9232635  22.4597478  84.0480853   5.7875270  21.9660330
  82.6540280   6.3643283  21.8440437   3.4807387  52.9236794  43.1732464
   3.1454375  53.7966919  42.9691553   3.0208051  52.3427534  42.5672626
  72.6880769  36.8811505   0.6143093  72.8052069  35.9365838   0.7158661
  73.3911227  37.2672169   1.1367130  96.8688104  73.2395124  26.3016748
  97.8179964  73.3613539  26.3224530  96.7481968  72.2907639  26.3412333
  59.1749716  82.5263500  46.1477995  58.8516474  83.4188557  46.0248041
  58.3884478  82.0079803  46.3178396  48.3030033  75.0633764  17.0938134
  48.9160156  74.3677425  16.8560255  48.7628078  75.8734655  16.8734324
  98.3263298  30.7631136  79.8909199  99.1011187  31.2915827  79.6994770
  98.4315892  30.5068900  80.8071637  11.0849655  71.8703508  42.6093435
  11.0479426  72.8266859  42.6262569  11.4804089  71.6609001  41.7631865
  41.6933250  32.3152542  26.6281700  41.2485695  31.5188527  26.3380575
  40.9902048  32.9550576  26.7399931  23.3695436  77.7484465  51.9660711
  22.7231503  77.6778555  52.6685143  22.9568672  78.3184719  51.3172293
  54.9881506 104.6695709  14.0443754  54.2854118 104.6985340  14.6936440
  55.3641462 103.7942219  14.1372800  23.4757042  83.1972980  49.8850584
  24.2592502  82.6726055  49.7207689  23.6511087  83.6354256  50.7178259
  29.5249605  55.2916098  36.5581441  29.9488068  54.9552155  37.3477173
  29.5795178  56.2433863  36.6439986  30.3327966  64.5284462  23.1387973
  30.5053210  63.5872555  23.1638408  30.6717491  64.8115635  22.2895694
   6.1356091  72.8648043  30.1588321   6.9613266  73.1360579  30.5598831
   5.4646546  73.3458424  30.6432438   2.3955315  82.7458668  27.5148010
   3.2064584  83.2337284  27.6583958   2.0392340  82.6097775  28.3927321
  33.6433125  58.7958431  21.0213733  33.7499380  59.3723488  20.2647305
  34.4456768  58.2742167  21.0399961 111.9672643  90.1157856  20.5106282
 111.1834458  90.5315399  20.1514578 111.6581899  89.6560001  21.2912107
   8.7016815  73.6216021  47.7303648   9.3113053  74.0046167  48.3611488
   9.1330647  73.7318993  46.8830299  28.4978318  51.6768885  35.3823066
  27.8167772  52.1845436  35.8235359  29.2131162  52.2992182  35.2507615
 107.0707163  84.7957993  44.5444918 106.1171827  84.8476028  44.6102285
 107.2437924  83.8925076  44.2792845  17.5910306  85.6176281  40.2628279
  17.8322995  84.9392509  39.6320939  18.4122121  85.8395576  40.7017326
  27.0908427  79.4277668  32.1385956  26.8876934  80.1667404  31.5651178
  27.4564362  79.8296213  32.9266858  65.8056750   9.3885876  75.3674650
  65.0812998   9.1172196  74.8036647  65.7426151   8.8150193  76.1311901
  60.7253933  56.6033077  29.2577004  61.5340710  56.1003590  29.1611886
  60.0299835  55.9829950  29.0389562   5.6238776  77.4066925  53.9209223
   6.3709199  77.9213476  53.6154890   5.3344041  76.9224787  53.1476355
  38.6747527  97.9124451  16.6580379  39.0132451  97.5426388  15.8426285
  39.4567537  98.1236267  17.1680474  58.0955887  61.6184378   5.6247890
  58.2265759  62.4709606   5.2097225  58.6845207  61.6263962   6.3793284
 111.3940621 101.1032391  25.2652836 111.9037576 100.3152657  25.0767612
 110.8820006 101.2530994  24.4705725  24.9869490  70.0432110  55.3085566
  25.5139852  70.6773138  54.8223686  24.5000982  69.5693207  54.6342897
  92.2116134  36.6701174  28.8337231  92.3003849  36.2615895  29.6948004
  91.6520926  36.0701799  28.3405256  82.8494453  75.9519720  30.5641532
  82.8882122  75.0902462  30.9790683  83.4359074  76.4970112  31.0887694
  47.0442867  95.9600830  31.7792511  47.2809744  95.1694584  31.2943625
  47.8037119  96.5351105  31.6851592  43.7938976  76.6619873   8.3250421
  44.5452118  76.2313032   7.9172766  44.1330338  77.0019388   9.1530818
 108.6204118  81.5915203  36.4141941 108.1768143  80.9907627  35.8154082
 109.4034363  81.1168861  36.6931748  34.7812939  54.3962526  36.3903213
  34.3962669  54.8985529  37.1084285  34.4086576  53.5196018  36.4844656
  11.2437439  93.6547756  24.4027591  10.6412363  94.2748260  23.9919710
  11.2709713  93.9204502  25.3219461 108.1274629  37.5086117  43.2123184
 108.9691505  37.2562623  43.5919428 108.3480495  37.8479481  42.3448944
  33.2163048  73.7453127  22.3779631  33.5626030  74.6313238  22.4842000
  33.9935827  73.1918430  22.3021722  96.4771327  51.3604641   2.7380472
  97.2025403  50.8296347   2.4090543  95.7015511  50.9976721   2.3101604
   1.4800908  92.9395580  44.9016762   2.3547514  93.0800152  45.2642679
   1.5530275  92.1212769  44.4104242  17.4261951  65.5884457  55.6169510
  17.8281641  66.3611412  55.2199697  17.7760792  65.5673409  56.5076637
  29.4509959  64.1373062  56.2813663  28.8193345  63.4226084  56.2010860
  29.9548674  64.1040993  55.4681969  77.2373959  68.5522795   8.3197021
  76.6113016  68.0334759   7.8146505  76.8298241  69.4153214   8.3923447
  32.1918344  68.0451679  24.8970103  31.8406892  68.0455637  25.7874751
  31.4373136  68.2421684  24.3419242  27.7651906  62.9135704  21.3328433
  27.9964876  63.2192278  20.4557419  26.8449712  62.6594973  21.2630177
  29.7651601  61.2819004  36.1743951  28.9695024  61.2782955  35.6422782
  29.5256376  60.8010721  36.9666481   6.7639261  41.6148138  14.1652679
   7.0400095  41.1720610  13.3627856   5.8783656  41.2889910  14.3260598
 110.7400060  67.5154591  32.1713209 111.0435797  67.6649427  33.0667162
 109.7853121  67.5082302  32.2401619  24.9087191  50.9753752  45.0118017
  24.9725032  51.3365698  44.1276646  24.5359802  51.6854954  45.5343199
  96.0083970  61.7939949  10.9985769  96.6193900  61.8835688  11.7299426
  95.2085754  62.2244835  11.3005674 109.1774544  49.0261555  62.3845005
 109.6047975  49.4039202  63.1532049 109.3700875  49.6412849  61.6768694
  27.8315210  70.0431919  28.8014579  26.8806887  70.0872469  28.9024949
  28.1384659  69.6222591  29.6044731  15.2356851  44.1961622  44.5850515
  15.1034188  44.1194201  45.5299568  14.8048818  45.0176525  44.3488359
  99.5961675  44.5889235  31.8132782  99.7676131  45.0046873  30.9683061
 100.4141304  44.1417456  32.0305371 106.1223841   0.6827086  25.7464170
 106.5551329   1.1020869  26.4901137 105.2727557   0.4052276  26.0890031
  10.7882154 105.2391434  24.4768190  10.2021921 105.5834389  25.1508141
  10.5426168 104.3177223  24.3938041  12.7799439  76.3953733   5.2267271
  13.4380114  76.4856482   5.9159505  12.0023072  76.8274927   5.5799782
  20.9850216  60.9437656  70.3271484  20.5719399  61.7232180  70.6987000
  21.8168640  61.2589645  69.9737072  12.4700594  55.0314522  16.8471181
  11.9486248  55.2132797  17.6289594  12.6236033  55.8916092  16.4562452
  23.4876323  71.1044312  47.5053596  23.0917645  70.7732153  48.3114719
  24.4267821  70.9622431  47.6237345   2.2360772  77.5263453  38.2273173
   2.3372217  76.5822983  38.1057644   1.3549010  77.7162504  37.9052949
   6.2503862  30.9677149  76.1545813   6.8385886  30.2763201  76.4582717
   5.3805827  30.6820513  76.4339876  33.6860490  66.3111782  48.4066343
  33.9170957  65.7537317  49.1496706  33.7372780  65.7310915  47.6469612
  13.4568381  73.1150627  28.7508297  12.7519619  73.7213326  28.5231996
  13.0069029  72.3099232  29.0068460  10.6554377  88.7118912  18.6722004
   9.8508066  88.8134575  19.1806149  11.2980795  88.3875751  19.3031192
 103.5679153 102.5587463  20.7639074 104.3777159 103.0637836  20.8373332
 103.3930990 102.5218201  19.8235309  72.3621604  87.4431419   3.9587730
  72.0546243  87.3405457   3.0581471  71.7064902  88.0039120   4.3733391
  41.4679813  44.0713930  19.0761900  42.1934986  43.8864470  19.6725535
  41.8796873  44.1517067  18.2157958   9.8464692  54.0908527  42.9638052
   9.9816173  54.6697807  42.2135973   8.9262563  53.8339090  42.9053402
 108.2774758  35.7515001  80.1355362 108.5518497  36.6196299  79.8400688
 108.0309847  35.8771944  81.0518742  16.4746547  73.2350302  53.4051132
  16.4419854  72.2789383  53.4375715  16.5354812  73.4410763  52.4723291
  25.0370049  50.9944725  35.6048512  24.2180419  51.3918114  35.3087831
  24.7897673  50.4808855  36.3738346  14.9567485  59.0299845  15.5341041
  14.7206235  59.6682835  16.2071943  15.4786730  59.5276213  14.9046731
  91.3228893  71.5664005  31.4158654  90.3717804  71.6581202  31.3592124
  91.4578915  70.8497190  32.0358467  43.0315924  96.6354084  14.9054432
  42.1000433  96.8383694  14.9905932  43.4177160  96.9323730  15.7294297
 100.8476397  70.5780363   4.8068795 101.7063305  70.2246809   4.5744529
 101.0402545  71.4080572   5.2429950  62.2464323  79.4523048  10.6327629
  61.8285656  79.0975761  11.4174831  61.5265417  79.5798874  10.0149333
   1.6229673  45.3409672  18.6022389   1.7507739  44.5333481  19.0998793
   0.7054029  45.3125811  18.3311272  11.4107049  31.2162566   6.8451500
  10.9260893  32.0181441   6.6493028  12.1873569  31.2635612   6.2876505
  58.3425446  95.3568370  85.0958443  58.1588621  94.6280773  85.6886381
  58.8053031  95.9957511  85.6379461 104.7842911  60.5959558  36.6866732
 105.6948236  60.6645775  36.9738221 104.8401681  60.2655697  35.7900381
  39.4176197  59.7590590   6.6294760  40.0868702  60.1162720   7.2131956
  38.7015939  60.3930330   6.6696942  19.5147312  49.5054150  24.6345782
  19.5705867  49.1438675  23.7500477  18.9059031  50.2397537  24.5551634
  48.7750244  79.9101305  35.5213809  49.5244217  80.4311657  35.8097601
  48.4035110  79.5570326  36.3297892  15.2325857  16.1392605  30.0570774
  14.7292268  15.5960619  30.6635404  15.7660246  16.6980302  30.6222773
  30.0709677 103.0219078  37.0369196  30.7027411 102.3051929  37.0954108
  29.2724776 102.6108837  36.7056918  74.3027565  24.8330332  75.3584659
  73.8200019  25.6358696  75.5550313  74.3156698  24.3525626  76.1862421
   7.6773781  26.2349105  33.6150503   7.5416142  27.1746945  33.7358952
   7.2489214  25.8319569  34.3702221   0.7738744  80.4476643  34.9750805
   1.0139357  80.3817368  34.0508223   1.4643940  80.9843254  35.3641963
   2.4673748  54.9706030  35.5705428   3.2535005  55.2051973  35.0773883
   2.4172227  55.6253672  36.2669611  36.0545850  74.6629286  31.1274052
  36.0247493  75.2223444  31.9035459  35.7897830  75.2365923  30.4083633
 111.0067773  91.5310383  41.3931179 111.4708693  91.8810463  40.6326294
 111.0364800  90.5815315  41.2757015  21.0299659 101.1747646  67.6370144
  20.9945464 102.0466709  68.0304241  21.9481754 100.9150887  67.7124500
  67.3315766  25.1023604  91.0219267  67.7876642  25.2985693  90.2035637
  67.7027943  25.7158209  91.6560395  98.7048873  42.5930738  23.1012130
  97.9256806  42.5048971  23.6501169  99.4379577  42.5177002  23.7120819
  36.9748235  35.4958701  20.1421022  36.0901475  35.5933046  20.4943609
  36.8746424  34.8910928  19.4069564  22.5029659  67.8261089  68.1052971
  22.8980088  66.9623184  67.9867935  22.7777624  68.0970240  68.9812660
  24.3431544  84.7990799  13.6964297  23.7523770  85.0086975  14.4198060
  25.0800037  84.3505287  14.1112614   7.1480101  56.8089199  31.6434288
   7.3511022  57.6182175  31.1743593   7.4091244  56.9841146  32.5475073
   3.8034767  98.0868149  17.4730408   4.3573228  98.7857914  17.1253145
   3.2087958  98.5307693  18.0775940  29.5637298  59.4074774  21.0274243
  28.7159657  59.3713951  20.5844474  29.7438741  58.5003185  21.2740993
  82.6256713  14.8257090  87.5617966  83.0896016  15.0018908  86.7432854
  82.4908444  15.6895710  87.9514128  56.0535240  97.4664021  56.1085606
  56.3233042  96.8204021  55.4557705  55.1338959  97.2637939  56.2802124
  92.4546668  47.4334383   3.1229553  92.7230737  48.2807016   2.7675176
  91.7256281  47.6392698   3.7080762  26.6409349  67.5662279  32.1731186
  27.2886729  67.7056885  31.4823103  27.1531868  67.5473738  32.9814982
 107.9439777  62.5644779  38.6915636 108.7767586  62.8658009  39.0547609
 107.4943203  63.3666277  38.4258699  14.7041237  86.5951061  27.1522117
  15.3230441  86.5472698  26.4235950  15.0577283  85.9928226  27.8067708
  88.5057279  65.5971813  22.2604346  88.7934992  66.3371706  22.7950716
  89.0707228  64.8730040  22.5298381  46.2113905  75.9466648  47.5216103
  46.3794184  76.8471575  47.2439289  46.1366701  75.4539967  46.7043400
  85.6023105  29.0046336  87.8841558  85.6341799  28.5300566  88.7148160
  86.0307964  29.8403384  88.0691725  49.7327518  90.0137234  23.9770365
  49.9779940  90.9238434  24.1436601  50.5195045  89.6185970  23.6013722
  47.6424742  80.7508183  19.9105310  46.6995955  80.5930042  19.8625469
  47.8420067  81.2518692  19.1197276  75.7164134   5.5269696  84.2870271
  76.4213472   5.3630425  84.9134684  76.0610833   6.2101580  83.7119710
  44.4888926  41.7873621  26.8185210  44.4095659  41.2651539  27.6167941
  43.9543581  41.3229799  26.1744285 108.5578182  68.0920887  38.2396746
 108.2729250  67.2810173  37.8186870 108.2468817  68.7858486  37.6580811
   2.6453811  88.5668659  20.9240460   1.7955032  88.8163471  20.5611396
   2.4535981  88.3041000  21.8242693  53.2053900  97.9153538  20.2779484
  52.9046345  97.0492268  20.0029898  54.0303421  98.0423450  19.8093784
  36.9445444  14.8201293  14.3990982  37.4214379  15.4224891  13.8281560
  37.1219339  15.1381511  15.2843273  39.0383752   9.2428988  44.0451288
  39.0040379   8.4667892  44.6043348  38.7717772   8.9278239  43.1814861
 109.6308403  48.1162643  10.7882845 109.5924546  48.0008650   9.8388422
 109.6244262  49.0650606  10.9146917 102.1939024  80.5080318  42.6214504
 102.1747819  79.6069098  42.2991943 103.1002572  80.6445599  42.8973389
  49.4811916  85.0767899   4.7322181  49.5872688  85.0977898   5.6832904
  49.7603226  85.9447956   4.4408673   1.9337551  67.8488445  45.8243847
   1.1444318  67.6089716  46.3098383   1.7993398  67.4800825  44.9513578
  22.7069926  59.3670750  33.8797688  22.7985740  58.4211540  33.9941072
  22.6336312  59.4879055  32.9330635  27.3674130  59.4645452  14.8623264
  27.8060842  60.0146580  14.2133451  26.4373207  59.6643209  14.7562456
  17.7329254  78.8361025  46.9595528  18.4970844  79.3331957  46.6676760
  16.9851875  79.3832111  46.7191505   8.3468413  95.9232044  18.3943713
   8.5400635  95.0142193  18.1649268   7.4148232  96.0258770  18.2019353
  92.5012732  12.5373572  41.2940645  93.3727122  12.7723140  41.6128397
  92.6601268  12.1233005  40.4457998  37.0068765  94.3572521  80.7768917
  37.6977348  93.9268398  81.2805653  37.3058510  95.2618790  80.6846809
  34.3459272  91.2398720  51.9569635  34.2039752  91.9458103  51.3263083
  35.1668715  91.4692497  52.3924732  26.9573569  94.0106297  41.0298920
  27.8413439  93.6446190  41.0009527  26.9202161  94.4814777  41.8624496
 105.4298553  67.6806021  29.5591331 106.3575521  67.8462934  29.3913364
 104.9763408  68.0898190  28.8221812  46.3397074  83.0227089  40.2028608
  45.9923697  82.1508312  40.3910780  45.7098818  83.6227798  40.6022024
  51.8874979  96.6075420   9.2440671  52.3349762  97.4275494   9.4528157
  51.9626236  96.5290546   8.2930529  97.4549342   9.9510592  34.5998645
  97.2392989   9.0551776  34.3407726  97.1813155  10.0080604  35.5153513
  52.1619511  98.6365986   7.1567947  52.5462961  99.3508053   7.6651442
  51.6945839  99.0737534   6.4449739  67.9175043  68.2931757  26.5667176
  67.3908329  67.5174904  26.3739610  68.6135912  68.2793427  25.9098291
   1.3093330  84.4245243   6.9618708   1.4456551  84.7744560   6.0814178
   1.9072166  83.6791706   7.0185977  27.2276020  92.1020794  16.0283101
  27.5551653  92.5167561  16.8264222  27.9226279  91.4965534  15.7704139
  19.7617984  86.4717484  46.5531158  19.8250866  85.5362320  46.7455530
  19.4330978  86.8612385  47.3633528   9.8865521 104.9054909   2.6898304
  10.1399708 105.7264709   2.2679374  10.0184894 105.0656986   3.6242586
  76.4359006  44.7891451  77.0051277  76.6904845  45.5992056  77.4469626
  76.0424138  45.0787474  76.1820066  24.4311237  73.6365747  66.2026739
  23.8173413  73.9668608  65.5466175  24.4899726  74.3387222  66.8505621
  32.2771764  89.5462704  51.8620300  32.9302716  90.2392483  51.7646980
  31.5026355  89.8820305  51.4108276  40.8758140   0.4197139  22.4800038
  40.9342480  -0.3614121  23.0301476  40.3790361   1.0464782  23.0059481
  64.9350167  16.3019008  35.6221461  64.2911626  15.9734267  34.9946237
  65.2448822  15.5198688  36.0789132   9.2934209  87.4518871  34.5455122
   8.3901244  87.4463940  34.8621464   9.6363473  86.5908623  34.7848129
  42.4204493  67.9678535  19.9184263  42.5168371  67.0192909  19.8337865
  43.2476950  68.3226633  19.5928442   0.6267359  98.3959007  25.5370998
   1.4467660  98.2385826  26.0051107  -0.0145523  97.8446865  25.9855938
  30.8706975  65.5828667  20.5362010  29.9455833  65.7749844  20.3829503
  31.3100386  65.8652210  19.7340250  46.1984730 101.7953873  21.2344575
  46.7075729 102.4604988  21.6977954  46.7795944 101.0360050  21.1912131
  43.2164097  87.9547501  27.3454499  43.3008146  87.7392578  28.2742500
  43.8039589  88.6995888  27.2180295  67.2532272  85.4327679   5.6136924
  66.6435194  86.0070610   6.0770267  66.9333410  85.4217529   4.7115934
  84.9760867  14.4350547  15.1917458  85.3522731  15.2304000  14.8147166
  84.0789605  14.6790809  15.4194522  51.8549013  99.9588013  56.9210386
  51.1598206  99.7679424  56.2912273  52.3022032 100.7239532  56.5595198
  40.4928684  85.4822063  33.4614491  40.1763535  85.3021622  34.3466783
  41.4270115  85.6591034  33.5724497  26.2901425  81.1711407  23.5844278
  26.7977118  80.6143951  22.9939747  26.1807179  80.6438923  24.3757987
  55.6629467  63.9080048  17.2737598  54.8821783  63.6824417  17.7794790
  56.3872623  63.5226154  17.7667856  54.6470571   7.1465796  35.5915141
  54.0731765   7.9101962  35.6530070  54.7579098   7.0053691  34.6512985
  23.2600832  86.4778519  48.1643867  23.5827780  85.9795856  48.9152718
  23.6729932  86.0635567  47.4066973  11.1652672  76.5200615  34.2617345
  10.5097187  77.0001984  34.7676539  11.1315596  76.9147396  33.3903408
  64.3592962  55.5682112  83.8419437  63.4728511  55.8933188  83.9992940
  64.9236294  56.3248564  84.0008700  45.6315851  78.2594395  45.1689243
  44.8014545  78.0875587  45.6134224  45.3998899  78.8422441  44.4458103
  49.2695284  99.1924095  77.6055861  49.9565220  98.5497856  77.7825069
  48.7398291  99.2023754  78.4028053  34.3471507   9.0774268  61.9205570
  34.9768893   9.7630614  62.1432018  33.5126073   9.5379848  61.8330336
  74.9120105  46.0348631  89.8293401  75.3808853  46.8620612  89.7191671
  74.4781365  46.1167551  90.6786215  69.0994311   5.6996554  47.8483629
  68.6747814   6.4714068  48.2229519  70.0345016   5.9018630  47.8797722
  59.2656517  99.0841484  14.5760989  59.3637943  98.1486034  14.3990052
  60.0135708  99.3024063  15.1321626 111.0450791  92.8994942  49.5168543
 111.9374748  92.7227974  49.8145771 111.1107183  93.7278271  49.0416813
  65.0420904  71.0289812  28.0754352  65.9064436  71.0792971  27.6672864
  64.5359945  70.4602242  27.4952483  54.5736074  62.6629400  10.5335736
  53.9249516  62.9808998   9.9055749  54.5056581  61.7093372  10.4860103
   5.4584432  89.6967125  52.1865749   4.5680055  89.7632885  52.5314236
   5.5812508  88.7622833  52.0192575  40.6018782  84.9529362  70.0543451
  40.6745863  84.4044018  69.2732859  39.6600986  85.0251293  70.2095032
  42.8722906  92.9819679  47.8872919  42.0995808  92.8246021  48.4298706
  42.7172565  93.8402462  47.4928856  81.4900828   5.3079146  39.7581220
  80.9296036   4.9973887  40.4692268  82.2264815   4.6964759  39.7491360
  82.4104262   6.5647906  35.8588290  81.7480040   5.9447974  36.1638498
  82.7131272   7.0025653  36.6544175  56.2813234  86.5094185  40.1875162
  56.7366457  85.9207821  40.7895279  56.9816828  86.9335556  39.6916986
  55.3808153  18.8298816  45.5757284  54.9005199  18.4871120  44.8220348
  56.0712147  19.3716640  45.1935577  61.9700289   0.7867068  50.7767487
  61.7272998   0.9938258  51.6792011  61.3580251   0.0984305  50.5160618
  83.1057788  24.3196982  48.9392996  83.9544678  24.7355002  48.7874222
  82.4943019  25.0502700  49.0320015  39.0554476  99.2965984  43.4408808
  39.2774844 100.0191498  42.8536415  39.6478987  99.4022179  44.1852474
  10.7054746  30.1510239  40.9692240  10.2916539  30.8652616  41.4538383
  11.2878680  30.5887270  40.3483629   8.6127418  84.8480129  40.7611847
   8.4929162  85.4641819  41.4838266   8.1695926  84.0504360  41.0505199
  53.7173319  88.9352322  37.2343445  53.3017206  88.7486744  38.0761862
  53.4652233  88.2006931  36.6747689   2.7180599  23.0227257  88.3754215
   3.3257722  22.2936989  88.2511905   3.0975436  23.5314299  89.0919703
  36.8206072 100.6507874  79.4904709  36.9326282 100.0612068  78.7447643
  37.7127671 100.8507729  79.7738266  36.2600064 103.5888195  60.0998974
  37.1693015 103.6554432  60.3913975  35.9023261 104.4673347  60.2283621
 107.1309090   3.6724776  -0.0562569 107.2011090   4.5616168  -0.4037206
 107.7454758   3.6527843   0.6773326  14.1172993  73.7222385  16.5422189
  14.7703326  74.2914534  16.9493747  13.8370657  74.1995668  15.7612848
  43.3008671  78.1212854  28.7959456  42.3715210  78.0950356  29.0236759
  43.4695435  77.2757769  28.3801389  30.5987358  82.8674221  62.9473114
  30.5109119  82.7522278  63.8934898  30.9127879  83.7656593  62.8435183
   4.6394694  79.5347118  42.6657867   4.1857973  79.7811604  43.4718084
   3.9837381  79.6477842  41.9776964  18.4749699  84.2094421  15.2182364
  19.2773008  84.0591621  15.7181478  17.7787864  84.2033577  15.8751404
  48.4692968   7.3127288  23.4212208  48.2597113   6.5597743  23.9738178
  48.9328385   7.9151458  24.0029883  22.0561934  47.7742052  24.9920344
  22.5428176  48.5492945  25.2725148  21.1541510  48.0796051  24.8957062
  67.4794960 101.6425514  16.7681479  66.8652487 102.0720482  16.1727822
  67.7706766 100.8649826  16.2918675  17.8768134  84.8566532  12.3927438
  17.8603351  85.8056641  12.5165927  18.4726644  84.5370007  13.0702519
  34.9504720  27.8847236  19.3024635  35.6343130  27.3207969  18.9410901
  35.3803160  28.7302989  19.4307780  88.1545230  48.1732394  72.3907471
  88.8895746  48.1437518  73.0031693  87.7784177  49.0453650  72.5098121
  12.2558200  69.8976517  53.3853197  11.7912602  69.1408920  53.7427092
  12.7588677  69.5451117  52.6512289  71.2324476  67.2353315  57.1530819
  70.5134773  67.8666115  57.1813583  71.7596006  67.5062132  56.4014435
  84.2116305  99.1473866  57.2006893  83.2916233  99.4109440  57.2196007
  84.3952414  98.8544083  58.0932570  65.6486883  21.9342066  88.7645021
  65.1789709  21.1096455  88.8897805  65.4679682  22.4359633  89.5593694
 108.0184222  25.8855361  52.2135401 107.8074742  26.3252658  53.0371714
 107.8817511  26.5547198  51.5429068 109.5586275  69.1662073  15.5393839
 109.3324548  68.7776804  14.6943247 108.8625500  68.8776207  16.1296594
 102.6230622   2.2851390  38.2376003 102.3989392   2.4340457  39.1562009
 102.2448350   1.4296264  38.0344248  45.4483795  75.0956202  73.9523458
  46.0293341  74.9689960  73.2022190  44.8014259  75.7327175  73.6493731
  37.5097632 102.4990082  51.6730070  36.7951894 102.8600883  51.1483860
  38.2810736 102.9969501  51.4021587  29.1340995 102.1359921  46.6571617
  29.0892100 101.2385464  46.9870281  29.6789837 102.5982857  47.2940350
  92.9433441 100.7395267   3.7455592  92.3500729  99.9899960   3.7952104
  92.4342155 101.4191246   3.3037856  22.1037054  65.1867390  26.5714526
  21.5853262  65.8487511  27.0288920  22.5706649  64.7249126  27.2677994
  33.5852051  67.5146675  32.6804733  33.5635900  68.2028151  33.3454680
  33.3629966  66.7145157  33.1565118  13.0657780  96.5343571  30.4763317
  13.3163238  95.9793568  31.2148714  12.1501994  96.3110733  30.3087234
   7.4967033  92.3093891  14.6463513   6.7428541  92.8991413  14.6578586
   7.7561796  92.2702789  13.7258220  56.8564606  25.4267138  29.9399066
  56.4397503  24.6015376  29.6915770  57.5325776  25.5628604  29.2761564
  15.4714489  87.4019146  47.1827412  15.6506193  86.8721199  46.4059258
  15.0038803  88.1671810  46.8481064  19.7947431  80.4511929  46.4728975
  20.6603169  80.0598049  46.3552856  19.7057700  81.0604286  45.7399988
  42.9484749  91.0030365   9.7831959  42.5601149  90.8450508  10.6436884
  42.2074986  90.9780598   9.1777569  53.4896660  66.6274881   6.0814244
  52.5712252  66.8130589   5.8858311  53.7196302  65.9090948   5.4921359
  50.1576805 103.9772224  34.3720984  50.8549023 103.9955521  33.7165213
  50.5686665 104.3139172  35.1683140  39.3137765  98.6822033  23.6713505
  39.2029428  99.5602798  23.3067679  40.2610159  98.5781193  23.7615347
 100.3584740  94.7107887  22.9788780 100.0978991  93.8334751  23.2593298
 101.2436673  94.8202515  23.3262753  41.3295555  73.2038403  28.3370352
  40.8315706  72.8424215  27.6038098  40.6715202  73.3813477  29.0091300
  64.3028856   7.4694175  31.8025661  64.6985818   6.8358153  31.2040615
  63.6062051   7.8799647  31.2903953  87.4060059   8.7823981  64.3238640
  87.6964188   9.2035598  63.5148430  86.5508796   9.1731090  64.5036793
  50.4132510   3.4859962  60.7190323  50.8293808   4.0709418  60.0858593
  50.8978546   3.6292762  61.5319681 107.5868989   2.9427833  65.3106451
 108.2697297   3.2797545  65.8906651 107.9967213   2.9204482  64.4459009
  46.1676836  73.5590315  16.6686547  45.5860090  73.7253523  17.4104226
  46.9629908  74.0509510  16.8729448  45.0663280  80.7442474  20.7377315
  45.2049732  81.2598896  21.5321612  44.8691654  79.8631096  21.0554814
   7.1815211  67.0500851  14.4843471   6.8132335  67.9024839  14.7167575
   8.0334252  67.2543621  14.0986502  32.9509878  96.7692184  39.6380496
  32.4413514  96.6495609  38.8366866  33.7990117  96.3696957  39.4444799
   1.2255591  94.4609356  14.8399639   1.6424729  93.6775875  15.1988137
   1.1271329  94.2735863  13.9064527  15.2393281  69.9234581  27.2377396
  14.8130453  69.3971586  26.5613365  16.1071277  69.5313787  27.3348498
  90.2885438   1.2305755  35.1778984  89.7042275   1.3768977  34.4339895
  89.7245265   0.8585662  35.8559299  21.4118624  46.6571522  68.9963055
  21.5268779  47.5493145  69.3234873  21.8157792  46.6663408  68.1285477
  26.9566059  84.5004845   1.6878314  27.4095964  84.9349117   2.4105367
  26.0567880  84.8225594   1.7410086 103.0951353  68.2767035  88.6711183
 103.4011861  69.1614653  88.8705158 103.3213636  67.7643801  89.4473782
  97.9210902  11.3060111  55.8978128  98.4354878  11.4885539  55.1114941
  97.3253394  10.6038016  55.6366253  21.1389780  90.0598812  34.7134662
  20.1882052  90.0128078  34.6132302  21.3919902  89.1860580  35.0111866
  56.8537521  58.3618736   2.5181139  57.1428442  58.6965847   3.3670112
  56.8029881  59.1375113   1.9595058  71.1940504   9.1623801  62.2191668
  71.2241841   8.3924312  62.7870464  72.0909906   9.4966430  62.2210598
  12.9377269  37.5190855  88.6095718  12.8276633  38.3015658  89.1498066
  12.0818328  37.0910384  88.6308199  79.4125701   2.1771449  41.6080475
  79.6604920   1.2810916  41.8357611  79.3318320   2.1682853  40.6543016
  39.7182727  89.2650223  10.7315505  40.1786757  90.0037861  10.3334415
  39.3749261  89.6123123  11.5547991  89.6235801   2.2078914  57.9547310
  89.6476269   3.0317325  57.4679613  89.7236443   2.4677867  58.8705206
  44.8366642  91.9294643  12.9324770  44.3264866  91.4768028  13.6040771
  45.0567436  91.2470627  12.2983479  41.6948652  91.7666435  36.2576032
  41.6032028  92.3635960  37.0002222  42.3016977  92.2116756  35.6660509
  72.5204206  10.1728934  41.3299036  73.3391214  10.0478000  41.8098164
  72.7180482   9.8827189  40.4394150  11.7205822  67.8609467   8.0077279
  11.5676570  68.6553907   8.5192966  12.4190307  67.4046516   8.4769773
  64.6763731   4.1283721  36.8750072  65.2818108   4.7522754  37.2755337
  63.8153911   4.5358581  36.9693303  20.7888842  85.0671196  31.4781880
  21.5617728  85.6194115  31.5958858  20.4417062  84.9494267  32.3624086
  30.1871920  72.9824638  40.9591103  29.7216153  73.1277466  40.1354837
  29.4944859  72.8347206  41.6029739   8.9246190  70.6568956  73.0087614
   9.1542792  71.3099098  73.6698627   9.1324705  69.8174047  73.4189892
   4.6107581  71.9459343  38.1959128   4.8986962  71.4791155  38.9803886
   3.7187472  71.6332483  38.0450034  39.3068350   1.5443915  58.4569693
  39.5530014   2.2093410  57.8139544  39.1304003   0.7610625  57.9359102
  38.5238338  97.7242184  55.4441166  37.9974008  97.8638649  54.6569729
  37.9963636  97.1352196  55.9836435  86.0913917  53.4612370  35.6572032
  85.9089062  54.2228079  36.2076044  85.2514789  53.0069685  35.5907536
  20.9041119  58.0620289  53.7308931  21.1862803  58.7543726  54.3286180
  21.2650967  57.2591782  54.1068649  15.8643389  59.4621181  29.4370341
  16.6760051  58.9928341  29.2441535  16.0785604  60.0111580  30.1912880
  34.6023536  58.4974337  28.5986185  35.1772022  59.2564392  28.5001636
  34.9979448  57.9874659  29.3054914  34.3322277  99.1547680  40.5299759
  34.5401859  98.8508129  41.4134884  33.5827589  98.6222172  40.2636766
  39.9758291 104.6806717   8.1148928  40.2587271 104.8621655   9.0111399
  40.7796574 104.4405556   7.6539886 101.2771416  18.9002341  12.5812876
 101.1867905  18.9221782  13.5339606 100.4788781  19.3159026  12.2553563
  12.0412171  93.1702518  16.5834618  11.4761519  92.3992634  16.5334439
  12.0866668  93.4926987  15.6833518  19.4870794  82.3482704   3.2765615
  20.0732660  82.1086597   2.5587854  19.6904945  81.7218971   3.9711908
  95.7239780 104.0312672  56.8074989  95.3474542 104.9024200  56.6827679
  95.8408388 103.6915684  55.9202719  38.3862305 100.9926605  22.2436500
  38.3167505 100.5464935  21.3996458  39.2654610 101.3710594  22.2428727
  29.5096207 100.2761555  58.7692022  30.2688789  99.7242641  58.9567566
  29.7844458 100.8183765  58.0298138 103.8907555  58.9510012  13.7280512
 102.9409817  58.8944721  13.6233354 104.1177580  59.8175478  13.3907056
  57.3894787  52.3603249  17.7273262  58.1477451  52.3930740  17.1440697
  56.6667318  52.0813942  17.1651244  92.0423528  39.1359068  90.5353500
  91.4791044  39.1244913  91.3092063  92.4153348  40.0173689  90.5235737
  37.5117779 103.6685658  71.6790676  36.8894362 102.9616737  71.5081501
  37.3689127 103.8965607  72.5976753  17.8031731  73.0873013  21.5800428
  17.4833441  72.1946907  21.4489698  17.3328543  73.6082411  20.9291553
  15.3039086  93.7093449   4.8557240  16.0697925  93.2316589   5.1742625
  15.5724716  94.0512180   4.0029445  26.1450052  94.9183750  28.0525041
  26.2765861  95.4946899  28.8053513  25.4883409  94.2868805  28.3461690
   0.5838875   2.9476565  13.0163550  -0.0315233   2.8994388  13.7479126
   1.0202602   2.0957202  13.0139029  55.6280053   2.3874873  39.3739605
  54.8593331   2.9547709  39.3142700  55.7722224   2.2776526  40.3138399
  41.1245346 100.9765816  22.3654699  41.4446783 101.1739540  21.4852500
  41.6574144 100.2354527  22.6535583  93.8775870 104.4948101  48.6757612
  93.2739684 104.6896839  49.3926287  94.4256684 103.7849808  49.0104008
  62.3830605  62.2359848   2.3916000  61.5479422  61.9573832   2.7673602
  62.2140884  62.2973347   1.4514312  35.2787089  99.1351986  19.4636059
  35.9554911  99.0544415  20.1356745  35.6336594  99.7700214  18.8413155
  54.4490576  97.6313400  35.2479577  53.5887861  97.2649384  35.0432301
  54.7289467  98.0536652  34.4358397 107.1145532  15.9968871  22.1494818
 107.2830103  15.2838916  22.7655053 107.9598186  16.4358443  22.0542288
  63.7642527  55.5535048  27.1876979  63.5036064  56.3506049  26.7262483
  63.5851193  54.8476714  26.5664601  75.7937337  18.1069392  43.3360672
  76.0546256  17.2300834  43.0544806  75.6355739  18.0194873  44.2760468
  64.4807577  62.5968218   4.0343207  65.1951265  62.7195358   3.4091410
  63.6905622  62.5781155   3.4944361  49.4392252  80.5179024  32.1256685
  48.7548065  81.0916233  32.4701118  48.9809799  79.7094917  31.8960690
 107.7267409  14.1247863  45.8794260 107.1196986  14.8236674  45.6359100
 107.4479676  13.8600368  46.7560244  64.9270630  70.5884266  48.4135818
  64.7092295  71.0495472  49.2236090  64.5214128  71.1126614  47.7230358
  45.9923649  71.0135221  24.6764421  45.6683493  71.5002298  25.4343081
  45.2015162  70.7092476  24.2312312  52.0274162  84.6794605  19.4197011
  52.2196293  83.7532520  19.2733133  52.8864479  85.1007366  19.4483578
  31.4072776  93.4397030  78.8292599  31.8650341  93.8820934  79.5440865
  30.9775281  94.1458797  78.3467007  31.9242167  49.7965240  31.9253111
  32.6362467  49.4274139  32.4478102  31.5173340  49.0385675  31.5055704
  22.0966649 104.5358944  46.7434597  21.8871737 104.1545868  45.8908510
  23.0524516 104.5866489  46.7548132  17.0083189  69.5820475  36.7614746
  16.6100049  70.4511642  36.8085408  17.6892567  69.6664762  36.0940695
  19.0037131  71.3504648  18.2828796  18.5056412  71.8726635  17.6540220
  18.3478022  70.7982159  18.7083638  69.7978950   6.4712066  33.1098890
  69.4049931   6.4471072  33.9824033  70.6403471   6.9070453  33.2385325
  31.7060614  96.0554218  58.0764341  31.7841053  96.6518593  58.8210154
  30.8880877  96.3106537  57.6498127  39.8707700  94.3305588  61.6081762
  40.0890303  94.2457485  60.6800604  39.0321374  93.8782120  61.6993141
  26.2764382  79.7385454  37.3425841  26.4253855  79.3569803  36.4774513
  25.6403518  79.1545773  37.7556276  40.3526280  25.3476447  33.9606786
  40.4610232  24.4182509  33.7589288  39.4511513  25.4211730  34.2739940
  79.1772700   1.8493861  53.9576912  79.4369174   1.7211932  53.0453444
  80.0006533   1.9992656  54.4222450 103.8781586  80.9199619  54.5834541
 104.1594967  81.0635662  55.4870319 104.6785077  80.6738949  54.1196394
  69.9298382  72.3277903  35.5995107  69.6201944  73.2141018  35.4129410
  70.5589819  72.4389601  36.3122845  21.7652726  71.6268873  33.0454946
  22.5566912  71.4623976  33.5581660  21.0963202  71.8349934  33.6977434
  66.2949038  74.3060541  27.3438239  65.4942513  74.1362667  27.8401709
  66.8276596  73.5213614  27.4728823  69.4031572  74.6486855  55.6429434
  68.8493919  75.1253510  56.2613010  68.8341713  74.4813728  54.8916149
 106.1713744   0.3996295  44.1645813 107.1050311   0.2620429  44.0046215
 105.7601786  -0.4256612  43.9075994  75.1292610  90.3223038   8.9113039
  75.8577728  90.0008965   9.4425237  74.5133591  89.5901871   8.8814163
 105.5748734  76.1949825  29.8031211 105.0530252  75.4699898  30.1470542
 105.1208052  76.9814968  30.1055217  56.8362999  69.0038538  23.3885932
  57.0115662  69.4967747  24.1901803  56.0122967  68.5488844  23.5625243
  26.8539262  70.9938288  38.8924527  26.1817241  70.5436182  38.3808994
  26.3733649  71.6558504  39.3894649  81.4577580  11.6147250  52.4821138
  80.8037091  12.1592540  52.9202271  80.9651614  11.1415977  51.8114948
  18.4245646  65.8929110  58.1874895  19.0838218  66.5829706  58.1137800
  18.2457530  65.8317423  59.1258478  68.7748718  87.6424217  32.5988317
  69.2432451  87.8777504  31.7979074  67.8644705  87.8796196  32.4223757
   2.3471104  77.4243021  34.0906620   1.9771999  77.6438141  33.2355523
   1.5885748  77.1977663  34.6287513  41.0924578  76.1372328  32.9422307
  40.2517986  76.4550686  33.2716370  41.4354277  76.8631792  32.4210739
   4.3292093  57.9050185  87.9099059   5.0352954  57.5337912  88.4389296
   4.3101119  58.8309599  88.1517881  21.3384128  77.0994425  21.7958665
  20.8049583  77.5362968  22.4598074  21.8236303  76.4313221  22.2800255
  31.5812922  90.5936623  32.0074344  32.0203328  91.4431000  31.9634867
  30.8018970  90.6983662  31.4617133  54.3161059  24.0775985  67.8707933
  54.3638194  23.3728236  67.2248554  54.1919935  24.8713798  67.3504639
  60.4504014   6.0963077  31.5034103  61.2659407   5.6008452  31.5785384
  60.7290269   7.0110148  31.4596319  13.6509800 104.8493862  29.2477536
  13.8176155 103.9184380  29.1001606  13.9938176 105.0178719  30.1254249
  28.4054572  12.2250766  38.6961102  27.7654315  12.3263282  39.4006300
  27.9078955  12.3893947  37.8950691  29.9608946  94.9046230  54.7720909
  30.2385068  94.0135670  54.9846745  29.0342546  94.8196793  54.5476866
 100.2440830  34.9130274  86.9488373 100.3138443  35.3332259  86.0916311
 100.2891394  33.9756323  86.7604527 103.6185499  29.5096804  89.2723228
 104.0910789  29.7763945  88.4837738 103.5760900  30.3031660  89.8060024
  27.8801274  84.4641113  13.0749285  28.0140018  83.9344311  12.2889566
  28.7632942  84.7044468  13.3550835   3.4882742  61.4134073  54.1146898
   2.8885183  60.8228970  53.6588144   2.9390383  62.1478701  54.3887997
  71.0052944  15.3688544  28.8861036  71.0698534  14.5491046  29.3760705
  70.9437156  15.0964564  27.9705524 109.7876400  78.0471563  37.4890256
 110.0392210  78.1005192  38.4110284 108.8941964  77.7039862  37.5040197
  36.1891365  89.3597126   5.0701547  36.8167210  90.0778675   5.1514852
  35.5770278  89.6518803   4.3947342   9.4349337  76.1041069  17.5156760
  10.3476405  75.9601498  17.2657228   8.9354426  75.9046412  16.7238712
  20.6195378  75.3764200  48.3774471  19.9407482  74.7615528  48.0992126
  21.4259052  74.8606777  48.3739281  38.4463978 102.9422855  35.3807902
  37.8308654 102.7981949  34.6620464  39.2692947 102.5641251  35.0708437
  25.0038266  71.2474918  28.1258345  24.2529202  71.0730028  28.6932182
  24.8063278  70.7773209  27.3157930  75.3377414   5.6506366  33.9892030
  74.4892216   6.0866851  34.0673637  75.1455212   4.7244948  34.1360188
   6.1765241  65.7203032  89.0942775   6.1147641  66.2275435  88.2848796
   5.9858989  66.3518454  89.7878525  24.5902276  41.3801384  21.1064696
  24.5699811  40.5150223  20.6973290  24.2314744  41.2391758  21.9826293
  41.9667864  98.7727070  24.2541575  42.1379328  99.4551468  24.9031663
  42.4237728  98.0019665  24.5908427   8.8742310  60.1661348  39.9676275
   8.4059852  59.5355415  39.4205165   9.3729770  59.6268702  40.5813646
  93.2151508  85.3272247  33.6530161  92.9846001  85.9958458  33.0080199
  93.6160088  84.6264553  33.1387424  25.2225614 104.2261887  26.3433886
  25.4377198 105.0335121  25.8762956  24.4577742 104.4523048  26.8727350
 107.2109843  13.0094546  50.8984709 106.4574290  12.8829879  51.4750051
 107.8296281  12.3273772  51.1597967  33.5992098  99.0764427   2.3924045
  34.0400243  98.5236073   1.7471944  33.4921384  98.5121059   3.1581062
  71.6915288  77.2408034  86.7625251  72.1110732  76.3983275  86.5880257
  71.1213975  77.3854281  86.0073650  36.3265610  97.1096420  14.0994871
  36.5451288  97.8168106  14.7064269  35.3966308  96.9418430  14.2521429
 111.1254121  40.3832549  41.2062120 110.6707907  39.6188468  40.8523369
 110.6064893  41.1300677  40.9075165  93.3447934  12.8888625  17.1200848
  92.7020312  13.5977477  17.0960772  94.1674805  13.3192843  17.3528111
  82.7916337  15.2842540  48.5417318  83.2461167  14.7915477  49.2250490
  81.9242812  14.8822898  48.4932661  51.5955400  99.6675587  40.9685373
  50.7780027  99.6365166  41.4654350  52.2523785  99.3091011  41.5654469
 109.7366472  22.7647330  70.5671334 110.2102848  23.2294871  69.8772764
 108.8132807  22.8776528  70.3415775 103.0916067  50.7309462  85.4873121
 103.0286118  50.4230429  84.5831794 104.0317174  50.8139826  85.6471032
  53.1461287  92.1926308   8.1434089  52.4858904  92.8067970   7.8222871
  53.7180138  92.7238369   8.6974823  93.1742629  34.5886446  62.2673368
  93.4055837  34.8177458  63.1674671  93.7719949  33.8763167  62.0403337
  23.7152195  63.6666107  10.0856614  24.1768813  62.8335285  10.1809347
  23.4272861  63.6778545   9.1728640  57.8118324  80.6829739  37.1681285
  58.6090517  81.0154152  37.5806236  58.1223631  80.1950455  36.4054203
  67.5586129   7.3355025  55.7713938  67.2569848   7.4069232  56.6770172
  67.1223617   6.5528602  55.4346609 102.6721144  20.4859084  36.0094404
 101.9771147  20.0970382  35.4784179 102.3777200  21.3824672  36.1699247
  18.6248851  88.6244202  21.5772748  19.1284335  88.0729675  20.9784627
  18.2765710  88.0152035  22.2282553  52.6526785  78.7973881  29.3775845
  52.5101233  79.4560480  28.6978221  52.0824289  78.0697584  29.1294003
  91.1550236   7.0718307  26.3649821  91.9119597   6.8750590  26.9168520
  91.1345769   6.3610763  25.7241726  36.3728499  89.1882515  43.1694317
  35.5374694  89.5129871  43.5054731  37.0203495  89.8160076  43.4902143
  10.4985368  80.5143356  21.7700481  10.6571174  81.4133835  22.0577908
  10.6082106  79.9867821  22.5611806  90.7965549  56.0652949  75.8308804
  90.6437548  55.1306464  75.6918788  89.9712082  56.3922812  76.1888039
  55.3448486  77.9711485  26.0996008  55.6007338  78.6948586  25.5277610
  54.3989182  78.0724144  26.2053967  68.0194045  13.5904616  13.0272412
  68.0723739  12.7698154  12.5373816  68.9213873  13.9093226  13.0586004
  41.9878197  91.6864109  42.8527069  42.0196533  91.0335541  42.1534300
  42.8262520  91.5938568  43.3051443  59.2472649 104.7888660  48.2895327
  60.0289536 105.3096390  48.1051731  58.9173222 104.5383930  47.4266100
 111.0558797   6.7911262  15.3494072 111.9188834   7.1932811  15.2507508
 111.0016871   6.5651244  16.2779653   1.2241081   4.9777907  25.1979184
   0.9748224   5.6980533  25.7769847   0.4141430   4.4849795  25.0662947
  44.2318773  94.6709251   5.3681815  45.0687838  95.1297951   5.2956963
  44.1532612  94.4617176   6.2989247  68.7729740  97.8097439  33.7812090
  69.1338730  98.6928272  33.7027979  69.2487621  97.4208450  34.5151114
  49.5348835  98.9718246  64.4471550  49.4213295  98.7159252  63.5318089
  48.6483383  99.1604996  64.7548485  51.9656610  95.8503723  32.0579958
  51.6040230  96.1252022  32.9005623  52.3003817  96.6571331  31.6664124
  27.0234179  76.6360140  17.4589276  27.3932290  76.9647932  18.2783020
  27.7850580  76.4531708  16.9087410  34.5923281  98.2301521  37.2061515
  34.2647123  98.9803410  37.7022552  35.2563667  97.8390789  37.7739048
  42.7394629  81.1908340  43.3885145  43.0952787  81.3974285  44.2527723
  43.4827471  80.8334637  42.9026651 109.8904229   5.3461188  27.7094650
 110.4836274   5.1147002  26.9947720 109.0780164   4.8826140  27.5060201
  18.6562407  97.9457664  24.5252252  18.7258887  97.3017311  23.8205242
  17.7172673  98.0088520  24.7000980  55.1300264   1.4665336  17.3711836
  55.7315017   1.3209647  16.6409302  54.4504560   2.0368022  17.0117259
  76.2802888  16.6027469  29.9441123  77.1116973  16.1326331  29.8809934
  75.7341934  16.2165660  29.2593670  75.3242541  26.6231078  20.1387906
  74.6692086  26.0207194  20.4913211  75.3442956  26.4330119  19.2008710
  41.4875269  88.4887600  32.0701241  40.6990385  88.0552578  31.7436481
  41.2194824  89.3962097  32.2147894  67.6393963   7.2389716  31.5559030
  67.1386100   7.3714465  32.3608232  68.5025597   6.9532413  31.8551254
  37.6676989 104.8284626  39.0790939  38.5605741 105.0399113  38.8065243
  37.1338439 105.5381870  38.7219739  78.4339906   5.8088035   9.9533033
  77.9719067   6.0111445  10.7667935  78.9336777   5.0169963  10.1522636
  26.4001775  67.4463320  54.1623878  26.2625742  66.5106821  54.3102169
  26.0058188  67.6141310  53.3064938  50.8603013  23.3586043  30.9426641
  50.9198666  24.1650790  31.4547896  49.9206961  23.2171172  30.8270907
  68.4895921  15.3216094  26.5751767  67.8194142  14.6849460  26.8236804
  69.3088294  14.9445647  26.8959904  53.8020611 101.1369514  28.3062577
  54.3242121 101.8875217  28.0230093  53.6031008 100.6647873  27.4977326
  12.2155046  85.6141663  54.6612310  13.0688977  85.2944565  54.3684244
  11.7307425  84.8227501  54.8955011 108.3116549  97.3443699  29.4107509
 108.5369587  97.6849556  28.5450339 108.8725781  96.5763950  29.5194149
  34.4197536  84.3486500   2.5242624  34.1591930  83.6174870   3.0843890
  35.2854514  84.1034698   2.1976270  29.9639726  97.0267963  22.0245147
  30.4228234  96.5446758  22.7124453  29.5404482  97.7527905  22.4825382
  22.1048999  77.4946451  46.1492062  22.5910258  78.1068897  45.5968714
  22.5014758  77.5868320  47.0155001  78.3488847  16.9808787  18.2112110
  79.0677930  17.5988597  18.3435106  77.6787282  17.2555179  18.8370645
   2.7563433   7.9477042  51.1628151   2.6604370   7.0381469  51.4452076
   2.0641378   8.4172458  51.6282320  15.6991005  83.9308453  55.0217772
  15.2673447  84.5669937  55.5919838  15.2874207  84.0572834  54.1669273
  99.8436928  83.0314255  26.2473178  99.8021507  82.3013687  26.8649983
  98.9289951  83.2694340  26.0959387 102.0209122   4.9171847   7.8736818
 101.0988618   5.1173038   8.0349535 102.0109511   4.3425483   7.1082211
   0.0542360  94.6700096  30.6533360   0.4962349  93.9285851  31.0670471
  -0.0868889  95.2929211  31.3662887  91.1608315   2.8522510  24.2533088
  90.5957032   3.6128730  24.1180015  90.6529713   2.1137351  23.9172888
   1.8095735  22.2363109  49.8144341   1.1406235  22.8078479  50.1913691
   1.3141397  21.5467280  49.3725634  25.2936912  75.0931311  30.0299668
  25.8749008  75.8245611  29.8215556  25.7545924  74.3203878  29.7033668
  42.5048541  51.2796523  91.2146588  42.9752683  50.5630900  91.6406526
  42.7526044  51.2139822  90.2924142  45.3056288  91.0004902  59.8635721
  46.0312939  91.5760517  60.1051569  44.5216274  91.4735794  60.1424170
  59.8551702  98.5954762  18.3279943  58.9673901  98.9162731  18.1693363
  59.7877169  98.0968666  19.1422844  68.5702992  44.1719646  13.6946690
  68.4536720  44.3278331  12.7574742  68.2559205  44.9740714  14.1118205
  67.9877139  40.8664722  21.1261797  67.4667979  40.1877040  20.6970406
  68.6406470  40.3830928  21.6323948  29.3825221  95.8475018  29.5840836
  28.5770416  96.1870861  29.9741006  29.8530912  96.6271591  29.2892551
  55.9625959 101.9471931  17.6165009  55.1394463 101.5091896  17.4001551
  56.3234901 101.4349651  18.3401108  35.5535269 105.3047276   4.8631364
  36.1326051 105.7160759   4.2215073  36.1169386 105.1301384   5.6170052
   3.5826224  99.8680401  24.3333697   2.8648782  99.9459648  23.7048769
   4.1657355 100.5972862  24.1226482  88.2209349  10.3820151  43.5395241
  87.2833586  10.5507297  43.6328793  88.3853722  10.4570788  42.5995445
  85.6426717  14.4100207  23.7233686  86.1155463  15.2408427  23.7720013
  85.6701995  14.1726703  22.7964711  24.9310160  62.8063536  21.1453342
  24.3451476  62.0683622  20.9769273  24.3452334  63.5359955  21.3471222
   5.2536253   0.6386394  57.3085690   5.3023533   0.9965533  56.4221430
   6.0990337   0.8558959  57.7014017  27.9113984  94.2522717  77.3367023
  28.6027980  93.8419151  76.8172741  27.1499133  94.2619801  76.7568064
  99.4875861   2.0662707  36.0390687 100.2543832   2.5614089  35.7508063
  98.8226558   2.7330417  36.2108874  18.3135724  86.1959553   6.3923216
  18.8996589  85.9460640   5.6779766  18.6929893  85.7841015   7.1686274
  37.9132414  84.2338657  22.1124458  37.7041459  83.7533283  21.3114500
  37.1628118  84.0805531  22.6865363  41.6426802  90.2497101  40.1911163
  42.2270346  89.9987411  39.4757295  40.8468056  90.5537701  39.7548175
  76.1081791  84.7746563  37.4560976  76.8388271  85.3728867  37.6126337
  75.6430197  84.7408199  38.2919908  28.2637763  77.3675728  47.2494745
  28.3878160  76.8728495  46.4394808  29.1389370  77.6843166  47.4730778
  89.1711665   9.4649333  24.1387534  88.6782170   8.6740321  23.9203048
  89.0305806   9.5829505  25.0781870 107.6001931  11.1982173  60.2647877
 106.6449118  11.2446422  60.2257633 107.8944445  11.6498107  59.4737673
  53.1122971  81.4913940  52.9474020  52.8034258  81.7017937  52.0661736
  54.0183306  81.2089920  52.8225708  63.5376787  92.0708084  72.8232956
  63.0444813  92.2017479  73.6331367  63.1210899  91.3153267  72.4086428
  38.7334035  18.0030650  31.7351103  39.3931366  17.8159732  32.4029255
  39.2240084  18.0258006  30.9135127  21.2966561  96.0405254  30.4552341
  21.0452414  95.4524231  31.1673880  21.0494757  95.5711842  29.6584582
  86.9458962   6.8654460  40.9660769  86.6488171   7.7697486  40.8650112
  87.4963666   6.8802661  41.7490196  66.1843967  93.3317852  13.0709422
  65.8471680  93.2728958  12.1770513  66.5796947  92.4755383  13.2346904
  88.9134074   4.1858882  25.6035829  88.1850529   4.7951430  25.4829812
  88.8355447   3.8964576  26.5126467  62.2261143 105.1304150  14.0444434
  61.6004467 104.4928265  13.7005675  62.0458174 105.9318829  13.5531485
  82.4791861  32.0176715  81.6868687  82.6245166  32.9633826  81.6596222
  82.5415326  31.7393416  80.7731533  97.0760585  19.7306174  30.0093794
  96.4004994  19.2579288  29.5231533  96.8974210  20.6540030  29.8314166
  45.6708241 102.1615696  33.1336117  45.0503492 102.8706264  33.3023953
  46.4456940 102.3945713  33.6449981   1.2970070   8.4009666  16.1563706
   1.1528543   9.3353290  16.3060975   2.0368580   8.1791419  16.7217469
  30.4767489  97.6939869  26.2905908  30.2388453  96.8431473  25.9222150
  31.1564755  98.0270576  25.7046962  95.2799941  16.3509578  11.0935593
  95.1596308  16.9910068  11.7950368  96.0832453  15.8863753  11.3284647
  66.1659861  90.9179401  41.6009617  65.7466936  91.1831093  42.4195671
  67.0501852  90.6568432  41.8583632  83.0847741   5.0813407  27.8196383
  82.2269059   4.6782989  27.9532576  83.2739688   4.9399489  26.8920374
 107.6493407  13.5427875  31.3582087 108.0901004  14.0006846  32.0739555
 108.2432509  12.8277892  31.1295748  87.8817702   8.6405772  70.1539564
  86.9711781   8.4233111  69.9543190  88.0375195   9.4655246  69.6941423
  63.5654449 105.3552628  27.1300244  62.6873541 105.2585697  26.7614532
  64.1496754 105.3044415  26.3735032 101.2419129   9.8850745  10.1991975
 100.5459500   9.2447490  10.3469908 101.3411475   9.9156302   9.2476451
  73.4981537  89.6361637  20.5182958  73.8570452  90.2520084  19.8794138
  73.0888748  90.1911354  21.1821771  87.9299117   8.1350535  34.8536110
  88.0127669   7.6729697  34.0194368  87.5052787   7.5046748  35.4354596
   4.9166822  57.6601244  91.1822347   5.5654287  58.0931021  90.6273632
   4.6849965  58.3179499  91.8378435  75.1391459   1.0286922  23.2498455
  74.4236780   0.5064410  23.6125970  74.7033740   1.7552489  22.8043675
  50.6011581  81.1174107  37.1542168  50.9013128  81.8396282  36.6023707
  50.3338051  81.5362167  37.9723549  49.6011305  89.9299049  13.0004179
  50.3696060  89.4236469  12.7370226  49.4695330  90.5542374  12.2868884
   4.3990373  27.5332095  82.8212118   3.7971067  27.9902674  83.4085840
   3.9666652  26.6994120  82.6366162  77.1633173  12.4273986  38.6423635
  77.7632952  12.5030059  37.9003811  76.6418339  11.6480559  38.4502625
  31.0645080  94.4885445  51.6594648  31.4925170  93.7083626  52.0121098
  30.1724029  94.2035484  51.4615822  68.6414003  94.5421886  16.6063941
  68.4756136  93.6122704  16.7613316  68.8572502  94.5951176  15.6753528
  59.8086310  33.0071086  42.0941114  59.9705196  32.4528617  42.8575563
  58.8914514  32.8468722  41.8719816  65.6137849   5.8187598  40.0902891
  65.0405288   6.5383739  40.3544044  65.7616831   5.9611243  39.1553617
  76.4000965   9.9902553  83.0062675  75.5445505   9.9950999  83.4355068
  76.2361789  10.3657931  82.1411991 103.3406468  52.4080302  78.7379181
 103.7946411  52.4563719  79.5792162 103.7970754  51.7163683  78.2588482
  50.7485104 102.2301674  15.0207055  51.0937691 103.1025219  15.2104807
  50.4407120 102.2859764  14.1160631   3.5196403  36.8059939  13.8727582
   4.1813377  36.2991256  14.3433714   2.9754309  36.1472625  13.4413064
  70.8506966 104.7192097  38.7712574  70.1614428 104.6072292  38.1165648
  71.0817385 103.8272858  39.0307498  34.4572568  90.7728481  37.2655725
  33.9473271  90.8446980  36.4587021  35.2960968  91.1836052  37.0561504
  94.2417575  12.7995223  43.9240837  94.8729420  12.4041480  44.5253468
  94.7589780  13.0326480  43.1531286  70.4154945   4.3161983  19.7768199
  69.9234319   3.6126632  19.3535697  70.4844642   4.9966926  19.1071832
 101.3285876   1.9739741  21.6694927 101.4325524   2.4966449  20.8743620
 101.4844657   1.0730952  21.3860154  51.4042759 103.3223724  72.2580481
  50.6970501 102.9852390  72.8079605  50.9880543 103.4995842  71.4144897
  68.1091070  80.8563709  30.5019379  67.2686434  80.5917549  30.8758783
  67.9524422  81.7363644  30.1594448 109.3972340  89.9251366  35.8215451
 109.6614659  89.4372082  36.6015077 109.4180639  89.2785454  35.1160550
  93.2785960  49.8734118  79.4207168  93.3425315  49.1234900  78.8293028
  92.8717967  50.5606200  78.8929987  89.0247584   7.5559157  43.4042835
  88.9445925   8.5095996  43.4217501  89.5394231   7.3445148  44.1831684
 107.3922730   5.7774657  50.8919287 106.9900132   6.2516421  51.6196537
 107.0507813   4.8865527  50.9686375  66.6314507  64.6610355  57.7981472
  66.0575438  64.3608856  57.0933247  66.0888004  64.6140909  58.5852718
  97.8788329   4.7683448   0.2150265  97.1668626   4.5364493  -0.3812584
  97.5762511   5.5649680   0.6509916 111.4021302   9.8882026  54.3572474
 110.4827691   9.6285075  54.2975283 111.8274070   9.4324988  53.6308146
   6.1680919  69.8660564  30.8344030   6.1744761  70.2418470  31.7147279
   5.7898140  70.5517673  30.2840042  92.5923730  18.5414142  45.5162621
  93.1597853  17.8977603  45.0920153  92.7956248  18.4624499  46.4482927
  89.0057755  16.5442580  31.1967802  88.5646392  16.0770244  31.9062352
  89.6304942  17.1182269  31.6400838  71.7013765  19.8537749  38.0973935
  72.6557399  19.8111362  38.0373406  71.5194250  20.7470435  38.3892560
  79.2388535  36.2352962  18.0468202  79.7796250  36.0890025  17.2706771
  78.7127305  37.0051307  17.8305244  64.7796535  96.8239880  36.1273980
  65.0678921  96.3169193  35.3684354  63.8712597  97.0533085  35.9312677
   4.1169742  17.7864856  40.9457541   4.4980816  18.1174582  40.1324558
   4.8707012  17.6071853  41.5078735  39.8337984 101.3927555  41.9610882
  40.2205324 101.3322639  41.0875845  39.3599129 102.2244072  41.9561481
  76.5990806  20.1149100  62.1759796  76.1286355  19.8012752  61.4036131
  77.4394990  20.4222030  61.8361330  54.9788046  90.0092983  50.5080462
  54.1403913  90.4285812  50.7017040  54.7453403  89.2250824  50.0113344
  70.5990314  69.6575832  39.1755223  71.0699749  68.9423752  38.7478280
  69.8822594  69.8647451  38.5758877  96.8500615  29.1944522  24.9675488
  97.2927094  28.8242263  24.2038536  97.1963073  28.6980170  25.7090998
  96.7954922  19.4492167  79.6090412  97.1856881  19.4702643  78.7352371
  97.1557570  20.2181739  80.0508118   1.6265682  22.0153541  33.3124995
   1.7002062  21.3004703  32.6802373   1.6385082  21.5823478  34.1660786
  75.1905227  17.9558009  45.9190512  74.3738461  17.6018352  46.2711573
  75.6473447  18.3089274  46.6824961  10.8686451  11.0602302  14.6102071
  11.0805229  11.7034549  15.2866745  10.9491733  11.5426368  13.7873852
  96.3609410  22.6164359  31.2679648  95.4856063  22.5300998  30.8903766
  96.2519789  23.2412738  31.9848633  48.6204624  97.2100258  28.8458300
  47.7644444  97.5831032  29.0562534  48.4201050  96.4073467  28.3643770
  27.8791451  93.7915516  30.6263161  27.1773267  94.4411278  30.5845809
  28.6363673  94.2319489  30.2404428  23.4969759  99.9619198  26.5601277
  24.2500877 100.5527210  26.5630555  22.8820395 100.3546810  27.1796632
  64.9003029  78.4390926   2.7427226  64.3636894  79.1824341   2.4675359
  65.7211828  78.5452890   2.2619799  22.6173592  80.3183651  46.6107416
  22.1661806  81.0367012  47.0541954  23.3042002  80.0530338  47.2223616
  31.5882730  98.2493019  59.6612358  32.2210169  98.9209461  59.4067478
  31.7591190  98.0993176  60.5910492  40.7043362  98.9426613  40.4959297
  40.9127522  98.9990711  41.4284611  40.6698942  98.0034256  40.3145981
  25.3210783  99.0457916  30.5291867  25.1579046  99.6266079  31.2723327
  24.4592237  98.9147091  30.1339006 105.9100486  11.1803073  12.0929742
 105.7942200  10.2578563  11.8651724 106.1734010  11.5982455  11.2730932
 102.7455378   7.9024142   1.4610161 101.9433118   7.7872676   0.9516968
 103.1644059   7.0418662   1.4459577   0.6988291  43.3980960  34.1550732
   1.0241989  42.5012034  34.0780187  -0.0082871  43.4524268  33.5122156
 101.9487282  51.9025542  90.3208401 101.0468956  51.6790224  90.0906961
 102.2329994  51.1908366  90.8943227  74.3683481  60.0459480  17.4588084
  74.0700579  60.9487867  17.5689864  75.2117157  60.0155354  17.9105139
  62.1470213  97.2103405  51.6399574  62.0791817  98.1049919  51.9734526
  61.3426065  97.0802975  51.1377287  61.5770721 100.3108215  60.9363890
  61.1348343  99.9279690  61.6940689  62.3753929  99.7920132  60.8376169
  37.5243974 103.4695816   0.2370577  36.7666960 104.0450764   0.3416304
  37.3054361 102.9196072  -0.5151462  72.8529549   1.8226928  53.6754560
  72.7080727   1.0177535  54.1727591  72.9078675   2.5086707  54.3407726
 105.7110215   0.3703994  12.6395047 105.1108313  -0.0394994  13.2623887
 106.4255429  -0.2595502  12.5453818  98.9167548   1.7775077  38.9556003
  98.8121033   0.8334273  39.0738893  99.3232013   1.8672961  38.0936456
  24.0212631  96.2700558  56.5997124  24.5789123  97.0468998  56.6418552
  23.1321073  96.6072941  56.7088413  34.3393064  90.8815384  25.7525873
  34.5960975  90.2186012  26.3935280  33.5357332  90.5383015  25.3618288
  54.3390989  94.3061924  11.2492156  54.6185017  94.5535278  10.3677440
  54.5555019  93.3762455  11.3169611  53.8145685  86.3998413  40.8724785
  54.7634459  86.3730335  40.7494307  53.6676645  85.9451580  41.7018890
  95.1658364  49.3407751  88.2461137  95.5383702  50.0577380  88.7593487
  95.8417078  48.6630274  88.2556108  42.9271711  10.4877967   8.2471031
  43.3611727  11.2765140   7.9218137  42.6030857  10.0506705   7.4596250
  73.8437366 102.7895546   1.3383648  73.4306335 102.1966743   0.7106091
  73.2843447 102.7449512   2.1138144  22.3605275  56.8177414  23.1630898
  23.0811286  57.1580553  23.6933255  22.7561402  56.6338491  22.3110890
  63.7611891   7.7787036  38.3212900  63.9649916   7.8532714  39.2535639
  64.4045521   8.3409328  37.8897595  86.3051606   6.7000121  27.4710846
  86.2826825   5.9468764  26.8807340  86.0169411   6.3516826  28.3147836
  71.7262936  65.3290176   5.8068961  71.5129614  66.0924101   5.2702874
  72.1189022  65.6953955   6.5992713  19.9253261  90.7809639  11.8397713
  19.3951845  90.5932999  12.6143432  19.4220793  90.4173374  11.1112463
 109.9365946  72.1155859  84.3134391 110.3272649  71.3784720  84.7827733
 109.1128965  72.2818972  84.7717983  12.8419816 102.9440403  14.4233334
  12.1795642 103.6341667  14.4574010  13.1420851 102.8552341  15.3279245
  86.5384246  12.0991057  40.7486725  86.7212964  12.9486674  41.1499691
  85.8198119  12.2713202  40.1402569  54.6453571 100.8126831  45.9175873
  54.0457487 100.5098343  46.5994835  55.0864124 100.0183392  45.6164122
  58.6311817  81.2270260  56.9026327  58.9096880  81.8948936  57.5292301
  58.0537796  80.6526661  57.4055767 105.0283548  46.1434771  84.1026026
 105.0262853  45.2672030  83.7174255 104.8527762  45.9969546  85.0320846
  41.0841751  94.3608093  76.0156918  40.4996538  94.1571140  76.7458105
  41.2134409  95.3077221  76.0693598  13.5906319  36.1008758  58.7437725
  13.9426521  35.5950850  58.0113125  14.3637375  36.4497489  59.1874170
  38.8862609  17.0502354  65.4768229  38.3442020  16.7215372  64.7596335
  38.2670163  17.4771620  66.0688543  94.8407460  34.2472571  78.6065054
  95.4006339  33.4731406  78.6656904  93.9795829  33.9025039  78.3703423
  46.2276840  86.7439079  48.5059309  45.6105995  86.9547272  47.8052187
  47.0812702  87.0042229  48.1597185  22.4994445  85.9397507  28.7490773
  22.7636170  85.0875568  29.0957904  22.4206853  85.8004093  27.8053546
  62.4082661  76.9182205  23.6783552  63.0081892  76.9905233  22.9359937
  61.5388584  76.8743277  23.2803154  77.9391099   2.0615882  66.3609934
  77.1394540   2.5768775  66.4670897  77.6571561   1.2753886  65.8934069
  98.1959201   6.8676776  15.7927406  97.2644616   6.6471976  15.7934403
  98.4140397   6.9889564  16.7168331 109.4158459  22.0445556  21.6424489
 108.5509539  22.0925540  22.0497441 110.0278044  22.2106570  22.3594928
  31.3083577  88.4543800   2.2440009  31.2821269  88.3006859   3.1884164
  31.3442492  89.4069672   2.1572703 107.1832753  12.5364226  88.4307003
 107.6581145  12.0385665  87.7651882 106.3156987  12.6765460  88.0513477
  90.3326274  33.2530898  20.9132695  90.9439564  33.4694880  20.2092242
  89.4675828  33.3245963  20.5097580  74.4737745  23.1677169  39.2607522
  75.2440215  23.6421222  38.9478874  74.6461988  23.0174846  40.1902342
  61.7736387  95.2217102  23.0741429  62.5533104  94.7764301  22.7423644
  61.7226648  96.0288334  22.5621128  51.9567574  27.0363063  42.5360632
  52.7239800  27.5341624  42.8184414  51.4243711  27.6694125  42.0544291
  48.9650679 104.6824932  50.7176638  48.4862423 103.8841248  50.9403086
  49.8600245 104.3865108  50.5513096 101.3268281  19.9051780  29.8263264
 100.7638026  19.6860999  29.0838718 101.0570956  19.3009299  30.5179572
  87.1519328   9.7746200  55.2443790  86.4021064   9.2474097  54.9686193
  87.1829701  10.4947680  54.6145678  21.7635445   7.3587150  63.9509487
  21.2962059   6.6586036  64.4066477  21.7346004   7.1050376  63.0284309
  83.4483290  34.5426196  18.5304117  83.2094336  33.8191623  19.1098607
  84.3775178  34.6923656  18.7048090 111.3944102  22.0978374  36.3541269
 110.5901671  21.8812675  36.8258572 112.0789529  22.0704383  37.0226169
  54.8603010  93.2206726  20.8706260  54.2323256  92.5029469  20.7884741
  54.3217945  94.0120029  20.8641839  73.3404350  92.4691200  36.2086153
  73.4115982  92.0885181  37.0840073  73.6497402  91.7792034  35.6216145
  35.0526571  94.5053984  78.9289498  35.6448602  94.6678759  79.6632004
  34.1838454  94.4581343  79.3279028 108.6665440  64.0067595  43.7396622
 108.4212495  64.6395606  44.4146585 107.8562356  63.8461799  43.2560873
  95.7593299  13.4211082   6.3654411  96.5001584  12.9777831   5.9520704
  95.5147887  12.8503436   7.0939040 104.1406632   0.4983443  49.9258375
 103.4386159   0.1482314  50.4742718 104.9225856   0.0216788  50.2044392
  70.9670162 102.0212555  37.3010278  70.4107285 102.4587154  36.6565084
  71.7813253 102.5243473  37.2953701   1.2343124  19.4517631  32.0106912
   1.8352274  19.3549747  31.2719321   0.6223015  18.7215251  31.9188762
  54.0637779  94.9978447  63.2439375  53.9867020  95.5948353  62.4996996
  53.2805443  94.4499016  63.1935692 103.6689950  21.5542430  29.5760059
 103.6793900  22.3186797  30.1519942 102.8868962  21.0681266  29.8372507
  63.7210369  80.6535912  18.6795044  63.0408096  81.3228321  18.7545729
  63.5483503  80.0540733  19.4054449  69.3950701 104.7845078  23.4206629
  69.8170090 103.9566612  23.6505961  69.3659210 105.2747822  24.2422557
  88.6592198   8.8563365   6.0965180  88.4071875   8.7893886   5.1755238
  89.0081549   7.9916400   6.3128108  62.8563309  96.8446445  15.7430375
  62.2672415  96.2902641  16.2547719  63.6088657  96.2840939  15.5540669
  89.5120002  44.1667193  62.9367065  88.6703540  44.6225947  62.9433393
  89.3552733  43.3671588  63.4390640  82.5116635   1.8621940  37.5425172
  82.8036500   1.9848079  38.4458113  81.8148995   2.5081271  37.4262571
  71.3398410   1.5802020  30.8741784  71.3318897   0.8236140  30.2878857
  71.3630582   2.3368949  30.2884197  25.0801086 102.8829670  81.4410973
  24.2697573 103.3816338  81.5454769  24.8816562 102.0231152  81.8118954
  50.0245285  96.5002728   2.5464943  49.3436575  97.1730614   2.5487581
  50.7983398  96.9414520   2.8969473  99.0187884  15.7242698  18.8418853
  99.8108865  15.9735984  18.3658087  99.1812516  16.0070056  19.7418284
  37.8321552  73.5668659  18.3096600  37.4206901  73.4606075  19.1673517
  38.1391883  74.4734573  18.3019733   0.4942039  34.0772838  64.5123816
  -0.4375692  34.2730826  64.6108246   0.8931259  34.3981380  65.3211737
   8.3062557   5.4172153   5.5562651   8.4832958   6.3316745   5.3356910
   9.0443329   4.9340076   5.1847863  64.2309738  17.9270190  44.3000078
  63.5324741  17.5420779  43.7707138  64.9359251  17.2800559  44.2733622
  52.1557856  82.0805264  50.3328514  51.2079048  82.0578384  50.2015400
  52.3590136  83.0083656  50.4514027  93.3935834   6.4713210  57.8653574
  93.6153317   5.6064624  57.5202751  93.4277678   6.3658160  58.8161135
  84.3783999  12.7386111  39.3337560  83.5375310  12.5629539  39.7560334
  84.2821885  13.6164302  38.9644122  44.6415185  40.2787520  89.4812264
  44.2619848  40.3541209  90.3567263  44.7249078  39.3362166  89.3366562
  94.2766238  35.9020442  50.0305128  93.7555791  35.8208293  50.8293533
  93.8532592  35.3115767  49.4073486  97.1616746  18.9894694   9.6686572
  96.6154719  19.5209140   9.0894628  97.6689482  18.4341735   9.0765887
  43.3018923 101.9893074  74.3508434  43.3071375 102.9141426  74.1041183
  44.0033484 101.5984535  73.8298607  25.0126652  30.8431834  70.2938652
  24.0561680  30.8783072  70.2827644  25.2167133  30.0019664  70.7024622
  60.1708603  78.7711287  28.3810616  59.2495203  78.9434147  28.1869483
  60.4116726  78.0596828  27.7876925  81.1863709  35.0985545  10.7709312
  80.9481145  35.8642787  11.2935507  80.3598500  34.8020286  10.3899145
  -0.0807949  48.4479636  36.8702912   0.2646974  47.6393622  36.4920998
   0.0427727  48.3430594  37.8136659 107.4299050  34.1684550  33.6254644
 107.4058724  34.1284007  34.5815253 106.5687466  33.8534659  33.3508253
  90.6471825   0.7596225  65.1686811  90.8095456   0.4351729  66.0544586
  89.7350646   0.5288810  64.9925280   0.5786709   5.6642550  22.2527623
   1.0341219   5.4835338  23.0750394   0.5446772   4.8179740  21.8067884
   1.9069723   4.0466327  39.7562718   2.5213722   3.8318938  40.4581499
   2.1954302   4.9023837  39.4389391  21.9558243   0.4453391   6.2608421
  21.9141296   1.4001960   6.3133085  21.0710052   0.1544684   6.4815611
 102.6262952   2.8896541  12.4110007 102.0283604   3.5829276  12.6904309
 102.6137353   2.2582168  13.1302786   0.2783302   1.7657584  37.7684832
   0.7616571   1.0810584  38.2308841   0.7987503   2.5579852  37.9017973
  46.9332898   5.9237021  34.6342993  47.7164436   5.9155292  35.1846027
  46.4129884   6.6541118  34.9689841   7.6641659  11.6660899   6.2472081
   8.2812122  11.9959086   5.5939823   6.9940475  12.3468131   6.3088632
  52.1248341  88.0829239  39.7439075  51.4880371  87.5810909  39.2351031
  52.6107502  87.4224472  40.2377605  85.3225423  24.4930762  16.6728210
  84.4465733  24.1491527  16.8478334  85.4872084  24.2736262  15.7557845
  36.6893101  83.0687523  57.5277090  36.1152673  83.1267452  58.2914782
  36.5094256  83.8674068  57.0316982 105.9844018  41.4637107  33.9629602
 106.1136294  42.2228450  34.5315099 105.9681607  40.7165450  34.5610428
  43.0102491  82.5231457  69.3182039  42.3759317  83.0907726  68.8803959
  43.8379526  83.0005836  69.2616510  68.5799742  81.8143272  27.4595046
  68.3117151  81.9362736  26.5487909  68.7103176  80.8700371  27.5464082
 103.3794403  70.4042768  53.3015299 104.0572643  70.1956701  53.9443970
 103.5043907  69.7605038  52.6042652  99.8177386   4.9673385  26.6099215
 100.2388335   4.3610209  27.2192597  99.6498729   4.4423694  25.8273220
  37.4552540  17.2303218  49.3018818  37.6352505  17.1048564  50.2335978
  37.8219704  18.0913466  49.1009188  65.3295065   7.7657908  72.2765970
  65.8598877   7.0633906  72.6528454  64.6928287   7.9771728  72.9593754
 105.8761200  37.0249081  50.8082962 104.9507645  36.8312263  50.6585121
 105.8765373  37.6383543  51.5430880 109.0091032  40.2193451  28.3224797
 108.9199781  39.5496464  29.0005589 109.3044245  39.7391319  27.5489116
  83.4244391  29.1346216  21.0809231  82.4980518  29.3534756  20.9802127
  83.5053870  28.2574177  20.7065034   4.9188831  40.1587200  69.5231199
   3.9689192  40.0418234  69.5347786   5.2219510  39.5867300  68.8179874
  80.0889298  11.1522841  40.3540850  79.8305437  10.2535295  40.1498556
  80.3347895  11.5287113  39.5090485  13.6496782  82.4678802  12.6183140
  12.7801824  82.8190613  12.8103554  13.6334133  81.5797520  12.9749513
  83.0369923  18.2742727   6.5770477  82.4220082  17.5568640   6.7298490
  83.3622333  18.1259108   5.6891066  84.2890855 101.8503958   7.2528702
  84.1433623 102.4858486   7.9537243  83.7820818 102.1878123   6.5144062
  93.6328480  25.8566618  47.6869917  94.3524680  25.4864693  48.1982040
  93.4024236  25.1675606  47.0638752  12.4953330  13.6662793  44.9678850
  13.2713544  13.2043147  44.6506929  11.7712998  13.0641639  44.7962284
  85.1019618  24.4693279  25.6048059  86.0433456  24.6139693  25.7002401
  85.0284287  23.8310003  24.8953247  28.1114244  11.1184609  43.2912350
  28.9232564  11.0157502  43.7878370  27.9690194  10.2632809  42.8855038
   7.6352447  19.1572452  31.4378524   8.2813358  19.6905792  30.9748697
   6.8836331  19.7385180  31.5537596  12.7336979  17.8264487  31.3622189
  11.8052089  17.6137161  31.2679505  12.8183615  18.1348348  32.2644162
  41.0134633  57.7846516  89.7863618  41.9602276  57.7897973  89.9272263
  40.6404604  57.8851051  90.6621527  89.3356379  16.1017395  82.0554453
  89.0877398  16.9171215  82.4912482  90.1982089  15.8915688  82.4132627
   4.7865108  38.6474371  53.1382847   4.0847066  38.0045009  53.2399464
   5.2787501  38.3459759  52.3747063  30.6002331  51.9516468  46.9275284
  30.0894547  51.5552092  46.2217140  31.4824057  51.5984726  46.8123102
  17.0860386  69.0157843  19.5002139  16.3870049  68.5620260  19.0293777
  17.5812113  68.3161211  19.9262547   8.8773966  70.5702114  10.1789796
   8.2470584  70.6021547  10.8986223   9.4829762  69.8698664  10.4219174
  14.5439601  32.9435658  20.3516150  14.1026855  32.2127247  19.9187422
  13.9163303  33.6646771  20.3035593 101.5260884  54.4864559  47.1301556
 102.3911026  54.1395283  47.3483896 101.0061190  54.3488932  47.9219532
 106.8138888  63.7094307  24.8679113 106.1581781  64.1764259  24.3500423
 106.7289445  64.0754843  25.7482624   0.6218309  23.0921650  57.7669954
   1.2251253  22.4852610  57.3381138  -0.2018150  22.9878235  57.2905970
   6.0053056  39.0605187  36.4331913   5.8500761  38.2086301  36.8411374
   6.9476438  39.0779018  36.2660742  17.0785594  60.6133366  49.5009279
  17.5278986  60.7125235  48.6615896  17.7801347  60.6317425  50.1518345
  80.8729550  28.8773012   7.3436105  80.5521318  27.9787469   7.2667849
  81.8242761  28.7879252   7.4004281  23.7020206  53.9469719   3.4013924
  23.3252382  54.4294882   2.6655638  24.6420503  54.1180134   3.3437762
  15.3003931  54.6359825  38.0431366  15.8118129  55.3481579  38.4271765
  14.6982157  54.3714762  38.7385845  12.3557878  46.1802006  29.4343996
  12.3269117  46.7993021  28.7049413  11.9442356  46.6473579  30.1614618
   7.8769523  45.1410055  12.7501595   7.2326899  45.7080221  12.3263097
   7.3548979  44.5449162  13.2871592  39.5375657  63.3762598  12.8350270
  38.9450002  64.1270399  12.8728676  39.5199871  63.0124092  13.7202001
 105.4880938  16.5084410   0.9046178 106.2159976  15.9279656   0.6822780
 104.8322794  15.9312177   1.2957095  21.7075157  50.2328110  14.5560300
  22.5621152  49.8394728  14.7325921  21.8965864  51.1590672  14.4059002
   2.7969405  28.7411761  26.2990069   2.2748813  28.2328725  25.6782722
   2.6069856  28.3474207  27.1505380  78.9715289  86.1058658  19.2715287
  79.0078583  86.2408644  18.3245933  78.0683105  85.8379501  19.4407904
  11.0437024  67.2777033  17.1187103  10.4814708  67.2660780  16.3441181
  11.9181561  67.4645472  16.7771673  71.7018506  51.7590141  30.6112361
  72.4659273  51.4835978  30.1047087  70.9669492  51.6681147  30.0047016
  21.1957073  68.2074404  29.9088645  20.8252525  67.4759531  29.4149804
  22.0105720  68.4164953  29.4522166  27.6008077  59.6623362  79.4875252
  26.7199118  59.2947919  79.4156599  27.9235072  59.6888090  78.5867500
   7.6995999  81.2777233  40.4412031   7.9595482  81.1884499  39.5243120
   7.1017748  82.0252323  40.4489756  51.6549015  37.8619266  18.8800800
  52.6097965  37.9266334  18.8651693  51.3519096  38.7258601  18.6007106
  14.1542220  37.8020000   1.6452985  13.9447808  36.8880916   1.8380108
  14.6590543  37.7658463   0.8328522 108.7083292  42.9677439  50.9050369
 108.0866852  42.7879810  51.6103554 109.1267896  42.1240664  50.7337761
   0.7188323  62.4384975  27.3405194   0.0441669  62.1436405  26.7288685
   1.4059907  62.8021145  26.7821026 102.1946266  19.9692976  23.5515070
 103.0740461  20.3143001  23.7058663 101.8822852  20.4452395  22.7819896
  97.9756901  18.9231884  16.6924274  98.7139496  19.3893290  16.3001025
  97.8965268  19.2958128  17.5705588   1.4233600  59.9519634  24.9879336
   1.0549895  60.6164646  24.4057155   0.8084534  59.2202616  24.9356484
  13.4846461  28.7691665  21.1580539  12.9026401  29.5159245  21.2989545
  13.8355601  28.9018130  20.2774310  16.9032025   7.0460725   5.8789539
  17.2674716   7.8429490   5.4935616  15.9550357   7.1641523   5.8217871
   7.3101097  63.6457539  22.7781057   6.4860231  63.9269018  22.3805261
   7.8237420  63.3021307  22.0471239   1.6215029  14.0539849  22.4197102
   0.7287972  14.0848100  22.0756769   2.1223825  13.5951650  21.7452955
 101.4691672  31.1816740  44.2848778 101.4418682  30.5381250  44.9929285
 101.3510939  30.6655622  43.4874344 109.1607583  56.4219284   3.7809491
 109.2232969  56.7694044   4.6706581 108.2231656  56.2895060   3.6408904
  15.4320896   3.1806085  23.7570477  15.8829618   3.6311272  24.4711781
  14.5019019   3.2867068  23.9563608   2.3379591  21.3871408  16.7767143
   2.2294529  22.1535659  17.3397887   3.2805985  21.3382626  16.6177368
  65.9978910  46.4734895  89.3801661  66.2020297  47.0979352  88.6840144
  65.1107712  46.7039646  89.6560875  37.6559520  29.3422461  15.6842315
  37.9417825  28.4473228  15.5008042  37.0407820  29.2527604  16.4120984
  27.7158451  54.6865129  46.8198347  28.6522198  54.8516417  46.7095232
  27.5556207  53.8797092  46.3303185 101.7109773  13.4227550  22.2624898
 101.0484156  14.0001488  21.8832040 102.2991899  13.2224000  21.5344143
  10.9991968  22.3065972  22.6781702  11.7175364  22.8276563  22.3193979
  10.2513552  22.9039884  22.6874638 106.3872686  25.8519197   4.1313720
 105.7204768  25.6465244   4.7866839 107.0303890  25.1479363   4.2152593
   5.6310850  13.7457752   7.0709950   4.6941766  13.5742843   7.1659940
   5.8483738  14.3076074   7.8148776  85.8646604  70.7907438  23.1935000
  84.9718854  70.7559109  23.5369706  85.7980987  70.4164076  22.3150492
   8.7065339  57.2054625  34.2272663   8.9951187  58.1131458  34.3224525
   9.5022720  56.7235184  34.0019584   4.5822740  65.0235367  44.6661425
   4.5652932  65.9485435  44.9117088   5.3343260  64.6644831  45.1370239
   5.3798163  36.0844707  44.1408825   5.0490981  35.7292151  44.9658966
   5.4901046  37.0201159  44.3100977  92.1943840  11.9258010  33.6465573
  91.4715907  11.3589072  33.3774209  92.9665181  11.5438795  33.2292128
  14.0007257  22.7300692   9.3657565  14.6615541  22.7554893   8.6737365
  14.5013809  22.5938487  10.1701331 111.5600173  57.4870682   1.6990030
 111.2308798  58.2070160   2.2371259 110.8107464  56.8995667   1.6006944
   7.4751991  41.2865210  29.4377947   8.3977526  41.0324192  29.4141722
   7.2354907  41.2324619  30.3629160   4.4616902  60.6726265  57.1983528
   3.6152259  60.3974915  57.5505304   4.2769232  60.9117651  56.2901115
  41.0058784  19.6157312  20.1622200  41.8652105  19.9716198  20.3883314
  40.8839655  19.8503923  19.2422736 102.5640842  20.6215502  91.5065652
 102.4292680  21.5654684  91.5907030 102.4946352  20.4525019  90.5669743
   3.5945591  32.4302673  18.2352602   4.4401044  32.4875307  17.7902818
   3.0928674  33.1698227  17.8923416  34.9814010  25.6352186  15.5751669
  35.7708097  25.2505469  15.1942611  34.2904639  25.4401922  14.9420762
  82.6836070   0.8885790  91.0375578  83.4010424   0.5840899  90.4818562
  83.0026075   1.7096974  91.4120409  16.2669039  72.2964573  36.5900993
  15.6452775  72.3540974  35.8645034  16.6611767  73.1674004  36.6374683
  24.6938205  49.9797153  28.7014222  24.6172833  50.6693554  28.0420494
  25.3185439  49.3586206  28.3269954  16.8334496  56.3910437  39.3867254
  17.5936258  56.9111347  39.6472478  16.1635685  56.6038704  40.0364923
  34.5930696  59.3796206  47.1863461  34.4565654  60.2808905  47.4784231
  35.5433846  59.2655563  47.1975231 111.0291822  68.6002684  18.3053017
 110.3334108  68.4700537  18.9496458 110.6033657  68.4552431  17.4603868
  32.7742195  29.5098329  13.7071824  32.2947788  28.7338686  13.9974380
  32.1014285  30.0842261  13.3415914  49.9772413 103.4756143  83.2250619
  49.1702898 103.3870275  82.7178997  50.6304307 103.7638051  82.5874710
  48.3019829  73.4394217  32.9622030  47.5883245  73.1216049  33.5153008
  48.7612867  74.0782070  33.5073876  85.8291814  88.5557842  33.4200859
  85.8010480  89.4952106  33.2386541  86.3672706  88.4800434  34.2080927
  89.4576666  23.0838871  23.5376406  89.7130653  22.3372769  24.0794683
  89.0910336  22.6907659  22.7456379  99.4881197  17.1806837  83.9051187
 100.1446124  16.4894081  83.8191921  99.9789425  17.9391362  84.2214632
  18.6674154  23.6982918  63.2489538  18.9159822  24.6194935  63.3253384
  19.0467823  23.2828426  64.0233660  25.9384179  52.0191526  54.3782282
  26.2291956  51.2025499  53.9722204  25.0863981  51.8070030  54.7593880
  56.1894321  24.0538120  32.8882074  55.3947163  24.5790648  32.7945924
  56.8332243  24.6574616  33.2588458  76.0106158   2.8486849  77.2800255
  75.4180216   2.1137453  77.1221387  76.4347021   3.0001379  76.4353681
  15.5588877  54.2392159  41.8969107  16.1406672  54.9992514  41.9076157
  16.1378777  53.4922361  42.0486403  44.0717793  13.7254655  32.0547581
  43.3178854  14.1856229  31.6858053  44.5759249  13.4417486  31.2921476
  18.6642611  26.0229731  34.6586299  18.3407354  25.2016401  35.0287342
  17.9464841  26.3370514  34.1087365  27.1575618  60.4694176  11.7709064
  27.5025320  61.0209799  11.0687613  26.3107729  60.1663399  11.4433050
  34.0473270  54.1668940  26.7188716  34.9026680  53.8469124  26.4321041
  34.0771484  55.1095676  26.5554309  11.8675256  75.2393007  36.6771483
  12.0973694  74.3137169  36.5952849  12.0961380  75.6188107  35.8286548
  48.9004464  89.6707113  90.2484626  48.4515961  90.4150016  89.8474665
  48.3225341  89.3981559  90.9611788  13.2926655  63.8675594  12.2918665
  13.2263243  63.8922071  11.3372874  14.1320586  64.2853451  12.4844897
  30.7106018  26.6567087   2.8142437  30.8634067  25.9525108   2.1841753
  30.0624490  26.2988210   3.4209126  94.9853024  55.4238319   1.1205935
  95.2725288  55.9793901   1.8452215  94.3909606  54.7915363   1.5245642
  28.8203406  30.5318928  12.7859664  29.4937634  30.5945349  13.4633195
  29.1594458  31.0579157  12.0617151  49.3582555  27.3469092  79.3061042
  48.7308022  27.5313689  80.0050402  48.9542290  27.7121951  78.5189831
  34.0009308  13.0426776   9.6446097  34.9286318  13.2718611   9.7000706
  33.9060974  12.2861636  10.2233350   6.6271806  57.6049328  68.3088493
   5.9683591  57.1539211  67.7808619   7.3597354  56.9904661  68.3538723
  76.8007202 103.9374311  84.9856406  76.1827894 103.2072837  84.9499667
  76.4805456 104.4874580  85.7006162  27.7037716  39.3487525   4.8602828
  27.8149271  38.4171438   5.0499701  27.1016026  39.3715692   4.1165739
   6.6886973  37.9818010  51.2646770   6.6228390  38.5039377  50.4651356
   7.6105785  37.7281737  51.3098526  41.5295506  50.2577066  23.3477950
  41.4273024  50.9920740  22.7424169  42.1011305  49.6443558  22.8859234
   8.1245822  44.3726063  81.3837433   8.8868928  44.9271441  81.2176037
   8.3614808  43.5224724  81.0130787  14.4134319  44.5434093  15.2703595
  15.0616169  43.8420486  15.3350556  14.2448783  44.7981930  16.1775017
  25.1836467  27.1691513   3.7597096  25.3316045  28.1128407   3.6981645
  25.7055306  26.8935347   4.5133042 109.0129393  49.0397453   0.5206726
 108.3955565  48.6108923   1.1132577 109.6882343  48.3805847   0.3603121
  95.0756571  32.4367905  47.4349356  95.5639169  32.3304415  46.6185284
  95.3787479  31.7187023  47.9905605  26.7248082  72.9639959  65.0865650
  25.8834887  73.2354116  65.4536390  27.0462561  72.2962952  65.6924295
  19.6068490  61.4835358  13.3371365  19.0799356  62.0553970  12.7789557
  20.4160070  61.3471413  12.8442979  11.0986185  62.3496246  28.4439111
  11.8089235  62.7833509  28.9167571  10.9476840  61.5387249  28.9295983
  14.9057817  64.8853159  56.7779493  15.6823957  64.7376537  56.2382317
  15.2517736  65.0550652  57.6541376  25.1483917  36.3883519   2.0666924
  24.7020388  36.5669203   2.8944087  25.2377629  37.2467613   1.6527168
  48.4566259  46.8022728  15.9301651  47.5261068  46.7535782  15.7110882
  48.8783741  47.0914793  15.1210153   5.3976303  52.5289679  54.2730474
   5.9230715  52.0969725  54.9464846   6.0407674  52.9055977  53.6724138
  21.9539309  56.5328121   8.7059343  21.6092229  57.2705364   9.2090935
  21.1774969  56.0386801   8.4428567  10.0305283  66.5264893  14.2041302
   9.8239833  65.9784222  13.4470356  10.9844911  66.4894438  14.2735112
  24.6185422  61.2479448   9.8637664  24.3064809  60.5576229  10.4488337
  24.8618817  60.7887650   9.0599179   1.2684281  73.3336592  23.4110618
   0.9400906  73.3347797  24.3101859   0.5119277  73.0845499  22.8801346
  31.4275265  83.1279469  29.2448115  31.0325789  83.4769440  30.0438380
  30.6888199  82.7823353  28.7437081  86.2466998  95.5170686  89.5838030
  86.2779518  95.5611522  88.6281294  86.2942024  96.4300687  89.8673667
  40.6700958  89.8377616  81.1350262  40.9783103  89.3320758  80.3830159
  39.8769410  89.3839533  81.4199734  27.6177192  58.6923552  29.0893960
  26.6756272  58.5231924  29.0803123  27.7026749  59.5915222  28.7723565
  22.4894078  57.4372147  64.3435693  23.4094913  57.5513930  64.5815635
  22.2662957  56.5626768  64.6623731  99.8375889  14.7336079  74.2482805
  99.0633365  14.6724345  73.6887968  99.5005246  15.0365950  75.0913811
  19.5773172  15.6296183  88.4461948  19.2629050  15.6837822  87.5437298
  18.9863967  16.1979367  88.9402144   5.4972726  34.3893814  24.6170568
   5.0620431  34.8526692  25.3327179   5.3464228  33.4629560  24.8046970
  41.8662453  35.7810402  21.6841078  42.4698019  36.3785648  22.1256018
  42.1437931  34.9092031  21.9653487  21.3544273  64.5021439   2.3981753
  21.6314292  65.3888893   2.1675521  20.6248546  64.3176603   1.8066354
  12.0046937  35.5858517  38.0764866  12.7929926  35.5802941  38.6194277
  11.5012479  36.3359714  38.3928609  14.6426952  47.3832703  67.9369736
  15.3477967  46.8550396  68.3111858  13.8597357  47.1113873  68.4158087
  30.9968829  84.8260975   3.6523452  31.4848757  84.0072536   3.7394699
  30.0800705  84.5548248   3.6065313   8.8835138  12.9184484   4.1377300
   8.3544451  13.5411179   3.6391309   9.7874480  13.1879485   3.9749265
 104.4543621  29.2346668   2.3882240 105.1261315  28.9051771   2.9852113
 104.5478669  28.6966848   1.6020533   9.6905816  62.8962755  39.2894745
   9.5690829  63.3581829  38.4599495   9.2598534  62.0515442  39.1585660
  29.1277374  73.9420755  90.6673725  29.8923971  74.1802223  90.1431459
  28.7282164  74.7795565  90.9023994  57.9173799 102.5488479  89.6913910
  57.5566931 103.3581025  89.3291140  57.5970836 102.5264747  90.5931348
  37.8915501  48.1675959  19.5276654  37.3850322  48.9699268  19.6538854
  37.5146389  47.5459480  20.1503420   8.9901590   0.4877688  85.1384324
   8.9092349   0.6299187  84.1953123   8.0987548   0.2947546  85.4289156
  30.9767008  21.3890910  53.1844854  30.6974983  20.5463147  53.5422659
  31.8544173  21.5222883  53.5424042  27.4301338  35.0373983   2.5036934
  26.6476870  35.4718041   2.1641390  27.1378875  34.1517663   2.7192837
 100.0146838  48.2110621  71.2491274 100.5089851  47.6026656  71.7984486
  99.3184897  48.5371615  71.8193984  35.5509591  21.6834211  35.6170154
  35.5271721  20.7270217  35.6480360  34.6586132  21.9524026  35.8351874
  87.9494580   8.0493809  76.3317645  87.8494247   8.1691815  75.3873742
  88.4940334   8.7856699  76.6102433  86.3906845  12.8901841  79.2241669
  86.9749781  13.5637785  79.5721650  86.9092961  12.4467970  78.5528362
  33.8689327  30.0597906  55.6107044  33.8362908  30.2876949  54.6816063
  34.0469885  30.8889437  56.0545921 104.9825355   4.8413390  28.6929703
 104.3545595   4.8583707  29.4151783 104.4429937   4.9049515  27.9048824
  49.9025249  35.0117373  38.2400942  50.3901863  34.6953988  37.4796057
  49.3406057  35.7045770  37.8930330  19.8553050  36.5762138  25.1140451
  20.4641032  36.0471058  24.5986414  20.4161835  37.0821524  25.7019854
   1.9705315  25.2115679   5.2383918   1.9750915  25.8467627   5.9544480
   1.4105833  25.6074643   4.5705941  31.1764765  40.2583647  50.3951645
  31.7969799  39.5487881  50.2287149  31.4509344  40.9599781  49.8046970
  15.3306222  84.2762661  14.1097343  16.2394118  84.2365551  13.8118160
  14.8824978  83.5994053  13.6025071  16.6235101  50.6501627  37.1701002
  16.2298179  50.4599047  38.0215955  16.6051829  51.6050196  37.1057343
  76.2661714  17.9756428  90.0707815  76.0114665  17.1741511  90.5279142
  76.6815024  17.6697947  89.2644376  71.7784371  22.6318480  83.2951730
  72.3867398  22.3878409  83.9927840  70.9497365  22.2240235  83.5465008
  90.5008361  42.2988796   9.9631810  90.4104635  41.3833809  10.2276266
  91.3320729  42.3304510   9.4895989   3.0567592  47.9626131  53.7284517
   2.5779432  48.7166500  53.3843660   2.5628528  47.6992702  54.5049429
  73.2458353  47.6262712   1.9363305  73.2427168  47.7033186   2.8904194
  74.1727400  47.5733995   1.7033404 111.0122860  54.0937185  26.8272972
 111.9163983  53.9603424  26.5426517 110.4913639  53.5578012  26.2292504
  43.8673343  88.2880266  85.4879862  43.8915868  87.5818331  86.1336911
  43.9238723  87.8419669  84.6429616  95.4400583   5.4502179  79.7715569
  94.5843168   5.4771925  80.1995862  95.9906884   6.0275914  80.3004074
  43.2755709  37.9492068  10.4591322  43.0722237  38.3106303   9.5964301
  43.2288122  37.0007825  10.3385651  29.1454554  71.0128403  49.8789644
  29.3096757  70.3499937  49.2082214  30.0077295  71.3848448  50.0642538
  16.6864014  24.5689774  55.6713438  16.7516732  23.7194419  56.1075306
  15.7590461  24.7984099  55.7313633  28.0751713  97.4402006  84.6420830
  27.4438591  97.9283435  84.1135055  28.8654532  97.9801566  84.6305853
  20.1955533  41.8243361   3.6489558  20.8450627  42.5236559   3.5759819
  19.3623233  42.2491217   3.4451950  27.3089290  18.8961589  27.0788622
  26.9126177  19.6991086  26.7405725  28.2148170  18.9281917  26.7713356
  23.8112855  68.3904266  19.5765793  23.0624962  68.7995100  20.0103974
  24.4605732  69.0904617  19.5086861  91.0707303  19.8980690  83.2240635
  91.7415758  19.2394472  83.0440181  91.1072668  20.4889847  82.4719232
  17.6724827  27.0946932   5.6588095  18.1686974  27.8136206   5.2674705
  17.6031220  26.4436078   4.9605912  21.2811041  59.4538641  30.7426000
  20.5108142  60.0208807  30.7797599  21.7949295  59.7955227  30.0108314
  10.9731245  64.5768976   6.4688796  10.4353237  65.2845478   6.8241751
  10.5857468  63.7784433   6.8275452 109.3267739  23.3385110  24.9395800
 108.8307279  22.5239134  24.8583484 110.2432694  23.0623984  24.9341369
   2.7613190  60.4688692  32.0732641   3.0630085  59.5931053  31.8319154
   2.0420828  60.6496668  31.4680815  32.4161983  81.4667320  37.7129245
  32.4215627  80.5190277  37.5785565  31.5024233  81.6760349  37.9064178
   5.2088392  62.1733427   7.8244036   5.1375967  61.4919281   7.1559536
   4.7775578  62.9349804   7.4369299  79.2965057  13.0006768  67.6119065
  78.8306951  13.7246872  67.1935058  80.0126501  13.4202839  68.0886626
  34.0059257  53.8492250   8.1074876  34.7473955  53.5629034   7.5741261
  33.6419415  54.5952463   7.6308364  25.4122472  72.5663328   8.4423774
  25.9024763  73.2652473   8.8752991  24.4946814  72.8198385   8.5425657
  48.9013958  75.3781939   7.4505341  48.8994646  76.1790800   7.9747504
  49.7894955  75.3252125   7.0974058  18.6105633  40.8204269  63.9097881
  18.6457479  40.4197311  63.0412006  18.5993981  40.0791311  64.5152521
  19.3556535  97.2238350  33.0329204  18.9114523  97.0930958  33.8706708
  18.8402951  96.7154694  32.4066639  62.2698922  90.0795324  71.3737524
  61.7390914  89.6220596  72.0258272  61.6394277  90.3776486  70.7181048
  13.8550162  36.0488248   4.2538521  14.0078676  35.5966997   5.0835812
  14.0056729  35.3803396   3.5855260 102.9421690  74.4147015  31.4155412
 103.1838420  73.6667585  31.9618130 103.0744746  74.1086483  30.5182910
   0.4979251  62.4287319   1.9345081   1.1911345  61.7767334   1.8315980
  -0.1394748  62.2099638   1.2547326  28.6780357  31.6029716  17.3626709
  28.1661034  31.2872815  18.1073177  29.4743466  31.9617414  17.7543402
  35.4768777  68.5176277  28.4498262  35.8811545  68.1724882  29.2458606
  34.9212027  69.2348003  28.7549734  18.0412591  43.3101988   1.9947183
  18.0664289  42.7563715   1.2144173  17.4137855  42.8786373   2.5745982
  32.8730392  22.7117252   5.0692695  33.3892846  23.5168910   5.0314838
  33.2490373  22.2201800   5.7995027  48.3629485  74.3293197  85.2665484
  48.3638366  75.1923139  85.6806415  49.1378374  74.3325002  84.7046149
  42.6972628  63.8737202   9.9800438  43.0268478  64.7564173   9.8113537
  43.3862925  63.2945061   9.6545017 102.9064301  44.6112633  11.6269481
 102.5971606  44.1339350  10.8570480 103.8605449  44.5941019  11.5520978
  55.4495716  21.5044737  32.0707226  56.0326862  21.2398958  32.7822018
  55.4855442  22.4609876  32.0747042  46.0534954  39.4750333   2.5780499
  45.8926821  40.3771114   2.8548539  45.4485512  39.3366694   1.8492633
  30.5057597  59.1314411  33.3954692  31.0194468  58.4281921  32.9982305
  30.0497150  58.7121534  34.1251612   4.8564100  66.4868069  25.2645230
   4.2475578  65.7516098  25.1937127   5.6792504  66.1514997  24.9085283
  15.7826984  18.4232223  12.2719550  16.0916555  19.0839887  11.6521454
  16.5700018  17.9360259  12.5149024  23.5269713  21.4956570   0.0736860
  23.2095242  20.6218266   0.3014524  24.4806004  21.4132833   0.0802077
   2.4893518  57.6714516  26.4688325   2.5286001  57.6430702  25.5128574
   3.3215088  58.0650854  26.7311287  78.8816734  77.5833804  89.1020723
  78.5653301  77.2543104  88.2607219  79.7862001  77.8461296  88.9316985
  26.7114615  63.7263584  16.3409829  26.0055542  64.3644571  16.4446783
  27.4298525  64.2250490  15.9518075  28.1252766  43.3517694  17.2243559
  27.6600266  43.1947136  18.0460048  28.9802265  43.6876059  17.4936306
  30.7342482  72.2612906  21.4977813  31.2539220  73.0316687  21.7273140
  31.3735962  71.6317272  21.1644483  27.6157594  49.7351027  48.6966228
  27.0520711  49.6065903  47.9337549  27.7672935  48.8522053  49.0339088
 108.4124213  92.1645164  -0.1192044 109.3041602  92.2240639  -0.4619697
 108.4498972  92.6137733   0.7251907  93.0063471  17.7222645   1.9303203
  93.8747618  17.6169288   2.3188986  92.7296183  18.5990906   2.1964584
  27.1764231  70.3003693  13.1863809  26.4725137  69.8063469  12.7660394
  26.7550659  70.7328463  13.9291143  15.3886163  59.1433287  47.9646730
  14.6656275  58.9586210  48.5641718  15.9291065  59.7812796  48.4306335
  89.4568178  52.7279663  63.3266497  89.7292086  52.1014023  62.6562405
  90.1115748  52.6376915  64.0190172  33.2756329  52.5345707  42.2764683
  33.9447117  51.9843912  41.8692064  33.3604336  52.3604965  43.2138777
  77.4599553   4.0337485  49.3320704  78.3826209   4.2785186  49.2613220
  76.9962002   4.6978206  48.8219976  50.0243767  81.1678321  83.7200642
  49.0812428  81.3119752  83.6428988  50.3896923  81.5372093  82.9161137
  26.7669916  41.6297483  32.2387242  27.4890423  42.1375370  32.6088953
  27.0629525  40.7208347  32.2889066  11.9000292  41.2111187  18.6510861
  11.7687368  40.3032398  18.9244831  11.9151735  41.1734629  17.6947474
  19.3899770  80.8174307  87.4421960  19.5835932  79.9088318  87.6728284
  18.4353156  80.8759291  87.4800399  83.1075909  10.7655503  66.2384176
  82.1633484  10.6141306  66.1970496  83.1938764  11.7131735  66.3423443
 102.3730686  58.7081575  54.3180418 102.5178018  58.8540268  55.2529240
 101.4989659  59.0616179  54.1529846  55.3319168  51.4560270  16.0853159
  55.3812170  51.8930721  15.2351427  54.3983269  51.4474106  16.2964141
  27.2764230  60.7967186   3.3632067  27.5668931  60.0712776   3.9160115
  28.0205393  60.9716749   2.7870885 106.9692630  36.5828276  31.9719744
 107.4901202  36.0277510  32.5523424 106.5462890  35.9700394  31.3704634
  46.3979292  22.0453668  40.8129549  46.2257576  21.6076565  41.6466188
  46.4398718  21.3344622  40.1733541  36.9873452  56.3964939  27.6321340
  36.9349027  55.4777241  27.8954768  36.2953138  56.4982367  26.9787025
   3.4384203  92.3640537  27.1853304   3.7693954  92.9044342  26.4679170
   3.4043962  92.9571152  27.9359055  10.9373188  15.1014614   4.5492283
  10.7291615  15.9812808   4.8635823  11.7639244  14.8827279   4.9794751
  18.3100212  38.7806511   1.3370043  17.4822998  38.8279939   0.8586020
  18.5366964  37.8506899   1.3320056   7.9204887  62.0116997   5.2804208
   7.0133442  61.7077017   5.2503270   8.3490556  61.5588903   4.5541117
  51.2379122  60.9124422   6.7909890  51.8450832  61.0414696   7.5196373
  50.7411194  60.1296234   7.0289403  38.7437797  41.9346476   6.5412998
  38.0481720  41.7497444   5.9102905  39.0168428  42.8299952   6.3412434
   6.2506551  41.7826700  25.8615828   5.6307894  42.2323990  26.4358163
   5.7022315  41.2383080  25.2966642 110.9300876  35.3440762  10.7038987
 111.5852763  35.5948329  10.0526834 110.1189062  35.2516437  10.2042258
  20.7335210   0.1920230  24.6342111  20.0125098  -0.3812028  24.8945665
  20.4475808   0.5749354  23.8048434  59.1766310  69.3784237   3.0667621
  59.0921211  68.8453817   3.8573048  59.8552561  68.9398432   2.5535834
  31.6435194  29.7315311  17.2695911  31.3125968  29.8353958  18.1617427
  31.9468188  28.8244867  17.2307146   0.8934141  98.2663441  14.1133606
   0.6342046  97.4316788  13.7230015   0.4863214  98.9286232  13.5548949
   4.0153724  53.0697203  31.2025356   3.2075763  52.5617933  31.2780786
   4.5113525  52.8495646  31.9910574  19.0043962  55.8526993   9.1153163
  18.2818341  55.2531862   9.3016469  19.1551304  56.3104820   9.9423289
   5.0597227  43.8620806  49.3350220   5.6598246  44.3146229  48.7423086
   4.6505180  44.5629025  49.8426008 106.8214679  47.9798555   5.4107314
 106.3676521  48.7779570   5.6814981 106.1601642  47.4783516   4.9338591
  18.0018663  63.3058500  11.6378546  18.3396387  64.1674042  11.3931751
  17.4858963  63.0271816  10.8813167  43.6166382  17.7490973  16.6042829
  42.6742506  17.7136946  16.4403009  43.9079475  16.8408132  16.5243411
  18.6819160  60.2647066  40.5709887  19.1103852  60.4093504  39.7273540
  19.3202925  60.5641794  41.2183094  92.3335227  16.8481137  91.3074096
  92.2458061  16.8784834  90.3547209  93.1385347  17.3329522  91.4893922
  13.8035572  54.7691298  10.7264042  13.7170720  54.5179987  11.6460156
  12.9992533  55.2507019  10.5329704  85.6807324  14.4799496  90.6742222
  86.3244554  14.6934773  91.3496927  85.9444734  15.0039221  89.9178335
  60.8416791  90.2744729  89.9039358  59.9325438  90.2827461  90.2033293
  61.0689016  91.1987765  89.8026246  56.2492514  52.9579258  22.6211596
  56.6317177  52.0806026  22.6372886  56.5749979  53.3463287  21.8092108
  46.2748350  81.1740429  69.7935271  47.0920970  80.6991537  69.9445105
  46.3279094  81.4580161  68.8809633   6.0302752  32.3177242  16.9752848
   6.4720803  33.0912280  16.6249514   6.6137570  31.5902829  16.7593956
  24.5084929  70.0681400  25.6914043  23.7797737  70.3532887  25.1401424
  25.2506018  69.9994373  25.0907493  32.0847678  33.7707543  28.8680434
  31.8482709  34.6886611  29.0012693  31.2459874  33.3160400  28.7911439
  63.8063832  77.4184687  77.9291880  63.6420699  78.2695658  78.3352268
  62.9359765  77.0395119  77.8066623  88.8442548  24.2551829  89.1798662
  89.3814775  23.5119463  89.4541356  88.0588373  24.1966797  89.7238588
 111.7485667  77.3963356  31.3463974 112.3814225  77.9482460  30.8869219
 111.0707718  78.0041838  31.6419387 111.7300848  65.1702213   5.4659009
 111.8578248  65.6291151   4.6356401 111.0976857  64.4807339   5.2636474
 110.2608038  41.4954710   5.5914342 110.9038263  40.7872438   5.6256098
 109.4501692  41.0697174   5.3124404  29.5451689  37.9694080  39.2714024
  28.9914632  38.2111931  40.0138187  30.0875807  38.7425017  39.1153646
  10.8101034  56.5837765  27.1354675  10.3473032  57.4144363  27.0256829
  10.1468837  55.9154701  26.9630075  22.3916292  78.8378811  60.2854824
  23.1265473  78.2577133  60.4843092  21.8477559  78.8139153  61.0727930
  28.3860779  59.6072865  42.9224682  29.1631484  59.5067549  43.4722757
  27.7765870  60.1136112  43.4594870 110.2290007  89.2267459   7.0339853
 110.1823326  89.3725866   6.0891128 110.9520956  88.6095780   7.1456480
  89.0057468  40.2887917  16.9740593  88.2559967  40.6515789  16.5023673
  88.6572456  39.5171499  17.4205458  30.4732466  53.4544992  34.4834781
  30.2803612  54.1601276  35.1008224  31.1141562  53.8319206  33.8809657
  78.7868559   7.4822213  86.4567760  78.2473221   6.8381430  85.9981954
  79.6800449   7.2960593  86.1673123  29.4728565  83.9939308   6.8973452
  28.7355280  84.0701389   6.2917286  29.8198223  83.1153011   6.7429179
 106.7642412  73.5603762  50.1842308 106.1191139  74.0498161  50.6946135
 107.0594338  74.1783714  49.5155191 106.6509410  72.6217867  83.4878033
 107.0935627  73.1059767  82.7907532 106.7487093  71.7023684  83.2401365
  96.9442316   0.3575303  91.2836305  97.5206824   1.1097075  91.4184218
  97.4009081  -0.1815151  90.6377931  40.1675320  94.2656040   6.0058647
  40.4258299  93.5659122   5.4059148  39.2578030  94.4546318   5.7758784
  24.8626757  67.7000856  39.5775771  25.8178854  67.7197647  39.6360755
  24.6739769  67.9207325  38.6654711  79.6178713  56.4298941  75.0127852
  80.1605704  55.6422545  75.0492334  80.2236106  57.1470000  75.2000666
  81.3588329  93.6855323  81.7492086  80.7486339  93.1520946  82.2584581
  82.2198673  93.3145244  81.9420940  16.2895488   3.3601405  88.5586056
  17.0498466   3.8249136  88.9081329  16.4357614   3.3389164  87.6128760
 102.8533849  78.0188227  22.6850390 102.9204682  78.4395647  23.5421896
 102.0268497  78.3400011  22.3246026  14.2686784  69.6748352   6.0208780
  13.8791573  70.2071333   6.7145377  13.8065791  68.8381815   6.0729080
  43.2095718  88.7518597  13.5513639  42.9994106  89.6753788  13.4128726
  42.9554605  88.3232307  12.7340937  53.8327312  24.8343682   6.5545481
  54.4101429  24.8314643   5.7911229  54.2664385  25.4141021   7.1806794
  29.2882967  84.2105484  16.3536823  29.3903613  84.7474098  15.5678070
  29.4659472  84.8103333  17.0782089  35.2595663  48.6573315  38.3062267
  34.4781971  48.8506699  38.8242197  35.6373620  47.8826761  38.7226582
  13.9865243  76.8000841  34.3568206  13.9524603  77.3192835  33.5533881
  13.0757523  76.5577888  34.5242095  60.9081793  67.6675081   6.8762684
  61.4851236  67.6983070   6.1131048  60.0247002  67.7116585   6.5105563
  46.1579561  32.1022511  31.8168378  46.8903351  31.8419671  32.3755002
  45.3856945  32.0064211  32.3742104   1.8807177  72.7815866  10.8015525
   2.3633119  72.4231815  11.5464556   2.2944556  72.3849678  10.0349057
  32.7119517  76.3850784   1.4122388  31.8264103  76.5872431   1.1102782
  32.8426504  75.4673243   1.1737499  35.8489084  89.5034409  40.5245686
  36.4338350  90.1767159  40.1770210  35.9394240  89.5748043  41.4748049
  26.8441033  48.6635637  27.2320604  26.9914412  49.5719671  26.9687438
  27.7149940  48.2665253  27.2202945  46.8781853  49.9746847  11.5891361
  46.9944096  49.0339708  11.7224824  45.9322262  50.1095390  11.6456914
  29.7249103  90.0256062  33.9603162  30.5841637  89.9723721  33.5418892
  29.2719030  90.7248116  33.4890056  27.7823782  82.6033115  11.0595715
  27.4543238  81.9998550  11.7262518  27.1269798  82.5696850  10.3627527
  89.2665442  13.3495165  84.8258179  89.4310483  12.4826218  85.1968396
  90.0767370  13.8346554  84.9822098   6.0956144  55.0761604   3.2619938
   5.2637976  54.6029854   3.2824752   6.4255387  55.0195026   4.1587502
  29.7964120  23.8402033  23.3176327  30.7209706  23.8429546  23.5654569
  29.4918680  22.9600239  23.5384679  15.9282815  77.9945421  20.7053709
  15.9947968  78.6954546  20.0568867  15.0200844  78.0312920  21.0054708
  45.3389324 102.3363597  80.3563428  44.4705398 102.0595844  80.6487834
  45.2411993 103.2691295  80.1649785   1.9729470   7.6894022  78.5935652
   2.7813720   7.5651862  79.0908110   1.5987896   6.8113161  78.5214555
  39.5409322  80.9690762  23.2918549  40.2436304  81.0461998  22.6464891
  39.6912956  81.6948605  23.8975501  19.3881464  84.2140198  34.4857478
  19.4537175  83.9719009  35.4094982  18.4550869  84.3757343  34.3461823
  22.2607279  80.7703781   4.8337287  22.5571156  80.3857231   4.0088469
  21.3360810  80.5297279   4.8916399  25.3194769  86.7301733  87.8525141
  25.6995542  86.6148288  88.7234151  24.4608386  87.1204884  88.0156884
  34.4075847  51.3947344  13.8687873  34.1321087  51.2582588  12.9622996
  34.1930556  50.5731392  14.3105888  14.3152487  87.8003597  42.5210810
  14.8557353  88.1815338  41.8291187  13.5624933  88.3878231  42.5880337
   3.9651743  97.4327660   7.9490685   4.0856531  98.3628750   7.7577162
   4.4023585  96.9811344   7.2271752  49.7100210  74.0009212  20.1186967
  49.8458529  74.6756887  19.4535124  48.7619925  73.9807987  20.2493525
  22.0295072  34.4449639   2.9499534  21.5863180  35.2878594   3.0465996
  22.7339125  34.4690824   3.5976136  81.2314701  63.9721441  10.2034664
  81.0991192  63.0981684  10.5707252  80.3962231  64.1863203   9.7878772
  23.1441855  42.5249052   6.2736338  23.4710145  43.0475473   7.0059317
  22.5022960  43.0900383   5.8437097   9.1394883  52.5736904  35.3168297
   9.6672553  53.3720732  35.3334522   8.8468987  52.4611139  36.2212348
 102.0517769  24.6453094  19.0626192 101.1681923  24.9929667  19.1836345
 102.1785387  24.0506887  19.8019361 101.9059494  49.7924519  22.4261951
 101.4678487  50.6422138  22.3792315 102.6731697  49.9486399  22.9768419
 106.1034486  54.0306139  14.6838331 106.2107661  53.2644653  14.1201520
 105.1566187  54.1140270  14.7969115  10.5082917  65.7412958  50.3311348
   9.6015429  66.0249710  50.4476023  10.9831393  66.1549711  51.0519886
  42.8508759  84.0916157  26.5519452  43.6052084  83.9341164  27.1197557
  43.0634117  83.6335659  25.7387757   0.1808742  95.2156448   7.5924468
   0.7505800  95.8869934   7.9678917  -0.0025439  95.5257416   6.7056376
  45.7327080  41.5247726  33.6654139  45.0845623  40.8692455  33.9231467
  45.9994745  41.9343281  34.4884181   6.7795943  27.1715237  89.4782735
   6.4442872  26.9337870  88.6138189   6.0229158  27.0914389  90.0590093
  63.7407966  66.6399248  91.0214322  63.7726541  67.1532233  91.8287368
  64.0836449  67.2290070  90.3493697  12.3553848  58.2737827   2.0424546
  12.4617195  57.7831316   1.2274784  11.6152406  57.8533983   2.4802837
  46.7279196  79.7152948   5.7741719  47.3971415  79.5869160   6.4464015
  46.0725069  80.2737427   6.1922580  59.7935958  91.0973914  79.0342128
  59.4503780  90.7668002  78.2040668  59.0152307  91.3417609  79.5348763
   7.6991343  49.1309309  72.1960402   8.5032684  49.3302584  71.7165947
   7.9552662  48.4538746  72.8223228  83.1087299 102.7721460  89.5374304
  82.8305955 102.9522188  90.4354544  84.0576692 102.6622875  89.5980683
  70.8411403 100.5511005  73.9204609  70.1289268  99.9488742  74.1356516
  70.6693812 100.8115632  73.0155373 111.8426975  67.9209232  35.2373719
 112.3017645  67.6605701  36.0359359 110.9725583  67.5314808  35.3235245
  37.7324009  69.0611267  24.3996429  38.2059479  68.2298231  24.3693686
  38.0084300  69.5229816  23.6079812 111.1951181  14.6054341  82.7895093
 110.8793589  14.9056269  81.9372112 111.3277050  15.4090144  83.2924122
  68.7395954  55.4151011   1.3107653  68.1047535  56.0809040   1.0463610
  68.2084703  54.7151136   1.6904400  35.2231622  51.8729305  27.8666687
  35.2594495  52.1173000  26.9418979  34.3036270  51.6566896  28.0213571
  87.0119854  18.3282877  81.2037969  87.1974119  18.1882645  80.2752268
  86.9258150  19.2776657  81.2903291  18.0682957  74.4266129  47.7888775
  17.9283094  75.1907158  47.2296095  18.1166089  73.6896992  47.1798992
  63.1619187  92.8949554  75.4581594  63.8873835  92.6618392  76.0374629
  62.9843564  93.8147361  75.6548965  41.3474614   6.3927287  14.7843730
  41.2430794   7.3358172  14.6582150  41.9592563   6.1255759  14.0983903
  36.6578078  67.5011969  11.0012007  36.3255501  67.5543451  10.1050925
  37.5250030  67.9042578  10.9594107 111.8034359  26.7698695  76.0612476
 111.3420244  27.3170973  76.6967618 111.2938782  26.8568636  75.2556324
  40.3162432  78.7262869  29.3120575  39.9225903  79.5966434  29.2508125
  39.5709968  78.1319475  29.3992352  45.4480457  65.4635477   7.3582178
  45.2753973  64.5371151   7.1904588  44.5890760  65.8817863   7.2991610
   7.0828008  17.1475865  77.1403563   6.4250659  17.7353884  77.5119781
   7.9137325  17.6041914  77.2718811  92.4651910   6.5584201  16.6055870
  91.8284989   6.4150065  17.3057866  91.9450570   6.5436477  15.8021748
  60.6628036  35.1894903  31.1136079  61.1423779  35.6908274  30.4541349
  60.6659842  35.7499075  31.8895960  25.4539251  77.9713917  21.0314107
  24.5079303  77.9869938  20.8862090  25.5502796  77.9818487  21.9836903
 104.7825149  61.1773014   4.3265837 105.6623927  61.4990044   4.5229334
 104.8527589  60.2257633   4.4032198  73.3215714  40.6571223  86.3390654
  73.5791823  40.8877207  85.4464906  73.2472769  41.4973380  86.7915553
   0.7767367  21.0062863  68.3106232   0.3505086  21.8384816  68.5156012
   1.7116951  21.2113215  68.3038712  20.3527141  90.6282997  22.0954561
  19.8056936  91.4113617  22.1572042  19.7292864  89.9028397  22.0597076
  27.4084163  81.5527058  44.9896336  27.5993752  82.0726204  44.2089558
  26.4647317  81.6498184  45.1171446  39.4340825  39.3663049   5.8129895
  39.1191196  40.1926422   6.1793190  39.6746922  38.8419604   6.5767980
  10.9535027  71.8531132  49.7311831  11.2850296  72.0398474  48.8528585
  11.0107315  70.9009933  49.8113823  31.8732500  94.6571541  23.4575891
  31.9141746  93.7036514  23.5310912  32.6781583  94.9642944  23.8747406
  30.8828063  78.4013731  81.8248254  30.8576788  79.3314369  82.0497328
  30.3971930  77.9715092  82.5288337  22.5193715  97.4971199  13.4173334
  22.8578091  96.6783237  13.0550265  21.5736246  97.3609638  13.4743905
  29.4118738  74.4946098  14.0860653  29.3704247  73.8492250  13.3803809
  29.7141957  73.9985704  14.8468399  16.2806034  48.3669043  17.2145092
  17.0327437  48.8001108  16.8109643  16.4466369  47.4325895  17.0891011
  26.4460206  72.9929590  19.2508769  27.2454453  73.3207893  19.6627986
  26.6330075  73.0168390  18.3124220  48.4792185  90.9650517  29.7576499
  48.4743881  90.0079918  29.7731304  48.2128477  91.1915302  28.8665891
  44.2769241  80.0301170  25.7896900  45.0083065  80.0399494  26.4071155
  43.7767315  80.8191109  25.9983253  15.3966355  60.3143692  45.3137541
  15.5759668  59.7628593  46.0752726  15.3587067  59.7025824  44.5785570
  37.4905157  77.1777105   2.0790212  37.6468349  77.5640726   2.9407167
  37.9970670  76.3655567   2.0852213 105.7692233  83.9900780   8.9154422
 105.8312687  84.7073269   8.2846230 106.2912378  84.2824173   9.6626163
 103.1755825  16.8739916  86.6350389 102.7221247  16.7660595  87.4710757
 102.8015872  17.6717497  86.2609535  35.2155352  92.1197128   8.6540616
  35.6874180  92.7974606   8.1700915  34.4199634  92.5545502   8.9610064
  49.3165970  55.7747459  30.2215385  49.1696930  54.8347759  30.3269529
  48.8704300  56.1722374  30.9693098  78.7341452  24.1086692  17.1897447
  77.9081441  23.8500041  17.5984597  78.6204100  25.0371093  16.9865429
  58.7776327  83.9265347  31.3627982  59.5969009  84.3470860  31.6238809
  58.7195063  83.1494904  31.9187307  33.6141086  97.3121357   8.9634728
  34.1826558  97.6572227   9.6518749  32.7279639  97.5274467   9.2543691
  20.5947542  47.5382662   6.7717040  21.3298726  47.9008722   6.2773842
  20.0969863  47.0358419   6.1267006  17.4996233  81.8295765  23.9423537
  17.9136193  82.4813080  23.3765936  18.2201958  81.4680576  24.4584107
  24.3770099  81.9612980  26.2765026  23.6140919  82.1157360  26.8335819
  24.9074984  82.7522850  26.3721824  70.8237743  76.3373137  15.8842778
  70.2161074  75.7447004  15.4418099  70.5699539  77.2095966  15.5827200
  92.1729394  13.0200983  85.7623583  91.8762668  12.1330620  85.5589306
  92.9023322  12.8953625  86.3695312  28.7579918  74.1523981   3.7935001
  28.4232736  73.4042025   3.2991379  28.1377435  74.8578596   3.6095113
  18.1257987  75.8454561   7.9353493  17.5486386  75.0970364   8.0869633
  17.7339327  76.5566540   8.4421778  97.3426768  54.5714903  16.6043007
  98.0105683  54.2702675  17.2202706  97.3327681  55.5229902  16.7081523
  26.0805273  18.2682121  41.1194992  25.3851366  18.1311417  41.7628288
  25.9419775  17.5816309  40.4670858  10.5081654  67.3775148  22.0028758
  10.9144676  67.6809454  21.1910391  10.6015372  66.4252567  21.9760847
  54.4260216  44.1566467  12.1970177  54.5977068  44.1023731  11.2569058
  53.6151409  43.6634302  12.3212731  38.5775089  59.0794230  27.0775270
  38.8538980  59.6365404  27.8051662  37.6331806  59.2216110  27.0122814
  46.7717075  99.5045567  18.1037748  47.3956871 100.2083778  18.2813072
  46.7363739  99.0044594  18.9191842  32.3822117  30.5723691  46.4008141
  31.4874554  30.9089780  46.4491415  32.2844696  29.6786332  46.0723162
  62.5212431  50.6356621  33.1137371  61.8725443  51.3389254  33.0847621
  63.3537436  51.0837460  33.2634068  37.2371531  78.8131762  12.0913422
  37.8320265  78.3433104  11.5068901  37.5021219  79.7299051  12.0163059
  62.0346399  61.9006057  85.2426362  61.6424318  62.5300510  84.6374887
  62.2048755  62.4064005  86.0372579  39.8255038  33.3439445   3.6044586
  39.0875769  33.8851285   3.8852030  39.6123958  32.4658632   3.9203572
  24.9470425  58.0128288  23.4439516  25.5679488  58.7397385  23.3959079
  25.4503250  57.2489262  23.1621814  57.4750900  47.0124769  24.6816587
  57.0418644  46.9069910  25.5286646  57.9653358  47.8305101  24.7636127
 111.1025248  48.3529758  52.6016998 110.7263046  48.1942987  53.4674454
 110.5212094  47.8889465  51.9992208 112.0840672  34.5698619  29.5700908
 111.7762637  35.4036999  29.2148423 111.3547834  33.9659524  29.4298387
  46.3468170  91.5681934  24.3773866  46.8468523  92.1938515  23.8532138
  46.6207743  90.7105446  24.0524054  20.8426070  37.1004725   3.4125674
  19.9673390  36.7370343   3.2782114  20.8161879  37.9544497   2.9809901
   9.0188056  41.0547686  50.0251722   8.4292728  41.6323996  50.5099630
   8.4362620  40.4651785  49.5463562  20.0036502  66.0666895  28.6805797
  20.4231501  65.3662205  29.1801763  19.1518474  66.1838627  29.1012168
  36.6591668  66.7587566  59.8520184  36.3128781  66.9124317  58.9729834
  36.7474461  65.8075094  59.9117470  36.6813874  82.7220249  20.0466156
  36.5039492  82.4918461  19.1346025  37.5658798  82.3939514  20.2087092
   1.3836643  69.9441624  21.6186380   0.9232372  69.1492414  21.8875957
   0.7685557  70.6527901  21.8076324   0.8382367  22.1885945  72.7771986
   0.8605885  22.9058339  73.4106791  -0.0814033  21.9248892  72.7463126
   5.0585407  77.1150541  61.7551517   5.8625555  76.8593264  62.2072554
   4.3652046  76.6381741  62.2113371  15.6034422  84.4793797  28.8925433
  16.1705744  83.9827824  29.4824481  14.7158170  84.2842770  29.1930223
  40.2683210  37.2567773  45.2575445  39.4053817  37.6657963  45.1922274
  40.8505917  37.8486562  44.7812366  34.8268461  53.0112505   5.2795547
  35.4274654  53.1621313   4.5496750  34.2614675  53.7835884   5.2880675
  42.9688358  83.0908012  23.9861822  42.7986479  82.2178841  23.6322308
  42.2431612  83.6255074  23.6641288  50.3504324  31.5243745  22.0975018
  50.1031160  32.3581457  22.4973702  49.5900631  30.9589219  22.2329164
  79.0675832   1.7951793  28.8943672  79.3695451   2.6361007  29.2377472
  78.2451487   1.9995994  28.4493423  15.4354072  43.0697489  22.6089454
  16.3922477  43.0545473  22.5876141  15.1720726  42.3152971  22.0819831
  18.8860714  91.2871742  38.0176449  19.5250976  91.8382263  38.4695458
  18.6978388  90.5817699  38.6366820  15.2796996  36.0846615  18.4298539
  14.7684681  36.0084534  17.6242077  15.4154122  35.1806808  18.7138128
 110.9112667  79.1005421  11.8317378 110.0894779  78.7790823  12.2026277
 111.3307664  78.3210611  11.4675057  69.7915836  96.5631158  77.0630717
  70.6647964  96.2094600  76.8937814  69.3906517  96.6360385  76.1969495
  97.1469340  40.0454760   3.2687813  97.4282250  39.9187136   4.1748926
  96.4092967  39.4450998   3.1607634  30.8290768  62.8576946  11.4232290
  30.8071899  63.3903408  12.2182393  29.9102688  62.7659559  11.1710238
  98.1918951  25.2094246  91.2240183  97.5969907  25.2984930  90.4794458
  98.3847447  26.1097838  91.4855443  43.2851483 105.4373462  89.4497703
  43.7360998 104.7648771  88.9392263  43.8166256 105.5348213  90.2398732
 100.4850242  57.1920204  45.2534151  99.5354053  57.0755529  45.2235651
 100.8379015  56.3714743  44.9093008 110.7132002  31.4610602  78.5388434
 111.3073035  31.8613554  77.9039907 110.6939455  32.0776678  79.2707324
  46.2577343  36.3449144  15.1519716  46.1399508  37.1673727  15.6272805
  46.8426132  35.8291340  15.7070589  20.8217382  78.2403326  30.1917124
  20.1974988  77.8469658  29.5819426  21.2025642  77.4961185  30.6579232
  19.8121297  42.5128317   9.2455441  19.9859118  41.7299461   8.7229371
  19.7035611  42.1855164  10.1384652  55.5385494  97.9987240  24.3212247
  55.2130032  97.5471210  25.0998831  56.2079048  97.4132538  23.9670825
  55.3757858  94.2838955  29.6392369  56.1196280  94.3381691  30.2392244
  54.6749973  94.7618771  30.0827026  15.4361176  40.2381945  14.1040504
  15.1767635  39.4327950  14.5515978  16.1514997  39.9716258  13.5266411
   2.7849352  72.0762157  27.6117921   2.4732547  72.7886248  28.1699657
   2.9775721  72.4956846  26.7732430  11.2653899  72.5553417  25.6725478
  10.7488465  73.3607388  25.6451678  10.6215334  71.8627930  25.8210778
  17.1972287  47.6298237  37.2530103  18.1033289  47.9178572  37.1423316
  16.6719139  48.3871889  36.9948053  21.9123411  64.8347521  38.7708521
  21.2507892  65.4468298  39.0932465  21.5860105  64.5585823  37.9144216
  36.7860031  59.8405647  30.2483153  37.0560932  58.9249325  30.3182817
  37.6010227  60.3370285  30.3224850  39.6623421  82.8379726  56.7373705
  39.8190308  82.1894836  57.4237680  38.7102151  82.8598976  56.6414309
  34.3582296  83.6288834  54.2791510  33.4670091  83.2950020  54.1768074
  34.7808099  83.0062294  54.8707247  29.2719102  95.4160213  45.8617926
  28.4830213  95.0191498  46.2310886  29.1391277  95.3763294  44.9146795
  36.3709736  57.2921658   1.9172193  36.6635609  57.7589941   2.6999661
  36.0954189  57.9833603   1.3150978  62.1735001  59.1250944  16.2206733
  61.4917946  59.1367149  15.5488300  62.7293587  58.3823061  15.9850502
  43.9563751  79.1015053  36.3247418  44.4577551  79.8835087  36.5556622
  43.0905056  79.4335270  36.0875392 101.9694539  46.6506220  75.2327812
 101.8625113  46.3952280  76.1490631 102.8902002  46.9019724  75.1600957
  21.0160947  55.7240486  13.3062291  20.2779531  55.6083202  12.7079093
  20.6984115  56.3457203  13.9610815  33.1530261  54.8707676  45.1038456
  32.9881811  53.9391947  45.2495241  33.9940143  55.0347805  45.5305433
  13.0214691  70.6440544  29.4537878  13.2304406  69.9801540  30.1109004
  12.9019225  70.1493549  28.6431026  29.0205526  61.5584755  14.3796015
  29.4914484  62.2965097  13.9925742  28.2018232  61.9377518  14.6990728
 108.8827586  47.1024227   3.6274493 108.1961611  47.5245953   4.1437668
 109.6961696  47.4957943   3.9434421  21.4754295  67.3273516  12.0293176
  22.0341372  68.0069399  11.6521716  22.0814753  66.7481852  12.4913847
  91.5654131  17.7195383  76.0678959  91.4678331  16.7724301  76.1663830
  90.8894213  17.9655863  75.4364455  41.1403369   3.3194519  89.9232721
  41.0319900   3.5581328  89.0026608  40.2467965   3.2174469  90.2510168
  23.9367032  71.3596249  22.6454067  24.5238161  70.6298208  22.4481344
  24.4759297  72.1408463  22.5222802  34.4934011  36.9400334  26.7524457
  33.7866974  36.3198209  26.5731716  34.4465423  37.5707579  26.0339594
  43.7764978  44.9814415  31.5327573  43.0176878  44.9020720  32.1108031
  43.8466740  45.9197617  31.3570929  12.4637866  88.1383896  28.1464100
  13.1889832  87.5713539  27.8841424  12.8845465  88.8782787  28.5843182
  63.7741037  65.7241363  86.3664776  62.9206701  65.4513664  86.7033404
  64.3149085  64.9360223  86.4178520 101.2190914  55.2194643   8.5681474
 101.4723969  54.4096088   9.0110922 100.3139400  55.0700474   8.2950103
  45.0659227  81.2018204  37.8411102  45.0491476  81.6302109  38.6969304
  45.5118227  81.8266010  37.2692227  42.5276995  80.6939888  22.9768419
  42.4945498  79.8368120  23.4015560  42.5716829  80.4962158  22.0413280
  12.9980516  20.8424307  80.7183540  13.0716275  19.9758316  81.1181355
  13.3996057  20.7428719  79.8551786   7.5764865   9.0090299  23.7673402
   7.1428436   9.5782691  23.1316113   6.9845110   8.2630461  23.8638020
   6.8263596  75.0979185  35.0907660   6.6218901  74.1755390  35.2445364
   6.8730903  75.4820633  35.9662533  20.3146648  96.7059135  17.7474880
  19.9898624  97.5610542  17.4655747  20.6078005  96.8459892  18.6478674
  27.8293037  65.8347464  37.1230388  27.8030491  66.2681246  36.2699699
  28.5604930  65.2205276  37.0572472  88.0838653  66.0781050  31.7504144
  88.1537530  65.1509476  31.9778609  88.4077689  66.5395546  32.5239658
  55.4676533  48.7306643  30.2897429  54.8354435  48.4979963  29.6097326
  55.8096266  49.5822525  30.0175786   8.9686471  73.5802078  16.0101879
   9.4338375  73.4109831  16.8294513   8.1831008  73.0359125  16.0639691
  19.8812962  28.8629389  22.7844691  20.0697231  29.7703195  22.5449061
  20.6002140  28.3599663  22.4018383  19.8325443  26.5765597  89.7641462
  20.5049419  26.1811806  89.2093563  19.8628425  26.0695149  90.5754545
  25.4690933  33.1963134  57.2400904  24.8748851  32.8899646  56.5550375
  26.3310814  32.8815269  56.9678402  24.1018224  85.5870152  45.8632755
  24.6387649  85.2958488  45.1262903  23.2782078  85.8667946  45.4637575
  28.2354188  99.0273285  52.1411037  28.3897066  99.9604893  51.9939995
  29.0737414  98.6933613  52.4603415 103.7464973   1.5468670  71.0073519
 103.1549069   0.9220292  71.4266706 103.3151814   1.7682816  70.1820183
  31.2914991  38.5134435  42.4525833  31.6647124  37.7755666  42.9347467
  31.9493651  39.2048597  42.5259924   1.2601922  51.0103607  36.0842371
   2.0248987  50.8831882  35.5227375   0.9813655  50.1238585  36.3135839
  32.6456952  32.1649194  26.5086150  32.2136807  32.6711202  27.1966219
  32.2779536  31.2851024  26.5918016  29.7262239  32.3456192   7.9898298
  30.4902077  32.1133423   7.4619979  30.0253630  33.0711555   8.5378677
  56.7782450  95.4322243   5.9717554  57.6251793  95.1334476   6.3029164
  56.5349865  96.1534023   6.5522385  44.6519043  73.0875833  42.6114845
  44.8396017  73.6458356  43.3660412  43.9195241  73.5186012  42.1709442
   8.3075356  54.4603586  11.5830350   8.4102923  54.1564322  10.6812036
   8.4616423  53.6812782  12.1173704  23.2519221  52.5376463  21.6878223
  22.7954912  51.7128754  21.8541265  24.1229320  52.2737932  21.3912535
  30.0598550  67.2022772  33.3903718  30.1848555  66.9767141  32.4685645
  30.8421826  66.8659163  33.8274717  44.2176437  75.4198217  27.5827312
  44.4161129  74.4838333  27.6102710  44.5720196  75.7152319  26.7440510
  65.8195019  52.4189091  21.9395280  65.9758759  52.4903536  22.8811646
  65.2649975  51.6441965  21.8469191  26.9098687  36.7379570   9.1641903
  27.2668552  36.8521881   8.2834274  27.5984907  37.0606971   9.7454554
  44.8071051  59.2504501  19.3636823  43.8756180  59.3447590  19.5628512
  44.8281336  58.7505150  18.5476828  37.5446010  59.1600609  47.1000481
  38.0845952  59.2259550  47.8876352  37.3650575  60.0680685  46.8560839
  15.0261307  61.5765619   6.3953358  15.4442453  62.3125696   6.8422192
  15.3643811  60.8010769   6.8430436   5.6626642  71.7622995  43.2133865
   6.1159450  72.5258493  43.5708189   4.7597790  71.8558359  43.5171652
 100.2373309  88.8484723  83.6271763 101.0158010  89.3207271  83.3318955
 100.5769391  88.1627614  84.2022419  12.3417401  64.1113424  19.5271850
  11.8522227  64.4113588  20.2930784  12.2931242  63.1563759  19.5708537
  37.0254731  64.0043783   3.5196114  37.9071140  64.2795658   3.7710273
  36.5702629  63.8702011   4.3508834  22.0710826  70.2468777   6.7266256
  22.1617842  70.9499264   6.0834074  22.2455883  69.4459963   6.2322867
  61.5203285  98.7641335   1.3313772  62.0836830  98.5698318   0.5823032
  62.0901537  99.2263508   1.9460949   3.2606214  66.3091946  11.0986972
   2.5678015  66.0125113  11.6887927   4.0481806  65.8635759  11.4107966
  20.4499602  74.6282911   7.0911843  19.7804129  75.1216650   7.5650209
  20.7792830  75.2415466   6.4341497  23.9475011  50.6984545  75.4618573
  23.3577155  49.9623228  75.2990949  24.7241544  50.5036093  74.9373806
  37.0167351  85.6902504  30.4022479  37.5561905  84.9347973  30.6357360
  36.1681247  85.3150463  30.1670480  53.2748593   5.5163116  10.9462810
  52.7839161   4.7266597  10.7190120  53.1207693   5.6326121  11.8838108
  62.9621124  91.2865448  33.0579400  63.0556965  90.6676579  33.7821317
  62.0169687  91.4076042  32.9669571  73.2653761  91.6547394  27.2645664
  72.3539925  91.4143944  27.0976901  73.5019398  91.1647797  28.0521011
  54.7516871   1.8536490   0.6739908  54.2126549   1.5440291  -0.0538880
  54.1274203   2.2461146   1.2843165 101.2564345   0.4488827  85.3511608
 101.9970175   0.1949335  84.8004520 101.5911838   0.3877236  86.2458301
  39.2049479  86.7588520   0.2455930  38.6326551  87.2294331   0.8516230
  39.9217987  87.3686028   0.0707778  14.8903167  69.3948936  11.7267680
  14.5660496  68.5210323  11.5089440  15.0955820  69.7920513  10.8803844
  69.7001982   2.8316611  13.4957182  68.8920260   3.0895156  13.0523193
  69.5485473   3.0489177  14.4155204  33.4103727  66.5658617  28.2670546
  34.3295813  66.8271017  28.3221960  32.9534936  67.3564768  27.9799581
  17.3180044  84.3552208  37.7620006  17.3694479  83.4029198  37.8438973
  16.4384246  84.5191956  37.4218798  27.0306396  75.9197998  24.7333336
  27.0239782  75.4117775  25.5445671  27.9517579  76.1417437  24.5972776
  78.2826342  10.3294445  85.3711557  78.3543506   9.4069220  85.6161863
  77.6290333  10.3414322  84.6719462  17.5256585  26.4767243  88.1202513
  17.1932363  25.7015635  88.5728550  18.1726741  26.8459584  88.7213075
  23.4112287  61.1551857  36.3610458  23.1553531  60.6194258  35.6102347
  22.8735447  60.8287764  37.0825601  60.3513432  30.1275748   7.7616447
  60.7735539  30.2063674   6.9062150  60.1936031  29.1891688   7.8653580
  29.9237466 101.2155724  24.7629714  30.0818563 100.4709816  24.1826153
  29.2937756 101.7588139  24.2894101  17.1427619  93.7445545  32.2401285
  18.0103433  93.7277031  32.6441741  17.0589232  94.6313667  31.8897271
  40.3293228  64.6490335  21.7506456  39.9607730  64.1606569  22.4867773
  39.7427940  64.4578981  21.0187459  25.4553366  78.9663410  28.9553475
  25.4634738  79.5100021  29.7431278  25.7139397  78.0970907  29.2615414
  40.4252386  96.1856747  30.5545974  40.0844717  96.0731506  29.6672153
  41.3695908  96.0564423  30.4666972  32.0307398  38.1696439   8.2610041
  32.6922822  38.8160253   8.5075480  31.2014389  38.5567474   8.5414392
  22.1163130  92.1430016  28.7236285  22.4881530  91.2765026  28.5588789
  21.2941909  91.9677353  29.1814804  77.2468996  79.5115042  18.6276400
  77.9345322  78.9312887  18.3009231  76.4740467  79.2810106  18.1120813
  97.4687596  16.7702652  80.3493559  97.1828314  16.4731289  79.4855344
  97.2576328  17.7037836  80.3635323   8.0275619  69.5858240  28.1657958
   7.5111765  68.8741970  27.7874255   8.2771230  69.2659330  29.0327573
  38.6742210  64.6546125  19.3803632  37.9188681  65.2191925  19.5444334
  38.3100271  63.8918018  18.9312398  18.9948653  28.2184817  77.1255934
  19.1654920  28.7239481  77.9203391  19.8640632  28.0083014  76.7841899
  77.1724319  90.6939602  21.9114161  77.5165892  91.2611580  22.6013923
  77.9452801  90.2589512  21.5512562  38.0860233  39.4260764  40.2975368
  37.4070764  39.7481751  39.7046518  38.5279822  38.7358212  39.8031187
 106.0632297  19.6697260  59.7001457 106.4135262  18.9642025  60.2439857
 106.4201137  19.4998671  58.8283586  57.5367022  40.2091503  15.9350729
  56.8128061  40.1864386  15.3092217  57.2675276  39.6135139  16.6343534
  45.7661247  84.3560505  17.8859997  45.8974695  85.3027630  17.9381657
  45.8546638  84.0518284  18.7892389   3.5736689  35.0083470  31.8331170
   3.9194608  35.7910371  31.4040995   2.6876983  35.2532339  32.1001720
  67.0290876   4.8633975  27.9029918  67.9452301   4.7333259  28.1479335
  66.5605164   4.8962230  28.7370157  71.5565968   6.6666335  36.8170166
  71.4451838   6.2649077  37.6786637  70.9507347   7.4076861  36.8181038
  91.2517592  38.8644457  26.1268091  90.7439229  38.4298658  25.4416275
  91.7632005  38.1617999  26.5279961  67.8649759  62.6150990  41.8032217
  68.2657480  61.8192625  42.1528816  66.9734192  62.3532438  41.5734577
  74.7894430  74.4787025   9.0766484  74.0694141  74.0478420   9.5372444
  74.3911266  74.8209143   8.2763565  42.3321009  81.2894917  39.9072790
  42.4851942  82.0446682  39.3393898  43.1703854  81.1463451  40.3466177
 110.0877114   8.9375807  83.3755976 109.7145840   8.6259104  82.5510567
 110.3042265   8.1393219  83.8574016 101.5381584  84.2366600  40.1928806
 101.3999936  83.8503933  41.0577202 100.9196064  84.9661541  40.1547861
  40.2373552  80.8462811  58.8284302  41.0302258  80.3571129  59.0482187
  39.6570969  80.1963329  58.4320641 101.2000570  71.3592911   0.5190280
 101.6931149  70.5922985   0.8103202 100.5229947  71.4760685   1.1854971
  52.7193069  77.5210714  48.7865353  51.8386602  77.5139236  48.4115076
  52.9867887  78.4394979  48.7522411  54.7110844  85.2537441  20.3454208
  54.7000933  84.4344521  20.8402658  55.2533579  85.0638866  19.5798314
  50.9660721  72.6688623  51.9178581  50.5966330  72.1052027  51.2381220
  51.7904949  72.9830122  51.5465546  27.5976467  95.7684231  52.7026749
  26.6415524  95.7260036  52.6849508  27.8552508  95.7520103  51.7809343
  12.2550285  61.0246086  15.6010389  12.9052806  61.1299467  16.2955225
  11.5977561  61.6958475  15.7845235  73.9329672 105.0687408  16.2273753
  74.0180445 104.8289680  17.1501446  74.7589207 105.5037975  16.0158217
  17.1282958  53.7237860  89.5025060  17.9048061  53.2162691  89.2665067
  16.4626168  53.4505297  88.8712862  21.8100142  81.0697556   1.1486764
  21.6986895  81.9590950   0.8126511  22.7317786  81.0232544   1.4024912
  24.7013760  38.9206696  15.8280396  25.5355835  38.9728618  16.2945199
  24.0452862  39.1582632  16.4832699  54.3349123  67.4030304  24.2112350
  54.2705774  66.4585733  24.3529773  54.8559332  67.7209425  24.9485970
  50.3934622  62.7104759  28.0734324  49.9013662  61.9828081  28.4536600
  50.5261469  63.3166409  28.8022566  15.5210829  72.6222134  66.3980722
  15.1616788  72.3304892  65.5602455  15.8933604  73.4841776  66.2118864
  25.2620077  65.0549555  31.7437935  25.7411981  65.8197927  32.0625830
  25.7440948  64.7779179  30.9646416  39.4340849  72.0554399   8.6755431
  39.3734765  72.9467630   8.3318847  40.2730894  72.0327139   9.1357487
  54.2635918  37.4678230  37.3180223  55.0627613  37.7757215  36.8905187
  54.5482111  36.7264104  37.8523755  50.7266235  93.8445663  12.6195014
  51.5140963  93.6561489  12.1089935  50.6633520  94.7996712  12.6184726
  55.9050894  82.9398441  19.1336870  55.3664207  82.4930096  18.4806848
  56.0820675  83.7990952  18.7508202  65.3438044 104.9438477  44.5541954
  65.7859850 105.7631016  44.7767639  65.2079916 104.5086575  45.3958559
  58.5168219  70.4844856  12.9485512  58.3457422  69.5670223  13.1612170
  58.6957741  70.8968878  13.7936151  47.9434729  74.4916821  30.1537943
  47.3708200  73.8149214  29.7928309  48.2525158  74.1266918  30.9829545
  48.9227028  87.5628931  71.4461470  49.2967792  88.2227666  72.0299828
  48.3295842  87.0588071  72.0032275  25.7107949  56.3716078  26.9654727
  26.5403676  56.0759401  27.3404694  25.3433323  55.5907679  26.5513539
  16.0966157  51.7656828  62.1040344  16.1255216  52.0149065  61.1803007
  16.0044765  50.8130003  62.0923066  26.7857552  82.1329117  36.0001898
  27.4328804  82.6710701  36.4560938  26.6347718  81.3916302  36.5866518
  42.7721977  60.9752989  10.9974754  42.7599621  60.3151417  11.6904926
  43.5352135  60.7497931  10.4653203  60.3448248 101.2504005   9.1139096
  60.3865242 101.8860912   9.8283273  60.4758978 100.4030228   9.5393503
  65.8616209  45.5412006  21.4935946  66.5986300  44.9406338  21.6047859
  65.1566172  44.9937630  21.1478853  36.8784666  59.7246408   7.8250748
  36.3198519  58.9509678   7.8999817  36.9679379  60.0433254   8.7232214
  63.9267063  98.3042526  32.2866321  63.9026737  98.2178211  33.2396197
  63.5571194  99.1704369  32.1152973  89.5969065  35.2411295  85.6904578
  89.8856052  34.5700575  86.3089553  90.1493999  35.9985281  85.8836782
  48.2529688  87.2489262  18.9576495  48.5148096  88.1648159  19.0516186
  48.2081938  87.1084499  18.0118728  49.4110870  88.6596394  35.9735394
  49.8328781  89.0043640  36.7606139  50.0979424  88.1587887  35.5335379
 107.5493023  87.8376293   9.7727698 108.3351573  87.3321342   9.5650786
 107.7569088  88.2745552  10.5987442  89.8745056   6.4779688  63.8888121
  89.5062753   6.8466355  64.6917582  90.1820871   5.6081177  64.1437316
  33.9740849  91.8925858  28.7113905  33.7321234  92.5181484  28.0284810
  34.8696637  92.1323872  28.9494467  80.0708696  10.7695700  87.4661866
  79.4622763  10.6553389  86.7362571  80.7606306  10.1255251  87.3059624
   4.6183079  59.1816854  23.2767272   5.0489813  58.3268738  23.2700634
   5.3137076  59.8019505  23.0578089  89.8186874  53.1791258  13.6634243
  90.3834438  52.7410126  14.3000948  90.3972340  53.3785963  12.9274023
  61.0368379   4.5957590  72.5558817  60.9285017   4.6000315  71.6048419
  61.9819268   4.6675517  72.6896095  43.9790964  84.6520424  40.8135986
  43.9065313  84.1368580  40.0101376  43.1070375  85.0267601  40.9374237
  38.3097959  47.5843620  14.1758084  37.7821136  48.2602262  13.7503779
  37.9021406  47.4669886  15.0338709  69.3372154  84.9643898  24.5442700
  70.0433636  84.5769024  25.0614142  68.6932659  84.2619705  24.4539285
  59.6227360  76.4703798  13.4228444  59.7075081  75.5170155  13.4108472
  58.6932564  76.6302633  13.2593191  62.6979590  35.6710452   8.7106895
  62.6428462  36.4652366   8.1792182  63.6337472  35.4735965   8.7499690
  59.7588015  77.1189451  52.7328348  60.7070827  77.2465992  52.7592850
  59.5485497  77.0781612  51.7999029  84.4538165   3.6552829  13.1351435
  85.2102757   3.6839503  13.7209582  84.7514010   4.0938300  12.3380554
  60.2682400  94.8623657  25.5515170  60.8619404  95.4016972  26.0738921
  60.6339169  94.8910904  24.6673846  51.6014385  90.5800629  40.6283998
  51.5826416  90.4386234  41.5749073  52.1203709  89.8515034  40.2876139
  27.8823590  56.0795689  54.4362402  27.5130081  55.6862879  55.2268934
  27.5274348  55.5541849  53.7191391  84.8677349  58.9738178  36.3688421
  85.0692749  59.8631620  36.0778403  85.6893635  58.6508846  36.7387915
  90.6771708  22.1531028   9.7501808  91.1990834  21.5633506  10.2942622
  89.8695851  21.6687793   9.5785159  24.5614576  91.9566631  46.2314653
  23.9733696  91.3144588  45.8340263  24.0263677  92.7445698  46.3269329
   6.6615742  81.0474014  11.0740900   7.3100483  81.7512035  11.0548222
   5.8426499  81.4826870  11.3109922  87.5656749   2.6116675  27.7363467
  86.8659735   2.2331351  27.2040343  87.4304724   2.2409076  28.6084080
  45.7311010  86.1801243  42.5844526  44.7853708  86.1202431  42.4493790
  46.1036158  85.5776215  41.9406700 105.8182716  94.3303013   4.3283048
 106.4786911  94.9380684   4.6610284 105.2877140  94.8569012   3.7304512
  88.6096431   7.2053260  55.0259018  88.5061837   8.1509894  54.9198580
  88.4728432   7.0527762  55.9609127  54.9452257  55.5445480   9.2013305
  54.5847273  55.7399130  10.0662613  55.8123970  55.9497881   9.2061669
  54.0681314  82.5317097  30.8994627  54.7208309  83.2297707  30.8453417
  54.5137119  81.8225956  31.3629818  63.4484243 102.4896431  15.1007521
  63.8472652 103.3583641  15.1505768  64.0635967 101.9731712  14.5801318
 103.4037593  84.8900700  19.6922541 103.4414026  85.7582474  19.2909050
 102.4927899  84.6162128  19.5856369  28.5671282  91.1371994  38.6231565
  27.9069901  90.5932903  39.0528226  29.0058398  91.5934658  39.3412018
  73.4463406  17.3003978  11.4442575  73.6817003  18.1976813  11.2082076
  74.0064669  16.7531604  10.8937871  59.7502184  79.3586540   6.6033238
  60.6696987  79.1511345   6.7698216  59.7681093  80.2360630   6.2211454
  28.6190009  69.8972178  40.7903385  28.2140183  70.4686165  40.1378632
  28.3141899  69.0190792  40.5618763  76.0915375  71.2119246  15.0404537
  75.9434652  71.5389156  14.1531074  75.6915951  71.8705940  15.6082845
  63.4298039  18.8009280  33.2039380  63.0770374  18.5157031  32.3610640
  62.6729584  19.1501636  33.6745191  36.1633730  69.9225760  21.4379168
  36.9224930  70.4889822  21.2995124  36.2053680  69.2869473  20.7234621
  51.4715242  86.7916012  14.6113467  51.5965700  87.1831799  13.7469018
  50.8155155  86.1085701  14.4722629  13.1701422  79.1194534  19.1273749
  13.2348585  78.8079977  20.0301719  12.2355616  79.0754557  18.9252472
  14.1461146  81.1284256  35.8084083  15.0390756  80.7940388  35.7245207
  13.8308239  80.7645321  36.6356969  41.1138344  71.0245657  18.6719251
  42.0550108  70.8563709  18.6257756  40.7132578  70.1559591  18.6360109
  18.2687318  59.7202969   4.4393384  18.9712369  60.2810240   4.1102427
  17.5731242  59.7998381   3.7866253   5.9197091  50.1498915  75.3450930
   6.5228748  50.3362776  74.6255910   6.2871312  50.6200625  76.0935402
  53.4414482  91.7744827  31.5455794  52.9892492  91.2182045  32.1798563
  53.5823870  92.6001930  32.0087838  19.1987908  45.6490326   4.9873897
  18.8616395  44.8173380   5.3203255  18.5581350  45.9214020   4.3304235
  37.9838109  53.3354139  15.1623762  38.5053253  52.8151464  14.5511723
  37.9134893  52.7873564  15.9439898  44.8799944  50.1152945  23.6050129
  44.4284630  49.7705460  22.8346252  45.2427959  49.3415546  24.0362096
  22.1538568  68.2745886  44.9947691  21.4487839  68.0151892  45.5879116
  22.0208979  67.7360535  44.2146826  -0.1177116   1.1532039  83.9485264
   0.1454023   0.6489963  83.1786060   0.3180126   0.7171268  84.6807861
  14.6539449  18.9734246  71.0624075  13.6971187  18.9648844  71.0369611
  14.8933267  18.0973317  71.3647199  38.2279205  12.3650338  75.0428164
  38.7574243  11.5838457  74.8828161  38.8261270  13.0958821  74.8871100
  15.9949696  66.5068150  32.4510813  16.2672544  66.8087387  33.3176470
  15.2464986  65.9348392  32.6209831  45.9270000  63.2319880  26.5919065
  45.4195833  62.9594994  27.3564386  46.4935064  62.4842834  26.4015317
  15.9018409  78.6286020  39.7203445  15.4214776  78.8053036  38.9114809
  16.7928481  78.4313011  39.4315314  84.5018885  53.7277794  44.2589331
  85.1390931  53.0138683  44.2820168  84.6465108  54.1506243  43.4124565
  54.7956753  75.1426077   2.9865730  53.8878870  75.4042435   3.1405345
  55.3157473  75.7935238   3.4578094  73.8365078  64.1412687   8.5871041
  74.3914318  63.5070848   9.0410864  73.3739185  63.6253023   7.9267848
  67.6303434  86.8819809  12.2908509  67.9771996  86.6351795  13.1481779
  67.4115038  87.8096485  12.3790336  31.8584632  16.4586426  83.0397081
  31.1629342  17.0542265  82.7608716  32.4380254  16.3951088  82.2805607
  31.2531066  73.0509138  29.7636843  31.4368463  72.1720886  30.0955462
  31.1535549  73.5878372  30.5498338  28.9315224  52.1374035   9.7949535
  28.8692999  51.9721651   8.8541794  29.8637223  52.0474291   9.9927944
  42.3136330  62.6409340  15.8220887  42.6989365  62.7370262  16.6930318
  42.6601982  61.8099165  15.4972255  63.3629609   0.3163260   7.4178714
  63.2016636   1.0812491   7.9702425  62.5285722  -0.1526528   7.4086154
  27.8881407  96.1411476  12.8683281  27.3308182  96.9091702  12.9938805
  27.8324723  95.6666470  13.6977780 105.8572479   7.8906466  83.2358861
 106.6755053   7.4166514  83.3842623 105.2563163   7.2294403  82.8924906
  66.8134117  97.9797173  20.2119064  67.1946907  97.2090244  19.7913337
  67.0150232  98.7017345  19.6167004  51.6429806  52.3371840  20.7901239
  51.2156057  52.2037840  19.9440813  51.6717911  53.2880020  20.8966279
 104.1922232   1.9495179  79.1489422 104.1815659   2.6725842  78.5218167
 104.1198727   2.3731781  80.0042248  35.7627320  74.1443682  10.7998192
  36.0207295  73.6190081  10.0424123  35.1432967  74.7837257  10.4480326
  93.5289320  72.3852730  23.5976720  92.7738032  72.8043938  23.1849360
  93.1689903  71.9517469  24.3714476   0.1263618  49.5641352  73.9207780
  -0.2760363  50.4272868  74.0170729   0.8616995  49.5729758  74.5335019
  62.9038096  19.7816295  12.7099502  63.2881165  19.0827674  12.1806705
  62.4764157  19.3255919  13.4349298  19.6153354  48.4937216  89.4962922
  19.5690583  48.6894347  88.5604557  19.4161176  47.5593783  89.5557289
  45.0695038  94.7663593  14.4409311  44.8638201  94.2682266  13.6498630
  44.3340492  95.3707123  14.5414054 107.7902413  14.7012252  42.1068573
 107.1544982  15.2177924  42.6020622 108.6240674  15.1502437  42.2459793
  42.3941517 104.5556164  29.6151233  41.8123865 103.8021278  29.5149302
  41.9260645 105.2771568  29.1949964  65.5912161  86.0933781  56.3782501
  64.6675110  85.8579731  56.4653254  65.6638670  86.9430447  56.8130207
  36.0165048  59.6641922  22.6932979  36.6657543  60.1878643  23.1628466
  36.4252901  58.8037777  22.5994039  22.8623939  76.2215471  39.4986153
  22.3406649  75.8428764  40.2061749  22.9208684  75.5248356  38.8448524
  59.9203253  85.1445103  44.4943666  59.1333008  84.9463940  45.0018883
  59.8942137  84.5289040  43.7618494  26.2879419  84.3749046  26.0636449
  25.9842396  85.1229382  26.5778780  26.6002226  84.7585392  25.2441740
  19.5864904  80.1099014   5.3301150  18.7181342  80.4782677   5.1673293
  19.6070981  79.9533081   6.2741941  11.6587055  56.4705515  46.5901852
  12.1370614  55.6588745  46.4211130  11.1375344  56.2832355  47.3709059
  41.0553455  47.1545315  19.0399814  41.2748766  47.0523310  19.9660444
  40.1081991  47.0213985  19.0022516  38.2723188  93.6961651  21.3982487
  38.6035609  94.5149136  21.0292530  37.3406172  93.6941814  21.1787891
  48.9690399  76.5600491  21.4492750  49.5623636  77.2060537  21.8325305
  49.1192341  75.7643747  21.9597363  74.4688416  82.5043201  15.2928293
  75.2367401  82.0776939  14.9126375  74.3708706  82.0979786  16.1539435
  82.2372498  47.9550291  74.0753686  81.8846860  47.0664145  74.0274394
  81.5484556  48.5063387  73.7040830  94.9293872   0.6060578  86.1830270
  94.5650288   1.4827324  86.0609293  95.7592341   0.6230427  85.7062697
  44.6717024  58.1824589  16.9207144  45.5147076  58.2692051  16.4756846
  44.0497828  58.6266041  16.3443613  73.4299231  69.5712519  15.6372201
  73.9085531  69.4753456  16.4605951  72.8678703  68.7975740  15.5953825
  63.8745785  64.4041061  24.9811649  63.9357615  64.0997410  25.8866215
  63.0660725  64.9158144  24.9546051  41.1222887  68.9094973   3.1637579
  41.2797165  68.1941605   3.7799913  41.4742804  69.6845579   3.6014995
  35.2241778 101.4943790  32.3667908  35.2828312 100.6409359  32.7962351
  34.7169065 101.3283253  31.5722251  42.7206707  88.3799458  36.2590122
  42.7959681  89.3303299  36.3445878  41.9658709  88.1497383  36.8007827
 100.3837749   8.7969948  74.4805908  99.4650360   8.5588004  74.3564200
 100.8413478   7.9590203  74.5488083  28.3502245  45.6290913  26.7716360
  29.1274095  45.0769806  26.6856527  28.6739135  46.4383650  27.1672750
  29.5777249  99.5405674   4.9143675  28.9504123  99.4228458   4.2010289
  29.4076300 100.4246616   5.2394390  23.9683723  90.1430321  10.6360900
  24.4079375  89.3583870  10.3084660  23.6658621  90.5947113   9.8482394
  33.5562325  71.1882162  49.7063971  32.9989767  70.4339409  49.5146704
  34.2237115  71.1733866  49.0204811   7.4817598  72.2339439  27.9030418
   7.5847048  71.2929916  27.7607751   6.8895119  72.2995329  28.6521554
  28.0087924  98.8764095  25.1005769  28.6154604  98.8483047  25.8404398
  27.5586128  98.0321121  25.1277804  19.1025937  80.1964092  40.0737476
  18.8288760  80.6907177  39.3011093  18.9039278  80.7742500  40.8105373
  68.8869567  98.8817508  88.2173038  68.5042830  98.0289514  88.4235191
  69.2377348  98.7792499  87.3326108  16.1162484  74.6705198  24.8554063
  15.7375145  74.3217182  25.6623316  16.6808081  73.9681435  24.5326543
  22.3853660  52.2297096  27.2295690  22.1550918  52.2974777  26.3029552
  21.5468717  52.2770500  27.6888251  57.9964876  47.8283691  13.6646450
  57.2889042  47.6318550  13.0506897  57.8433752  47.2389889  14.4031715
  52.1495438  95.7652187  29.0429950  52.3713112  95.5596733  29.9511814
  52.6584005  96.5512085  28.8441896  98.9019439  88.5994911  47.2228718
  98.8828430  88.6595631  48.1779957  98.7139508  87.6795292  47.0369387
   9.3614434  33.6102129  72.2752738   9.5626306  34.5352961  72.1339262
   9.9295425  33.3496119  73.0002415  35.8891678  67.2665119  22.7965593
  35.9317040  67.9973650  23.4132290  35.0524616  67.3816013  22.3461056
  44.1337776  53.8699055   5.0976282  45.0785017  53.7904930   4.9656197
  43.9870167  54.8078632   5.2198046  25.9393214  14.9380471  86.9882467
  26.7095613  14.9143149  86.4204460  25.8055114  15.8679367  87.1716335
 106.7911878  60.5484390   8.8058990 107.3651993  60.7106447   9.5545191
 106.3076833  59.7567654   9.0419209  28.3188295  64.0850474  71.1431432
  28.4540462  64.4350840  70.2625632  28.0090570  63.1906725  71.0004091
  74.7078563   7.6058215  49.0750408  75.1928044   8.2605094  49.5774794
  73.8128258   7.9436034  49.0424871  31.4513779  90.5149078  13.5142386
  31.3656259  90.5646324  12.5621855  31.8312097  91.3570309  13.7648189
  90.7986339  13.5311486  78.9047194  91.0540708  12.6414420  79.1484404
  89.9364802  13.6504294  79.3030834  11.6453147  92.6195431  11.4187157
  11.6903543  93.2859516  12.1043551  12.3484230  92.8519917  10.8122218
  14.7777188  54.1829014  18.4849775  15.0255907  53.2583523  18.4837878
  14.2278004  54.2844391  17.7081168  84.5684012  27.2892071  79.9103117
  85.4332944  27.0720364  79.5624197  84.3455001  26.5502621  80.4764438
  23.5332036  55.7413292   1.2538339  23.3167768  56.6043329   0.9008215
  24.4097042  55.8468103   1.6237670  52.1529818  79.1070509  17.8553617
  51.7732096  78.6984539  18.6332154  51.8744183  78.5472822  17.1305883
  54.1703463  54.2880821  26.2238646  53.6686516  55.0387239  26.5417838
  54.0847301  54.3288469  25.2713728  58.6978054  36.4419246  14.1532469
  58.9086723  37.1209908  14.7940576  58.6553097  35.6343126  14.6652913
  91.1408329 104.2537594  22.3595572  90.9244537 103.3872700  22.7039576
  90.6469631 104.8607731  22.9107881  38.6828470  69.3220329  10.9751236
  39.4475245  69.8452330  11.2154579  37.9445577  69.7765064  11.3808453
  49.3778563  77.8125715  16.5966618  49.1022015  77.9605341  17.5012898
  49.3335056  78.6771584  16.1883032  32.3708797 104.2062473  57.4388218
  32.8930759 104.9951458  57.2932529  32.7592778 103.5514832  56.8586016
  35.8044481  81.1059189  35.4372144  35.9089851  82.0526314  35.5323148
  35.2106714  81.0040379  34.6933842  36.8457413  68.7849951  19.0201092
  36.8934512  69.6757889  18.6730635  36.2150741  68.3406544  18.4534943
  80.1201869  35.2432937  47.0605898  80.2151633  35.2317161  46.1081839
  79.1794539  35.1467055  47.2086716  33.5917377  65.4805565  25.1433444
  32.7075028  65.1304483  25.0347662  33.4598875  66.4092731  25.3339481
  53.6429834  68.4987259   8.2546490  53.4672022  67.8859711   7.5406009
  54.5962286  68.5846901   8.2672840 106.5242148  36.2284392  36.0926604
 105.6922484  36.2053126  36.5654492 106.8639422  35.3362388  36.1619306
  27.0230436  53.6290957  88.7227696  26.7960977  54.3462778  88.1308395
  26.1822080  53.2350375  88.9550219  42.7905846  91.8736935  31.3450766
  43.0517387  92.7643013  31.5792727  42.0913458  91.6589546  31.9624829
  52.3660517  86.8719673   7.1190274  52.6006508  87.5230312   6.4577329
  52.8382301  87.1476936   7.9046822  50.4409313  80.9690666   1.6184051
  50.1005888  81.2220669   0.7602743  50.0997972  81.6337204   2.2168224
  60.6796169  77.5730848  63.9755583  60.0222540  77.6255560  63.2817650
  61.4387369  78.0365753  63.6218023   5.1415781  25.1491946  14.3658960
   4.8547319  25.7660884  13.6925530   4.7062496  24.3274707  14.1389942
  82.3381520  -0.0427228   6.6275954  82.3870040  -0.2525693   5.6949592
  83.1943322   0.3322810   6.8338847  18.7864387  67.9544735  54.3669462
  19.5983875  67.4682331  54.2236233  18.9160097  68.3947372  55.2069521
  82.9961427  17.6054837  75.2687049  82.4159618  17.3610569  74.5476794
  83.5524037  18.2945849  74.9054611  70.7107449  96.0396290   8.3349484
  71.2527275  95.5477333   7.7180827  70.4786253  95.4026031   9.0106326
  34.8211098  60.7410526  31.9774938  35.4784894  60.6253672  31.2914181
  34.4737864  59.8617315  32.1271300  38.1590556  55.1263167  84.8882335
  38.7360000  55.6253077  85.4664844  37.9541396  55.7306124  84.1747475
  39.4902587  76.5271091  50.6182528  39.8028851  77.0213699  51.3760138
  39.6724820  75.6131506  50.8366680  53.8686037  95.1649284  46.0902548
  53.0147648  95.2499199  45.6660175  53.6675739  94.8542690  46.9730330
  57.0961571  86.0871220  33.8287568  57.6998949  86.7847061  33.5735917
  57.6614714  85.3378105  34.0163326  70.5424023  78.6077881  36.2193251
  71.3013792  78.6219740  35.6362414  70.2821159  79.5257187  36.2960362
  77.8648568  13.3465880   4.0997574  77.1111155  13.4020347   4.6871495
  78.5757209  13.0216426   4.6523094  21.8794965  24.0891911  70.6590581
  22.0815276  24.3886353  69.7726321  22.7153730  24.1339470  71.1233187
  96.9159838  11.5709187  79.1071308  96.4930602  11.1329724  78.3685052
  96.2159248  12.0788599  79.5171893   5.8524448  87.3558521  11.9332719
   5.1849693  87.5385857  11.2719727   5.6990165  86.4446449  12.1830249
 108.4682771  49.3580271  90.3729769 108.5774490  48.5156561  89.9316984
 109.1303893  49.3538882  91.0642254  56.6620874  87.0552444  58.4968042
  56.9330549  87.9601097  58.3418083  55.8376598  86.9668293  58.0185366
  36.4915514  91.6954803  16.6576254  36.9726419  91.1548233  16.0311472
  37.0702839  92.4390030  16.8263304  45.0485753  18.9053847  89.3194595
  45.6928872  18.3245160  88.9148696  45.2731942  19.7766711  88.9929108
  21.4241362  95.0621223  10.4800022  21.5954351  94.1233921  10.4047370
  20.5721664  95.1161671  10.9129667  53.0732489  80.3697109  35.9858966
  52.6925850  80.4503632  35.1113558  52.3291636  80.4639435  36.5806174
  23.2265233  52.1845843  88.2352349  23.3458137  52.2742392  87.2897381
  22.3780584  51.7516543  88.3296114  53.5118580  82.5468063  39.5871162
  52.9015779  82.0110512  40.0938272  53.9946365  81.9177341  39.0509939
  38.5627555  45.6313158  69.7229862  38.2109689  44.7543742  69.5698476
  37.9240703  46.0479189  70.3015661  55.8984073 105.1315887  81.6218066
  55.8848698 105.9564121  82.1073180  56.5692110 104.6072109  82.0591593
   0.5064916  41.1792017  80.3055811   0.4105186  41.7967154  79.5805275
  -0.3882528  41.0244872  80.6084454  55.5375290  73.0321550   9.9915206
  55.5870104  72.1441746  10.3454673  56.2290525  73.5109854  10.4484093
  94.1538335   3.3621615  10.7639098  94.7655488   2.7108783  11.1072302
  94.0996648   3.1698245   9.8277974  27.9238820 101.5281391  36.5416050
  27.7617288 101.2054539  37.4280667  27.0905542 101.9134617  36.2708068
  56.8649483  98.5457134  27.9707122  57.3983526  98.9140415  28.6750174
  56.2241840  99.2288303  27.7732301  56.4978027  91.1919785  33.3714461
  55.8795786  90.5817890  32.9693317  56.7021751  90.8008766  34.2208576
  80.2419329  21.5215796  39.5663810  81.1869097  21.4481277  39.7000074
  80.0569154  22.4547690  39.6720314  74.6299648  68.7767458  17.8652334
  74.0071297  68.1305361  18.1979811  74.8001719  69.3516731  18.6113691
  78.8635731   9.4627399  14.0318871  77.9172278   9.5788688  13.9471745
  79.1059018   8.9173717  13.2835019  37.6269244   1.6164853  81.4759070
  37.7948522   0.7947041  81.9371128  37.1188735   2.1396281  82.0959359
  32.9502439  82.9877853  13.0484021  33.5165548  83.7594604  13.0418551
  32.1538639  83.2713223  12.5993824   4.8468017  16.4153506  68.5438442
   4.9543714  15.4897334  68.7627006   3.9342546  16.4910485  68.2649803
  13.6090898  25.6794382  73.2736790  13.1493854  25.0211312  72.7525866
  13.2668828  26.5160300  72.9586554  33.4931350  75.1058388  53.4393120
  33.7937355  74.2046547  53.3221006  33.6246419  75.5153227  52.5841761
  41.4112711 104.2180634   3.9766484  40.7972717 104.8327351   4.3784049
  40.8716154 103.6913490   3.3870876  60.7027841  24.2798919  17.1998060
  61.0475207  23.4524268  16.8641222  61.0857559  24.9474162  16.6306150
  50.8893776  83.2031822  35.4560471  51.0869598  84.1397572  35.4608607
  50.2239609  83.1022739  34.7754097   1.4643702  62.0966339  33.8094091
   1.9991648  61.6442919  33.1570172   1.3824430  62.9895878  33.4745240
  32.5990581  11.3145615  77.9729807  33.0448531  10.7333447  78.5891676
  32.9437541  11.0645462  77.1157134  96.8868991  27.4683978  82.0057708
  97.3739763  28.2844473  82.1199888  97.5177904  26.8660809  81.6115332
  85.6963683  10.6944198  22.4930024  85.1958085  10.7102603  21.6772676
  86.2592602  11.4670390  22.4436498  59.4406129  17.8845042   5.9311080
  59.4629622  18.8213367   6.1262280  59.4644571  17.8382892   4.9753219
  17.1553420   5.4134680  80.5830824  17.1030854   6.0518338  79.8717546
  17.8970002   4.8551108  80.3498113  25.0607776  24.2165352  88.6719471
  24.7318744  25.0858618  88.4432018  25.4529523  24.3290306  89.5378435
  49.8425150  94.2687321  16.6927898  48.9246702  94.4375801  16.4800012
  50.1274681  93.6328602  16.0365069  61.0536242  92.8619862  13.7544477
  61.7544127  92.3638725  14.1751742  61.2845278  92.8624821  12.8255153
   6.4945173  46.1982085  82.4896014   7.0652580  45.4511000  82.3098218
   6.8563604  46.9088866  81.9602263  72.9061747  15.6841392  46.9598484
  72.8129745  15.0224418  46.2744951  73.8478757  15.7255382  47.1263361
  33.7055063  60.2141190  18.6212909  33.9263535  61.1296225  18.4500885
  32.7565503  60.2160549  18.7466395  49.4262934 104.5795345   5.1075804
  50.2271271 104.0896606   4.9207088  48.7855434 103.9093590   5.3453439
  71.0252047  79.9062872   0.7339514  70.6786251  80.0114632  -0.1520821
  70.8621883  78.9875412   0.9474072  59.9175310  56.9577646  25.2113128
  60.1385260  57.6689243  25.8126831  59.9516392  57.3590803  24.3429708
 108.7853333  31.5111948  65.8414006 108.4183260  32.1861197  66.4123654
 109.7166129  31.4914824  66.0617757  31.8237591  78.8223219  30.0854778
  31.4795852  77.9470730  30.2635622  31.3292813  79.3974972  30.6693411
  78.3836317  44.6109295   4.9280578  79.1922426  44.6065092   4.4158441
  77.6864910  44.5428038   4.2756882   3.6422113   2.2405356  37.6031947
   3.1860689   2.8360957  38.1977320   3.6881021   2.7177733  36.7747235
  43.4931278  97.9035282   0.6502419  44.2399931  98.3531189   1.0455802
  43.0241060  97.5207615   1.3916883   7.2003364  16.9668414  91.0018164
   6.9303512  16.0490729  91.0341011   6.6349649  17.4053313  91.6376751
  13.5289954  45.6272818  69.9114609  13.6624097  44.7124697  70.1595640
  12.6188039  45.8086802  70.1457143 111.0175610  71.8900537   9.2869574
 111.2951565  72.6722527   8.8101614 111.2942505  72.0488691  10.1894271
  82.7224446  30.9459800  28.0086851  82.1469975  31.4155978  28.6124659
  82.1271563  30.4436893  27.4523044  19.4539142  90.9630299  18.6728835
  19.3862033  91.7089081  18.0768025  20.3935051  90.7916069  18.7362647
  55.0369358  93.6410332   4.4071183  55.7117081  93.4552288   3.7541318
  55.4927540  94.1348839   5.0887179  31.5405511  35.9730269  86.0147804
  30.6120872  35.7436396  86.0543090  31.7182492  36.0924746  85.0818348
  45.4593611  89.9268913  11.3379586  46.0069895  89.2294598  11.6983998
  45.0009298  89.5166588  10.6046224  72.1476770  12.9245299  29.5862651
  72.4606419  12.9870719  30.4886913  71.6031147  12.1374053  29.5756269
   8.0790619   9.7750873  37.4029446   7.8997616  10.1845473  38.2493639
   8.4563545  10.4768771  36.8725085 109.1984654   9.4275874   4.7227520
 108.7882472  10.1731032   5.1611066 109.3356848   8.7858409   5.4195821
  40.8987522  57.9282665  13.9064538  40.4933119  58.0804729  13.0528247
  40.9407520  56.9752312  13.9851427  20.5614900  42.6174666  84.3099546
  19.6276569  42.6343752  84.1004241  20.9852218  42.3508574  83.4941113
 103.0004359   3.0530948  23.6871600 103.4774209   2.2313041  23.5714865
 102.1496440   2.8958911  23.2776785  21.5188550  50.0311400  91.0191093
  20.6982993  49.6116568  91.2778555  21.5774297  49.8810889  90.0755602
  37.0766807  88.1987572  28.9319658  36.8077779  87.3657131  29.3192124
  37.6474452  87.9515171  28.2044125  89.5548964  15.8532065  11.4720380
  90.4803992  16.0681838  11.5880466  89.4900227  15.5557555  10.5645430
  59.4711352   9.5592517  18.7977493  59.5084477  10.4877872  18.5682344
  60.2736831   9.1892070  18.4300387  39.5790315  95.3933907  28.1932116
  38.9037371  95.0333881  27.6182318  40.4014349  95.2178574  27.7359676
   3.2741687  73.1914043  58.7812996   2.5697657  73.8291931  58.6660719
   3.8511872  73.5872316  59.4344473  67.3814535  89.4681931  23.5410380
  67.4052429  89.2836189  22.6021028  67.2032404  88.6200619  23.9474177
  41.8309736  98.2001972  17.2990966  42.6285315  98.0660820  17.8110945
  42.0727348  98.8578701  16.6469848  80.2944947  29.3226737  18.0680501
  79.3450213  29.2558879  18.1693828  80.6268216  29.3891639  18.9632452
  21.6569947  30.6730868  47.4164343  21.2000751  30.7410170  46.5780783
  21.2005710  31.2899233  47.9886389  51.0846424  98.6376476  30.4956341
  50.7563734  98.0347633  29.8285508  51.8849277  99.0013313  30.1168084
  83.9947558  14.1834468  43.1153059  84.0334273  14.7786540  43.8639450
  84.8661757  13.7891978  43.0774927 103.2924844  18.5139865  26.2701082
 102.5245190  18.2491225  26.7763734 103.0335999  18.3858890  25.3575277
   6.7605781  54.8806692  69.2496443   5.8828305  54.4989802  69.2596793
   7.0449590  54.8513533  70.1631522   9.4211733  66.1225128  45.2630091
   8.7327147  66.0564995  44.6012688  10.1081753  65.5321455  44.9536085
  57.5824451  88.4673882  23.8718200  56.6349745  88.5077286  23.7418103
  57.7357721  87.6011086  24.2490220  92.0142937   2.3172301  26.7837167
  91.7845965   2.4650687  25.8663201  91.2157393   1.9650573  27.1768093
  14.1082858  75.0256087  86.6871777  13.6967420  75.5264117  85.9828663
  14.0564203  75.5997969  87.4512786  30.9497643  67.8376198  27.3841715
  30.6768751  68.7547684  27.3597121  30.1320148  67.3464441  27.4633360
  60.9159946  66.8107080  19.1118157  61.2213182  66.0565138  18.6076355
  60.6156397  66.4387417  19.9410677  18.5633229  37.4808051  86.6038710
  19.0999030  37.7551295  85.8601904  18.6315011  38.2034232  87.2278994
  12.8407668  69.6768690  69.0019107  13.0463123  70.5881812  69.2104721
  13.5825252  69.1792418  69.3459964  56.0647344  60.7960726  87.4172387
  56.7399358  60.1313044  87.5529119  56.3171815  61.2311579  86.6028637
  38.8743257  10.1805664  83.1379241  37.9970407  10.4302479  83.4281987
  39.0616225   9.3700148  83.6113757  51.6255522  80.8392620  43.7123489
  52.5259018  81.1266518  43.8640547  51.5706491  79.9861908  44.1430426
  99.7188517  22.3753811  78.5672474 100.6611487  22.4834706  78.6961925
  99.6381804  21.5732933  78.0511284  47.8166533  84.9432564  16.0013342
  47.0525885  84.6815205  16.5150797  47.7657461  85.8984470  15.9660029
  20.0333928  31.7368914  90.5802765  19.6076631  32.5362517  90.8901259
  20.8801603  32.0311476  90.2446733  80.7625533  10.8372134  47.8771591
  81.1018229  11.7219371  47.7415609  80.5709983  10.5164641  46.9958735
  57.7528667  82.1898079  51.5650082  58.2448053  82.7139759  52.1970415
  58.3477449  82.0903683  50.8217239  29.7835159  62.7063204  73.7191260
  29.3875264  63.0734755  72.9287922  30.4874372  63.3162428  73.9398539
  60.9321880  89.1819096  24.3654990  61.3551140  89.0445232  23.5178614
  60.9374475  90.1316547  24.4846559  52.1564413  19.8492259  42.3525333
  52.0639754  19.0749377  42.9076481  51.9156349  20.5811996  42.9203987
  22.8500104  80.2172756  11.2228942  23.0608249  79.3049383  11.4214718
  21.9188714  80.2983475  11.4293814  26.0732770  89.9574280  44.7158813
  25.1232982  90.0132561  44.6126509  26.2253547  90.1496315  45.6411743
  62.3159504  65.5310869  43.9529991  61.8642426  66.2027693  44.4639111
  62.0922613  65.7307768  43.0439806  63.0617142  92.2730160  24.6703124
  62.3262119  91.8091011  25.0703716  63.4638977  92.7535534  25.3938913
  19.4912708  56.6062498  21.9248462  19.8622370  56.8984175  22.7574658
  20.2525783  56.3957024  21.3841844   9.2250633  45.7183958  73.9853263
   8.7332153  45.2234579  73.3300745   9.8759746  46.2046935  73.4792995
 104.2948028  37.5863959  90.4011554 103.7300345  37.2144534  91.0786007
 104.9966379  36.9441821  90.2952408  18.4645084   6.8537539   8.0792856
  17.8328613   6.6837615   7.3804587  18.5004143   7.8081721   8.1427187
  40.2882910  83.2994938   4.8869625  40.4575872  82.7073002   5.6196827
  39.4716311  82.9792213   4.5039132  74.6928216  16.3421554   5.6574595
  75.2828408  16.6872901   6.3275254  74.5968986  15.4154414   5.8771026
  73.6274910  71.7713356   0.1319833  74.2410469  71.9760561   0.8375835
  73.3855152  72.6238298  -0.2298649   8.5999154  35.2397086  88.8320267
   8.1193208  36.0574747  88.7035000   9.3199395  35.4745127  89.4174008
  46.6169596  97.2820187  20.8627558  46.3047218  96.9241238  21.6938090
  47.0922995  98.0760098  21.1074162  16.2892389  11.7289473  77.2077036
  17.0726346  12.2675969  77.3189461  15.7974385  12.1626021  76.5103471
   9.1273975  65.4359652  78.2269359   9.7044372  65.0765158  77.5530982
   8.4607600  64.7613264  78.3561659  39.4867516  72.6968050   0.2992109
  40.3327131  72.7145767  -0.1483028  39.6686363  72.2741222   1.1385486
  62.6999426 104.3679237   7.7492976  61.8599939 103.9751530   7.5117093
  62.4718475 105.2320194   8.0921304  63.0260921   3.4092826  19.2849648
  63.0195595   3.2008094  18.3507645  62.7423096   2.6013297  19.7126567
  62.1396828  82.4414730  27.1739721  62.8619719  82.4602127  27.8018069
  62.5574684  82.5803280  26.3240266  44.2126083  98.6404037  36.1051369
  43.9432621  99.3374729  36.7032766  45.1125622  98.4391308  36.3616562
 103.3974572  27.3684050  75.3868330 102.6289102  26.9955851  75.8187747
 104.0166875  26.6407133  75.3297663  14.8873723  67.9160404  18.2272470
  14.2211604  68.4876394  17.8455865  14.8995638  67.1479034  17.6562405
  16.8593168  11.6874482  81.1585569  16.4635324  11.9093634  80.3157389
  17.3049783  12.4891020  81.4323658  43.3452177  92.7707767   7.3488671
  42.6366520  92.1300220   7.2889262  43.3800840  93.0032158   8.2767612
  25.4158735  23.0894019  84.7411013  25.9955739  23.8395764  84.6091157
  24.6689271  23.4456374  85.2221513  95.9095192  74.9508095  16.0253596
  94.9655914  74.8062801  16.0913110  96.0272408  75.3819656  15.1789105
  56.2347103  17.4463862  29.3728685  56.9328094  18.0730266  29.5631671
  55.5892313  17.9501742  28.8770986  78.2449532  99.8166561  14.7624588
  78.5891008 100.1083755  15.6066716  77.4306965  99.3627548  14.9796748
  69.7872258  13.1715411  59.1774082  70.2598120  12.7514857  59.8960543
  70.1396156  12.7619857  58.3872700 105.2038480  14.0707797   4.3418097
 105.3125716  15.0185508   4.4201744 104.5451260  13.9611548   3.6560240
  36.2767601  65.9732676  25.6876087  35.4322791  65.5681086  25.4902911
  36.6949463  66.0833693  24.8336601  37.3783398  88.1119347  45.8670139
  36.5972686  88.6017323  46.1244249  37.9038668  88.7414169  45.3732443
  61.8998718  93.2739353  28.1236410  61.0642958  93.6050320  27.7943707
  61.8707371  93.4442616  29.0651155  84.9451733  31.8182391  26.3268638
  84.3365098  32.5453776  26.1963534  84.4340182  31.1594409  26.7968965
  82.1964360   8.3092803  24.8019719  82.3235036   9.0403003  24.1972423
  82.9899264   8.3005446  25.3372502  46.2119150  93.0514622  43.8353300
  46.0253191  92.9321957  42.9041004  45.5759525  93.7055016  44.1251850
  29.9615144   9.2288662  87.3512790  29.3238019   8.6359288  86.9538069
  29.6396398   9.3642641  88.2425115  75.5189657 104.7780228  28.6100292
  76.3183355 104.7742558  28.0835056  75.3203678 105.7056999  28.7373066
  32.6502943  83.8339615  25.4576325  31.9243336  83.8872910  24.8360467
  32.4055290  84.4321632  26.1636567  94.4341231   3.6603755  26.9173384
  93.5686684   3.2945460  26.7346168  95.0014306   2.8957290  27.0158982
  52.4784994  91.6079998  20.7143641  51.6920710  92.1193314  20.5238414
  52.5296164  90.9722900  20.0005746  16.4084434  55.6703020  86.6717619
  15.7349490  55.0752188  87.0011759  16.8055534  55.2002551  85.9385544
  26.5254879  57.7697515   2.4073614  27.0109725  58.2916641   1.7685005
  25.7616258  58.3048248   2.6228690  20.9955453  56.7106272  62.0488334
  21.6038942  57.0786692  62.6896834  21.0348939  57.3143031  61.3070416
  16.5131807  45.7216097  80.3183150  16.0942697  44.9519564  80.7034993
  15.7874393  46.3092162  80.1079595  55.4495764  79.4797945  34.0813899
  55.0109911  78.9052153  33.4539104  54.7848558  79.6603298  34.7460604
  74.3341684  96.0750961  24.3854880  75.0357246  95.6606674  23.8832021
  73.9181232  95.3531075  24.8565245  93.6424740  58.6493708  87.7405280
  94.4059619  58.4232355  87.2093201  93.8167413  58.2497622  88.5926896
  28.6523366  72.9439354  38.8331604  28.1575680  73.7219286  38.5759330
  28.0781007  72.2108364  38.6116910  70.4264450  80.5996132  25.1606297
  70.7392693  81.2582493  25.7807684  71.1802101  80.4237652  24.5974684
  54.0751505  90.3574371   9.8662376  53.9744568  90.3283501  10.8176816
  53.4352779  91.0081196   9.5774478  53.3848286  86.9252396  27.1210217
  53.0892420  87.5523758  26.4610553  53.0009556  87.2399998  27.9394341
  77.1913362   9.8490638  20.1573610  76.6443253  10.4371566  20.6780934
  77.1771956   9.0210456  20.6373739   8.5232448  29.6344496  44.3497515
   7.7757978  29.0388228  44.4025135   9.0530633  29.4225718  45.1182795
 100.7649966  43.2909705  75.2128196 101.3137957  42.6249148  75.6268466
 101.1318656  43.3914591  74.3344450  87.3613644  20.0935191  17.5163627
  87.9788018  19.8980731  18.2212067  86.7143870  19.3895930  17.5626528
  69.9497271   2.6289481  10.0722849  70.6875921   2.1155852  10.4012930
  69.8220587   2.3177070   9.1761470 100.9669753  19.6891476  77.4511707
 101.8678590  19.9901511  77.5696564 100.9411021  18.8350893  77.8826249
  68.1344986  67.1472454   9.6862304  68.1306219  66.2126350   9.4795400
  68.6459589  67.2120619  10.4927289  36.9074105  17.5008131  77.3432040
  37.7544259  17.2163035  76.9999111  37.1261882  18.1418206  78.0195785
  53.5534000 100.0741482  62.2473526  54.4352818 100.0188065  61.8793154
  53.1189442  99.2749405  61.9494438   4.0826272   6.9466330  60.9677958
   3.9668559   6.9196392  61.9175863   4.4143962   6.0775830  60.7421589
  98.5776950   2.5194949  29.1652894  99.4593907   2.8921050  29.1633534
  98.0058957   3.2561320  28.9493012  94.2665196   3.2776279  18.5758162
  93.4011365   3.4405726  18.2005870  94.6014834   4.1478175  18.7921607
  71.1976982  25.3505153  13.9317191  71.7801476  25.6245059  13.2232583
  70.4607392  25.9595698  13.8849854  85.0660563  11.0997218  27.4466491
  85.3437567  11.6341418  26.7026687  85.8789349  10.8858794  27.9046154
  88.1882287   3.9642447  18.1922841  88.4147502   4.6234340  18.8483310
  88.2828141   4.4176501  17.3546004  62.3794651  61.2076187  19.7283351
  62.2502899  60.9964895  20.6529808  63.0930185  60.6339502  19.4490874
  36.2148666  82.2800541  17.6903450  35.4855132  82.6656818  17.2049952
  36.4679384  81.5146542  17.1742630  78.7902546  85.6208801  49.0722704
  79.1726923  84.7449398  49.1243029  79.5018625  86.1741734  48.7502337
  45.7059479 101.0949516  44.3733788  45.5482149 101.8607712  43.8212156
  45.6787729 100.3537369  43.7683296  64.4932175  85.9057713   7.2402853
  64.5991278  84.9949646   7.5149751  63.7814999  85.8818245   6.6006637
  48.4256840  87.7195835  16.0907781  49.1918039  87.8705025  15.5371439
  47.9276943  88.5353470  16.0381269  57.0901394  92.9310131  38.6327505
  56.9162226  92.2064781  39.2336082  57.7896261  92.6083469  38.0645680
  59.2170572  88.9712048  21.2033701  58.4683466  88.9034748  21.7958903
  59.5669222  88.0814457  21.1568403 101.3546010  10.9466292  56.4885688
 101.5751668  11.4672495  57.2609305 101.0306188  10.1183964  56.8425393
 101.9843674   9.0923137  50.0770617 101.8767167   9.8375148  49.4860268
 101.1920977   8.5701674  49.9509239  20.4977178  64.0468813  77.6038790
  20.3864955  63.2808043  77.0408702  19.6251630  64.2094351  77.9622841
  13.6476278  84.4998576  73.6220264  14.3028688  83.8062121  73.6978185
  14.0424203  85.1384188  73.0282128  93.6840153  96.5717793  16.0437810
  93.9051533  95.8337688  16.6118193  92.8883266  96.2944794  15.5896640
  43.7946987  97.7456856  19.5729387  44.0624762  96.9949818  20.1030016
  43.9692545  98.5054970  20.1283264  29.0731168  77.5830603  35.1071429
  29.6179295  77.8082657  35.8612609  28.4871340  78.3326817  35.0026155
  82.8956319  10.0704402  28.5687184  83.7148238  10.4314059  28.2298112
  82.5408650  10.7633704  29.1256928 108.1045628   2.2665900  22.0435405
 107.5196505   1.7665690  22.6128221 107.9192305   1.9396323  21.1632133
  52.5435400  76.4555788  54.4089460  52.2712088  77.3717546  54.4608164
  52.5592756  76.2630987  53.4714317 104.5216704  19.1877383  21.6449904
 104.0166713  18.3871001  21.5028930 105.0321961  19.0118045  22.4353337
  85.6120826  26.2443847  42.6275587  85.4163457  26.7518348  43.4152222
  86.4674235  26.5655726  42.3421288   5.7985309  25.0660724  38.3197570
   6.4687160  24.9341887  37.6491666   5.3794626  24.2103499  38.4111142
  37.2161150 100.0138855   0.5991690  36.8613791  99.2428017   0.1566530
  36.4930320 100.3345013   1.1382364  72.6368237  79.5238972  23.5148311
  72.1682262  79.4187689  22.6868248  73.5077000  79.1650629  23.3444142
  86.9203377  14.9929732  30.0209427  87.8039885  15.3181094  30.1932430
  86.9926310  14.0429038  30.1124191  59.8140287  94.3190575  48.8470030
  59.2565155  93.5896873  48.5760021  60.6984997  93.9532375  48.8579702
  77.4100161   5.8749312   7.5446594  77.7423049   5.0178355   7.2778338
  77.7703429   6.0092277   8.4212208 100.8753825   4.7866267  75.2736187
 101.0876656   5.4976958  74.6690178 100.2773715   5.1820296  75.9078693
  61.2537527  88.5027599   7.7215439  61.6017532  88.5630512   6.8318856
  61.1444902  87.5639343   7.8728712  51.6137934 104.2074394  18.7021017
  51.6391420 105.1421738  18.9067030  51.4193964 104.1724586  17.7655017
  28.6786651  27.2949625  85.9155989  28.7039565  28.2517840  85.9245151
  29.4420528  27.0400025  85.3974593  55.2555037  77.5860882  16.0853040
  55.9711647  78.1097794  15.7250166  54.5068121  78.1822824  16.1010587
  83.0351067  65.4019165  26.7821908  83.3572006  66.2947559  26.9059968
  82.2554207  65.3497553  27.3350048   5.5588917   4.8497504  10.6298637
   6.4249710   4.9691695  10.2401543   5.5429176   3.9320201  10.9014368
  74.1563225  99.7829342  37.0621443  74.2154646 100.5361080  36.4743805
  74.1056585 100.1659489  37.9379082  94.6721936  18.2417125  13.0495906
  93.8009883  18.1484050  13.4349811  95.2091885  18.6012858  13.7556899
  85.3827716  20.4370517  26.1413550  84.9928666  20.9257525  25.4165268
  84.6355439  20.1511973  26.6668725   6.6691869  99.7944927  13.2673204
   7.2954518 100.3761196  13.6982810   6.2578130  99.3119621  13.9843762
  82.5798225  92.8825855   9.2773616  83.1128788  92.7496719   8.4935117
  82.9330063  92.2623539   9.9151856  25.4427242  43.0529810  89.5886405
  26.0546540  43.6033751  89.0999192  25.4338073  42.2230078  89.1118765
  84.4544698  17.6451034  23.9864993  85.2657557  17.2035045  23.7354469
  84.0018035  17.0143527  24.5463920  89.6935940  56.7955971  11.6040409
  89.7267914  56.7043352  12.5563025  89.7808838  55.9011507  11.2745261
 100.4858208  65.8364487  10.0265384 100.0927258  65.3522110   9.3004340
 100.2079678  65.3612375  10.8096135  32.6154808  20.6669921  18.7851393
  32.9824451  19.9384612  19.2859471  32.3275474  20.2711791  17.9625463
  58.3798075  86.2984848  26.1453366  57.6369572  86.6688633  26.6220212
  58.8033581  85.7166862  26.7764854 111.1308575  29.1056556  37.7808881
 111.7002202  28.7661857  37.0903683 110.4722119  28.4223956  37.9057121
  60.6069183  79.7202063  24.1312385  59.9191999  80.3792191  24.0364981
  60.5336905  79.1825438  23.3427024  71.5897465  77.2436190   9.6796381
  71.7193270  76.7056990   8.8985586  71.3710594  78.1111717   9.3394053
   9.8636249   3.0041617  60.3567457   9.5920853   2.3206347  60.9693432
  10.7448009   2.7466315  60.0857401 105.0870133  19.1174811   1.7844772
 104.7486258  18.2274837   1.6863732 106.0329295  19.0050620   1.8784977
  75.4350520  16.0513324  21.1904812  76.0444642  15.8943862  21.9117403
  75.8554388  16.7325515  20.6656575  10.7270503  97.0906734  39.9008203
   9.7703928  97.1189117  39.9163365  10.9973145  97.9500866  40.2242136
  77.8963041  45.1276064  10.3015840  77.9011583  45.1220274   9.3444121
  78.8212490  45.0961781  10.5459762  84.7877932  15.4410285  17.9401982
  85.0516368  14.5591182  17.6778102  83.8378764  15.4517287  17.8227961
  39.1769862  98.2306480  27.6174378  39.3059397  97.3924923  28.0613923
  38.2946467  98.1741619  27.2506762  25.3672742  40.7530047  87.9817551
  25.0109767  40.7590319  87.0933598  25.8253001  39.9153067  88.0504340
 101.2190963  33.9124316  33.7673354 101.4929009  34.6727199  34.2803907
 100.7339335  34.2830867  33.0301356  74.3558574   2.1307010  39.9476886
  73.9587904   2.1292895  40.8186436  73.6121441   2.1510905  39.3454361
  29.5453262  35.4781271  81.9725972  30.3031110  35.6936671  82.5162333
  29.8596429  34.7907378  81.3852823  37.5626468  33.4717585  86.2210876
  37.6097011  32.9463602  87.0198208  37.6348018  32.8344180  85.5105746
  73.5163260  87.0583439  19.7661364  72.9698610  87.1886158  18.9911294
  73.5977316  87.9308796  20.1512194  82.9927063  74.8038483  19.9106896
  82.2702026  75.2613306  19.4806635  83.7219906  74.8756313  19.2948794
  77.3161984   9.2945212  33.2717443  77.6615096  10.1651401  33.4692287
  76.6234041   9.4514960  32.6301599  42.8029633  92.4704361  26.6846442
  42.2263145  92.3740101  27.4425411  42.2162008  92.7044106  25.9654760
   0.3887943  15.6769771  37.1481490   0.6962541  16.5654773  37.3277617
   0.8560614  15.1296634  37.7792907  77.8353072  10.0206584  17.1110058
  78.2575989  10.7320041  16.6294634  77.7021409  10.3730887  17.9909432
  48.5690737  77.2714472  24.7173429  48.6489201  76.3807869  24.3759084
  47.7511263  77.5989294  24.3432498  65.4786539  89.9902916  29.6654034
  65.5635738  90.1045799  28.7188530  66.3276148  89.6454620  29.9421382
  33.8142728  13.5821511  70.9683442  34.1214513  13.8799645  71.8246031
  34.6138810  13.3631684  70.4899025  80.1968575  92.4019909   0.2762197
  79.8216677  92.0968246   1.1022571  79.8430777  91.8045998  -0.3827104
  79.6812344  95.9439087  31.5675521  80.5133438  95.6390381  31.2057900
  79.7029018  95.6678104  32.4838090  74.3306018  13.9238280  28.4333754
  73.6430789  13.6748904  29.0510964  75.1440216  13.6502475  28.8573265
  80.1857471  79.9151802  37.0425534  80.5047417  80.1431656  36.1693430
  79.2464256  80.0963020  37.0092416  41.6055393  75.9658337  26.5006661
  40.8738136  75.7142067  27.0641351  42.3860931  75.7361269  27.0048475
 103.2921553  12.5196570   5.7280010 104.0401984  12.9053706   5.2720445
 102.5417233  13.0387038   5.4387331   8.8825230  16.7086333  29.2046833
   9.4593624  16.3034362  29.8522234   9.1498855  16.3222999  28.3707190
  82.5155926   9.3629092  37.9176426  82.3475123   9.1107673  38.8256073
  83.4699393   9.3926734  37.8500724 103.2204057  16.3310737  37.4405956
 103.3512450  16.1033839  36.5201235 103.8302565  15.7668323  37.9159260
  63.8577700  92.9998493  36.2606287  63.0065918  93.2805634  35.9245849
  64.4902802  93.3500862  35.6333351  14.4350628  12.4923820  40.3665924
  15.0515942  13.0961436  40.7808161  13.6003593  12.9608649  40.3726482
  96.6669083   1.9651145  19.0763819  96.6922522   1.2164134  19.6722221
  95.7710648   2.2953242  19.1446471  48.4204388  92.9135895   8.8436216
  48.3695889  91.9678783   8.9824742  48.7548876  93.2595253   9.6710926
  64.6726036  97.9658031  54.9634552  65.3688765  97.3278809  54.8069572
  63.8837242  97.4359798  55.0782919  98.2000066   8.8553351  13.9641726
  97.4084235   8.6043376  13.4881258  98.3612347   8.1256980  14.5623922
  23.1456661  54.6628475  10.3235865  22.7738714  55.5061245  10.0649559
  23.9859462  54.8845243  10.7248628  23.1843710  11.7378020  22.5071597
  23.5400891  12.6180458  22.3852348  22.2965312  11.7870605  22.1528363
  82.0522065  58.8245304  73.5388649  82.2313400  58.4164412  74.3859804
  82.5800939  59.6230055  73.5412550  46.8969870  45.3726482  24.9531460
  46.2463617  44.9514151  25.5148196  46.7802858  44.9576235  24.0985322
  27.2087455  54.7516108  34.6151185  27.3692322  54.8995543  33.6831379
  28.0373025  54.9748898  35.0392318 106.3059101  47.8565931  16.1136842
 107.0869505  48.3340025  16.3934827 106.5204152  47.5396442  15.2363217
  16.5788400  47.2848511   7.9242879  17.2158325  46.5715790   7.8829300
  16.9209480  47.9466438   7.3232651  11.7662906  24.4248415  80.1798093
  12.7203368  24.4567467  80.2505743  11.5986013  23.7821032  79.4906092
  48.3050537  55.2781820  23.1346035  47.5611067  54.9999475  22.6004076
  48.2336712  56.2321901  23.1662917  41.5795040  29.7765207  14.7535777
  41.5492153  30.6772256  15.0761378  41.1019945  29.8028684  13.9244080
 109.6003127  41.6291666  25.1899242 109.7884223  40.7094908  25.3771234
 108.7867591  41.6094685  24.6859646  79.4704671  99.7909601  89.8180634
  80.2016492  99.3902547  90.2882101  79.8688026 100.5035074  89.3182297
  54.8289354  58.0845274  88.7149224  55.7487805  57.9675890  88.9524993
  54.5260353  58.7995250  89.2746203  37.0511675   7.3705930  50.5074072
  37.2758532   6.4503026  50.6445694  36.1001062   7.4029058  50.6106901
  12.6569796  23.8087153  18.2818723  12.0070004  24.2840028  17.7643192
  13.2956290  24.4752932  18.5349226  13.8898075  89.9164104   8.6684847
  14.0012741  88.9881611   8.4631872  12.9433286  90.0308132   8.7540632
  36.6388655  71.0540867  17.4014437  37.1736431  71.8396091  17.5163507
  35.7607150  71.3871098  17.2165692  49.9954557  48.6846209  13.9644682
  50.6814194  49.3467665  13.8793457  49.8938274  48.3301115  13.0811632
  98.8799640  22.8077389  89.5706461  98.1107160  22.6083018  89.0370582
  98.6052223  23.5397984  90.1227665  77.8239675  91.4148719  81.0253716
  77.1554585  90.7461030  80.8767951  77.9573198  91.8152530  80.1662183
  23.9561677  24.6305847  32.3270226  23.8167524  24.7380280  33.2678986
  23.0773020  24.6643233  31.9492769  22.1878934  49.1245270   4.1824791
  21.3499689  49.5576572   4.0196443  22.1176696  48.2870817   3.7242353
  98.7084480  96.2993629  74.4079423  99.4712015  96.6299970  74.8824096
  99.0584607  96.0053594  73.5669398  25.8853673   5.0566889  72.2163701
  26.0724591   4.1181590  72.2361624  26.3902568   5.4169871  72.9454124
  16.6640353  86.5208912  21.1318016  17.1986604  86.5576458  21.9249320
  17.2954285  86.3989067  20.4227924 105.1580319  51.1524773  21.1801529
 106.0966703  51.0390186  21.3295436 104.7518685  50.4171610  21.6390371
  73.5488826   0.7462384  67.5972962  74.1198892   0.4865385  66.8742895
  74.0860079   0.6286885  68.3808184   2.5823139  21.2062718  79.2997968
   2.7814435  22.0940520  79.0024304   3.4321784  20.8386303  79.5422924
  42.5934124  64.7111416  19.8806202  43.3840752  64.4177485  20.3333902
  41.8783569  64.4812298  20.4739738  20.9098077  60.6320143   2.5200364
  20.4375339  61.4154434   2.8018677  21.3447165  60.3165627   3.3122355
  65.5422974  14.6922696  28.0322409  65.8785677  15.1239276  27.2468615
  65.1665020  13.8720596  27.7124500 107.4516412  32.1450163  81.2317431
 107.7911445  31.9103266  82.0953917 106.8432757  32.8643919  81.4009213
  19.4938576  69.4513988  11.4588201  20.1318121  69.9828053  10.9825313
  20.0147629  68.7585831  11.8648958  62.4549671 100.3934343  72.7672505
  63.3096667 100.6956918  72.4600661  62.4572988  99.4520814  72.5938058
  15.9043181  65.1913691  37.0272517  16.7162609  65.2227211  36.5212893
  16.1213398  65.6199074  37.8551912  81.4404388 105.6025894  90.2662788
  81.2698932 104.7641618  90.6954485  80.7926364 105.6478364  89.5630470
  43.4406376  32.7014375   2.6589957  44.1507530  32.3443770   3.1923580
  42.7240944  32.0755506   2.7641565  59.9103780  68.9935191  71.2275052
  60.3946896  68.3487005  70.7118678  59.8433109  69.7571201  70.6542253
  19.1641128  92.7887821  33.8134885  19.2101598  91.9639587  34.2970061
  19.0330458  93.4549522  34.4882202  55.7358034  86.5228445  91.4730862
  55.0701530  86.3384445  90.8104122  56.5563698  86.5677912  90.9822889
  29.9461627  39.6228528  45.8524847  29.3208647  38.9048767  45.9511948
  30.8011007  39.2175174  45.9974623  85.2819061  52.4022150  11.0140634
  86.1093044  52.0855761  11.3765335  85.5395889  53.0584812  10.3666461
  29.5459485  86.7261410  17.6803148  29.2405295  87.5087452  18.1390977
  30.3275776  87.0145226  17.2090149  52.9335499  63.2760191  18.7096381
  52.4335623  62.5681734  18.3031988  52.8048658  63.1509304  19.6498632
  48.1662798  32.2801447   3.9203781  48.2757664  32.6273108   3.0350989
  48.9632463  31.7744589   4.0796083   9.6209252  18.0065513   4.9553055
   9.6523637  17.7678406   5.8817291   8.9209354  17.4642026   4.5918447
  18.4897673  23.4470081  10.3080034  19.0482736  23.3775425   9.5337445
  17.6435268  23.7372780   9.9676347  44.8759985  24.1913676   2.7266592
  44.2764473  23.4490991   2.6504493  44.4012451  24.9240065   2.3341332
  85.3398366  79.4661147  90.6255192  85.4467912  78.6518891  91.1172797
  85.3791805  79.1983325  89.7073814  59.9836683  39.1237164  20.7138920
  60.7833481  38.7406349  20.3533483  59.4132948  38.3735585  20.8817267
  70.6505699  71.0331411  89.8509759  70.8691807  70.6239338  90.6882272
  70.5782099  71.9661791  90.0520669 108.5978004   4.4980980  90.2737676
 109.3730899   4.0281798  89.9666314 108.9472028   5.2326895  90.7782724
  57.0483112  52.4660110   6.9932282  56.3956785  52.9245234   6.4640105
  57.6790142  53.1438971   7.2359633 101.3872930  22.5657488  82.4605495
 101.7126342  21.8530203  81.9106364 102.1307274  23.1629969  82.5432056
  88.0635591  93.4880788  87.6249433  87.6393981  94.0911729  87.0145345
  87.5021358  93.4976919  88.4001490  60.3054762  34.1293621   9.4429809
  59.8153782  34.9093032   9.1827351  61.1537790  34.2239261   9.0097708
  42.8877544  39.1143513   8.0456406  43.7876940  38.8858581   7.8129864
  42.4576759  39.2783737   7.2063768 104.6030131  64.4815922  17.3025215
 104.0795639  63.7900686  16.8975151 105.4043570  64.0409660  17.5852358
  63.4121323  25.6333613  30.2103472  62.8019762  25.1854086  29.6244454
  64.0903711  25.9797573  29.6304893   0.8071522  74.1183949   8.1787580
   0.2716226  74.6156073   8.7970001   1.7049076  74.2400646   8.4877312
  46.5845776  38.2358575  40.6021404  46.5864229  38.9409924  41.2494516
  46.4519739  38.6799264  39.7646117  23.2870626  34.5194507  38.3525968
  23.8197470  33.7377048  38.2064724  22.4298000  34.2963791  37.9898691
  59.6899529  60.4449512  79.4500685  59.1462679  60.4758830  78.6628699
  60.5405326  60.7805593  79.1670299  99.4408985  12.2222401  78.6664474
  99.5854398  11.9022252  77.7759814  98.5999151  11.8440796  78.9233029
  31.4935327  25.3207445  10.8288252  30.6918454  25.6220794  10.4013598
  31.3560247  25.5106020  11.7568767  23.8738561  61.1185646  13.3292508
  24.6120167  61.6305637  13.6597157  23.8857603  60.3165102  13.8515556
  75.2239414  93.3583982  84.6883005  74.4934650  93.0565269  84.1483867
  76.0038896  93.1512458  84.1735178 108.8088047  30.2975178  34.8130274
 109.2219168  30.6966448  35.5787110 108.9121827  30.9482002  34.1186523
  40.5346251  68.6363029  17.3595321  40.9095764  67.8287745  17.7110100
  39.6093178  68.4318209  17.2245514  88.3536053  75.4770660  34.7386146
  87.8052139  76.2342358  34.5332265  87.8582096  74.9951124  35.4008365
  23.0935025  76.6145945  16.8359470  23.3018422  75.8044624  17.3012602
  22.9972219  77.2697926  17.5270867  12.3019707  33.4315920  24.7016001
  11.4069176  33.1514263  24.5102382  12.5390017  33.9955139  23.9653683
  52.2178841  77.5014400  15.4236937  52.0730352  76.6200161  15.0796854
  52.0592546  78.0790186  14.6770513 108.9938875  19.2364193  74.0622449
 108.5581013  18.3881356  74.1443253 109.2439028  19.4648720  74.9575293
  52.9131985  58.3461523  11.4889014  53.5644388  58.8430452  11.9840956
  53.2304430  57.4434137  11.5145504  87.3988628  66.3366652  29.0249920
  87.5908566  66.2223339  29.9557447  88.0613708  65.8104038  28.5773706
  27.7732182  68.6478090  21.1942148  27.3789239  69.1784716  20.5019999
  28.2236099  67.9431057  20.7286286  50.2127600  92.5538445   3.5279709
  49.9603415  93.0669880   2.7603763  51.1592579  92.4412918   3.4401602
  87.0900059  36.2146664  13.9307678  87.5811768  36.6818261  13.2549393
  86.9209385  35.3524017  13.5510969  47.1127605  14.1462350  39.6698165
  47.5646305  14.6771312  40.3257084  46.2326241  14.5197558  39.6243024
  54.8143387  87.9553223  23.8486814  54.1348171  88.5850620  24.0893269
  54.3472147  87.1260452  23.7470698  91.0425874   1.1886479  87.2305161
  90.1261099   0.9867216  87.4190024  91.1459085   2.1025683  87.4956596
  51.5417718  12.0226790  83.5535347  52.2974157  12.0601393  82.9671532
  51.9180631  11.8642403  84.4192910   1.4250826  33.5880305  79.8906577
   1.8389034  32.7682711  80.1608062   0.5713915  33.5793997  80.3235161
  38.6360574  49.8279333  37.8991318  39.0445518  50.2005625  38.6804843
  37.9158974  50.4253244  37.6973224  48.7673712  55.1528883  10.9878373
  47.8905296  55.0372887  10.6217480  48.6151457  55.4535389  11.8837547
  11.6174126  40.0949335   2.8079495  11.8790221  39.1792941   2.7110231
  11.0730577  40.1064539   3.5952085  30.0026011  31.6386580  10.7642174
  30.3756309  30.7984972  10.4973602  29.3355179  31.8251872  10.1035810
  32.0809650  19.3356539  79.0071321  32.7059650  18.6137225  78.9406109
  31.3649749  18.9845778  79.5366001 106.9376346   5.2188708  83.4214079
 107.0974990   5.0940634  84.3568748 105.9839531   5.2197672  83.3394271
  59.5863199  61.1317873  35.0925803  59.3951607  61.4074898  35.9890604
  59.8869133  61.9287443  34.6558499  56.9505072  84.3031502   4.2433965
  56.6118002  85.0661850   3.7751085  56.8851995  83.5864067   3.6123347
  94.3878169 100.3705318  86.5075222  93.7230916 100.7698591  87.0686913
  94.3681617  99.4414146  86.7368504  49.1403770  61.1864948   9.5445901
  49.0825701  62.1091700   9.2964756  48.4880924  60.7498455   8.9967853
  68.3734608  10.7588542  20.9794593  69.0771580  10.1149929  20.8989358
  67.5969601  10.2400076  21.1894202  56.4463234  44.8395538  17.4873185
  56.8713856  44.0563917  17.1377337  55.7347775  45.0202751  16.8730903
  67.6476908  71.2479162  26.9667602  67.7337885  70.3389692  26.6793013
  68.3904028  71.6978502  26.5640593  51.4610863  64.7765350   2.4364944
  50.5360603  64.9881077   2.3108064  51.4621592  63.8583946   2.7071393
  39.4132566  55.6363678  14.8460591  40.1413631  55.1321602  15.2091944
  38.7021923  55.0015163  14.7589743  21.0333919  25.1038290  75.1742733
  20.4415797  25.2366473  74.4337678  21.1485719  24.1547657  75.2215981
  16.5607727  80.6271362  10.1696038  15.9867406  81.3433456   9.8980039
  16.2662208  80.4059982  11.0531008 110.7183157  42.9888058  45.7571173
 110.8223921  43.9147902  45.9761047 110.9528238  42.9339504  44.8307133
  39.8594213  54.6805573   4.8848620  38.9078045  54.7572327   4.9539617
  40.0140667  54.4308472   3.9738399  23.2486391  68.0016518  28.1238294
  23.5102105  67.4796534  27.3653245  24.0618539  68.4027386  28.4304953
  53.0081177  24.4856668  29.6409965  53.5571194  25.1650548  30.0324845
  52.5030279  24.1339469  30.3740764 104.4703956 102.8987892  79.5353079
 103.8165231 103.1216581  78.8727295 104.3851276 103.5856492  80.1965070
  70.4323053  34.8526120  32.1588397  71.0865402  35.3089714  31.6297364
  69.8436308  34.4522929  31.5189672  42.8443432  31.3689709  30.9600544
  43.2023239  31.8185544  30.1945782  42.8995228  32.0146108  31.6645646
  46.8787861  89.9014282   3.3698061  46.0706711  90.3344345   3.6449057
  46.7799282  89.7880459   2.4245006  57.4554300  51.8238449  -0.0346714
  57.2039413  51.4991999   0.8299637  57.9609871  52.6165676   0.1448630
  56.9393872  18.3133437  74.3222105  57.0329236  18.9393736  73.6041796
  56.4200067  18.7776400  74.9786448  52.2596407  10.9994984  12.1543574
  52.9486704  11.3513815  11.5907550  52.7147007  10.3935254  12.7391243
  69.8276587  67.9592783  70.6938434  70.3215547  68.6251659  70.2154160
  70.1399727  67.1274836  70.3377414  89.6809050  10.0397612  90.0170478
  89.1718002  10.8444621  90.1144835  89.3123468   9.6155096  89.2421886
 102.1753409  23.5374784  21.5906262 102.9714563  23.0068493  21.6200113
 101.4917299  22.9629874  21.9353986  95.6434771   7.6951958  88.7678832
  95.8166524   8.1784941  89.5757592  96.5091344   7.4299408  88.4572253
  21.3713074 102.6325035  13.2845175  22.1236777 102.0606518  13.1323695
  21.7509890 103.5047817  13.3903754  38.6016631  38.6144590  18.8644600
  38.8487005  37.8630543  19.4035268  39.4036722  39.1320753  18.7931359
  44.3297529  71.5261412  14.7622013  44.7717047  70.7523966  15.1118195
  43.4272957  71.4465904  15.0711894  22.5410128  48.9032269  10.8565760
  23.4165001  49.2485571  11.0312355  22.0605755  49.6441650  10.4872251
  21.5083169  27.3191191  76.7178392  21.8873786  26.8148543  77.4377429
  21.4362668  26.6921498  75.9981513 102.7086254  93.2265575  84.1926819
 103.3154865  93.4072549  83.4748381 101.8605895  93.5341127  83.8725537
 107.1043010  65.7786794  55.5648994 106.3063712  66.1359317  55.1751375
 107.1635003  64.8890931  55.2165270  94.0160032   2.1792199  89.2993097
  93.5864779   3.0336214  89.3409647  94.9494048   2.3763062  89.3777350
 104.4837900  75.3479917  64.2686462 103.6676689  75.7906825  64.0358376
 105.1205392  75.6678898  63.6295485  38.2934189  23.1765151  12.6771569
  38.9472818  23.8588452  12.8292108  37.7187181  23.5412169  12.0041478
  48.7429047  53.8180161   7.9521483  48.8568115  52.9138184   8.2448697
  47.8013086  53.9754772   8.0217302  94.3548866  97.8670461  80.0045121
  94.2650028  97.1394117  80.6199014  95.2948232  98.0465371  79.9814796
  88.7380525  37.6491190  83.7075150  89.2814859  36.8613459  83.6895996
  88.1250139  37.5337626  82.9814929  60.3871441  61.7289352   7.4466068
  60.3377056  62.6238871   7.7825332  61.2529325  61.6723442   7.0423245
  57.6522732  60.5838299  29.1887617  57.7394485  61.2457466  28.5028338
  56.9044971  60.0525427  28.9152718  55.8272171  42.1488142   9.2866963
  56.2071228  41.8267441  10.1041162  54.8823023  42.0578384   9.4095421
  29.8189330  93.1803226   1.8265434  30.0869942  93.0172825   0.9222250
  28.9679599  93.6118603   1.7500101  17.5550878  64.3242311  14.0595007
  18.3056819  64.9145079  13.9930940  17.6905477  63.6849070  13.3601081
  17.9103564  89.5054634  70.4268908  18.8137339  89.5888121  70.1216102
  17.9635809  88.9069064  71.1719608  34.6477699  16.3025272  19.2782652
  34.3825078  16.3037467  18.3585548  34.0586615  16.9292378  19.6982825
  83.8407941  83.8455589  53.2723713  83.4754892  84.6606452  53.6164904
  83.1594081  83.5031516  52.6938367  42.9171896  43.3677912  37.6661253
  43.3731318  42.6858711  37.1728373  43.4314966  43.4684420  38.4671164
  44.7310162  69.3977690  21.0408044  45.2504110  68.7545681  20.5583620
  44.6083546  69.0064287  21.9056964  46.4886856  44.1885090   8.4139049
  46.5781069  43.8294458   9.2966896  45.5569887  44.1005898   8.2128143
  44.1833283  98.1978900  86.8219408  44.1947182  99.1061122  86.5198988
  44.1161276  98.2631071  87.7745491 107.5917812   7.0527245  87.8602472
 107.9653903   7.9060532  88.0804369 108.3496996   6.5048911  87.6561174
  74.1432758 103.8067968  60.1585221  74.5701952 102.9908998  60.4198265
  73.9577313 103.6922080  59.2264938 104.1912576  29.5853831  32.5599289
 104.1311666  30.2889277  33.2061911 103.3780404  29.0919329  32.6667547
  53.7903881  42.2429562  16.6878068  54.1419220  42.9326963  16.1248577
  52.8408766  42.3526478  16.6365314  66.1676712  57.5736676  78.0494487
  65.9318252  56.6862924  77.7789438  65.9051605  58.1262208  77.3132396
  23.0163144  22.8698517  78.7854314  23.5865640  22.7585579  78.0247343
  22.3043203  22.2458388  78.6443722  83.0358150  19.8816420  79.8630166
  82.9758491  19.7355820  80.8071041  82.5419106  20.6878353  79.7135341
  50.7829332  50.0634050  10.6962073  51.2579775  50.4824066   9.9785739
  51.3111544  49.2964411  10.9175336  56.2830257  71.0721159  15.3625929
  56.3974142  70.1667500  15.6514943  55.5856371  71.0284758  14.7083926
  32.5740027  72.6986933   2.0611063  32.8829265  72.0329475   1.4466295
  31.8832707  73.1608629   1.5862143  73.6014457  99.4138009  59.0567231
  73.1437345  98.6658103  58.6729980  73.1381626  99.5829446  59.8770833
  13.7346256  58.6474800   4.2489088  13.2061267  59.1573524   4.8628727
  13.1236982  58.4006596   3.5545903  34.5339084  70.1881123   8.5397840
  34.0028405  70.9134626   8.8685113  34.2294550  69.4259167   9.0323281
  46.3550997  98.5114098  10.7379711  46.9829273  98.9632797  11.3017797
  45.7156944  99.1842461  10.5041051 101.6840597 103.0829770  74.1930938
 102.0963903 103.3943660  73.3873308 101.8751569 103.7636001  74.8384356
  24.3919230  59.1175413  11.4955819  24.7719026  58.3806944  11.9740152
  24.1690898  59.7545338  12.1744192  23.4439564  44.0372086   8.6453778
  22.8693199  44.0073967   9.4103193  23.6132264  44.9694204   8.5091537
  26.3746381  65.8989239   2.1937990  26.9136381  66.5364647   2.6620403
  27.0015883  65.2647543   1.8459553  29.9300313  90.3063011  24.8953271
  30.3862977  90.7051563  25.6362486  30.5865502  89.7438526  24.4843912
  35.3215504  63.1664038  24.2836475  35.3041649  63.6643219  23.4663296
  34.5184898  63.4224844  24.7372413  11.6410255  43.5927200  29.8774934
  12.3364472  43.0483103  29.5083904  11.9843006  44.4849539  29.8293734
  95.1314350   9.7384001  64.1350842  94.5491716   9.0122391  64.3584418
  96.0125991   9.3858601  64.2595696  11.6718626  75.2347231  57.3369551
  11.8885815  74.8490572  56.4881182  11.8885660  74.5524311  57.9723692
 111.2019082  15.1499440  80.1325417 110.7850667  14.4779469  79.5931995
 111.7087647  15.6743027  79.5125568  56.5296650  54.8046827  13.8262701
  55.7059002  55.1547098  14.1655731  57.1918869  55.1045656  14.4489777
 101.1002488  71.7013509  82.3559672 101.9282956  72.1003551  82.6231056
 101.3570400  70.9688682  81.7958260  19.8074520  63.7444401  25.6201553
  20.3802109  63.0234766  25.3586340  20.3823304  64.3488121  26.0897088
  99.9439665  45.7197405  52.0076704  99.8385783  45.7849432  51.0585260
  99.0501853  45.7387282  52.3497629  68.9518924  82.0290382  83.8968354
  68.0712362  81.8392069  83.5733515  69.3825193  81.1749990  83.9343894
  39.4100881  84.2862892   1.6150871  39.6815014  84.8756409   0.9113602
  39.4913626  84.8109245   2.4115747  35.3597784  66.7015553   3.9482930
  35.2991295  67.5945759   3.6090752  36.2875962  66.5856409   4.1531074
  66.0834236  95.6968887  70.9310269  66.5708418  96.2578828  71.5343070
  65.7624336  94.9795110  71.4774346 104.4658919  18.4698988  53.8514042
 105.4175969  18.5141636  53.9437652 104.3011662  17.6021696  53.4824276
 110.3111024  85.0690706  86.6096759 110.9514804  85.7786710  86.5585688
 109.6334739  85.3999765  87.1992120  71.2317129  98.4219224  71.4074290
  71.7699595  98.5441406  70.6253910  70.8746643  99.2909343  71.5906513
  77.7246566  88.5479362  82.6567370  78.2341285  88.1682188  81.9408584
  76.8181010  88.3166749  82.4544811  68.3139081  73.5566146  80.0152755
  68.1691714  73.8609702  80.9111834  68.5953470  74.3379981  79.5393944
  44.1291093  10.8214022  74.8913765  44.1092061  11.4522911  75.6109691
  43.7950467  11.3074137  74.1374362 111.4639898  85.1069481  83.0870128
 111.0006280  84.5545537  82.4574196 110.7724805  85.4753716  83.6368388
  40.4056501  41.5371418  31.1997914  40.8083200  42.3259163  30.8365750
  39.7954321  41.2459993  30.5222201  60.2507067  52.7019548  40.3748274
  59.5649624  53.1073856  40.9054995  60.9747267  52.5622225  40.9851599
  59.9538012  98.8291509  50.6086063  59.5109411  97.9936035  50.7568121
  60.2169891  98.8008792  49.6887350   5.1469993  18.8236929  90.9951103
   4.7591924  18.0968357  90.5077611   4.9797343  19.5932032  90.4509486
  19.3897069  40.9211111  24.8114395  19.6730363  40.5577660  25.6504512
  20.0690150  41.5558481  24.5836711  30.5633092  58.2957983   0.5593537
  30.9851408  58.3583689  -0.2976033  30.9249353  57.4986601   0.9466879
  89.2654462 104.5758970  72.3067033  88.7864919 105.3935153  72.4420917
  88.5832591 103.9185674  72.1696949 108.3781654  43.8458014  30.4274917
 107.5413933  43.3948898  30.5402827 108.2278734  44.4516134  29.7017956
  26.0084200  55.0268984   2.8209221  26.5526772  54.8182106   2.0616686
  26.1554098  55.9606695   2.9715833  37.8717756  48.8671112   8.7775791
  38.7879038  48.9877510   8.5278106  37.6675963  47.9700661   8.5132712
  53.3842421  30.5122972  18.7351060  53.2694578  31.3487554  18.2841134
  53.8219595  29.9525070  18.0938017  44.7020960   5.6476969  32.8646111
  45.4133368   5.5455297  33.4970117  44.2578125   4.7998497  32.8647828
  35.0091338  69.1776037   2.8665751  34.6655488  69.6188974   3.6433905
  35.4771781  69.8626995   2.3892748  33.3010721  48.1319094  33.5111547
  32.7659130  47.4420977  33.1187344  33.8508534  47.6754379  34.1480255
  78.1280470  65.6092405  26.5480185  77.5411129  64.9232769  26.8661237
  78.4209061  65.2960205  25.6922364  32.3493409  44.7492027  34.9984932
  31.7660093  45.2319574  34.4129157  31.8119431  44.5570707  35.7669497
   3.5923123  45.3792000   7.2116393   4.3194678  44.8030663   7.4473149
   3.7489706  46.1797285   7.7124852  34.1203904  87.3607922   2.6130298
  34.0010953  86.5619278   3.1266582  33.2336187  87.6177216   2.3603380
 104.2755266  64.2430932  57.0581889 104.7298427  63.8109929  56.3349223
 104.5217700  63.7368114  57.8323174  18.1904602  11.6457987   7.6855218
  18.8828206  11.3284385   7.1057355  17.3795426  11.3362229   7.2820294
  16.7642391  54.5833254  27.9617143  16.4033318  54.6204233  27.0759368
  17.4647415  55.2356482  27.9624414 102.3676725  82.9683287  71.1140847
 103.2830472  83.2460196  71.1489248 101.8803926  83.7718422  70.9319925
  18.9584970  36.4510560  14.8508596  19.4071257  36.3205051  15.6862760
  19.1987455  35.6861925  14.3278909  67.8805657  93.6311109  75.1099801
  67.8070779  92.6937015  75.2891362  68.7600298  93.7374360  74.7473907
  35.9748387  28.2395196  26.9831228  35.2293491  28.6820054  27.3889375
  36.0060120  28.5902381  26.0930347  88.2909675  97.1266801  84.5494241
  87.5034566  97.4249179  84.0943223  88.7510629  96.5891321  83.9047641
  16.6948020  84.8788357  34.3582678  16.1143351  84.5659447  33.6644459
  16.1179996  85.0147533  35.1099706  99.4498488  36.1136938  54.7484994
  98.6231919  35.7798125  55.0969076  99.2121335  36.5183665  53.9142513
   2.5883507  18.2112481  80.3663135   1.7164659  18.6017538  80.4259229
   2.6987457  17.7442147  81.1945200  69.5385122  27.3101997   1.6144867
  68.7548208  27.8285289   1.4317502  69.3244982  26.8253136   2.4115530
  58.9680719  74.4596577   4.8592114  58.9210510  73.7150240   4.2595935
  58.8983202  74.0701151   5.7307756  84.4898219  71.4595861  69.5892453
  84.9147029  72.1581335  70.0869751  85.0920816  71.2793941  68.8674092
 107.2233554  36.5594794  75.7845163 108.0617353  36.8720461  76.1246002
 106.5664908  37.0143725  76.3116097 103.1505819  94.0841253  79.5111370
 102.3445697  94.0385873  78.9968419 103.8151117  94.3804986  78.8892055
  45.8134460  66.0427952  25.9508729  45.8285189  65.1708412  26.3454628
  46.7340565  66.3008595  25.9049535  37.5293350  40.6777477  37.4735045
  37.2277927  40.2276611  36.6843724  38.4818602  40.7066774  37.3835492
   4.0810727   2.6648880  62.9781961   4.8192786   2.9181696  63.5323882
   4.4655370   2.0932127  62.3136592  88.4676500   0.3864170  87.1620002
  88.0217286   0.5719448  86.3355827  88.2154568  -0.5123590  87.3737264
  58.1635904  45.4945040  31.6577768  58.5704422  45.9149361  32.4153638
  57.3292208  45.9510326  31.5498853  26.3262796  30.5820274  55.6249762
  25.4269290  30.7997942  55.8698797  26.6721177  31.3882303  55.2420044
  67.7562094  48.4811687   7.3705316  67.8391409  47.5741243   7.0762074
  68.6570072  48.8017797   7.4152309  30.3875661  59.3232250  44.7372913
  30.8103013  60.1051998  44.3822670  31.0780454  58.8809872  45.2311468
  31.8462133  91.2958145   2.7031007  32.4678445  91.3593769   1.9780020
  31.1074114  91.8415642   2.4337430  72.6626062  12.4912846  12.5137532
  72.7236414  12.1301472  13.3981097  72.2703886  13.3560205  12.6347077
  34.1600943  58.1287956  32.5084925  34.7746587  57.5211763  32.0969772
  33.3084273  57.8944302  32.1397519   3.6665534  38.3406855  49.8663759
   3.0965900  37.6354338  49.5598030   3.0656718  39.0029646  50.2077913
  43.4013462  50.4697752  14.9846017  43.7350607  49.5962763  14.7799778
  42.8566980  50.7004547  14.2320228  88.5268160   6.9524027  66.3145208
  87.9839405   7.5267292  65.7744575  87.9601666   6.2079979  66.5170002
  22.4483848  60.6855154   7.3858428  21.8501019  60.0443363   7.7694851
  23.2664347  60.2046204   7.2602731  64.0422745  93.1920154  80.3958285
  64.4637938  94.0469701  80.4830801  63.1277604  93.3948381  80.1989460
 106.7800447  22.9725624  70.0999522 106.2659880  23.4029700  69.4167805
 106.3232847  22.1465041  70.2587962  24.2764091  17.2576167  70.2065349
  25.0711631  17.7908493  70.2226925  24.2678832  16.8668534  69.3327713
  37.4052119  41.7525339  21.2159944  36.6310740  41.5663576  21.7472935
  37.0599413  42.1746159  20.4293108  23.2853198  71.5376234  17.7853131
  23.2654834  72.4044991  17.3798907  23.5838485  71.6986084  18.6804080
  47.5651693  68.8686848   3.7920561  47.3114681  68.6802673   4.6955863
  46.9537735  68.3590412   3.2603669  75.7874632  64.6466303   2.3000230
  75.1074409  64.0405941   2.5941610  76.0144949  64.3435144   1.4209279
 103.1459805   4.9291636  79.7688425 102.2208115   4.6934725  79.8377085
 103.1626340   5.6538607  79.1437244 106.8828007   4.0356041  85.9273010
 106.1972471   4.3472506  86.5181690 106.4426514   3.3984734  85.3646618
  83.6302610  86.7248709  85.1060486  84.1095491  85.9661181  84.7731692
  83.1919523  86.4043267  85.8943176  88.6925693  81.3123376  82.2682583
  88.4600253  80.4340370  81.9670290  89.0782066  81.1745341  83.1334335
  50.1902199  47.9523945  22.7236342  50.4584789  47.7919054  21.8189168
  50.3507757  48.8862753  22.8589821  52.8244829  83.0663013   6.0458231
  53.3068609  82.2906113   5.7597297  51.9184494  82.7684402   6.1271209
  63.2921457 103.1535816  28.6985421  63.1677723 103.6165237  29.5270658
  63.5301352 103.8392258  28.0744529  80.2928140  10.4289891  66.9010472
  79.7792270   9.6484734  67.1090126  79.6491709  11.1365439  66.8646479
  50.9215927  26.2870359  15.7380509  50.9030962  25.3856707  15.4164433
  50.0779676  26.6533375  15.4727983  36.9349194  52.1390057  10.3311670
  37.0624590  52.5501966   9.4762492  36.0522389  51.7709494  10.2906263
  42.8843355  44.9590397   9.3016678  42.0225859  44.9173641   8.8870776
  43.2593966  44.0894461   9.1624755  45.7534027  35.0261688  10.6454730
  45.5647421  34.8053837   9.7333920  46.7047405  35.1276183  10.6754935
  81.3019033  97.1826274  89.0677272  82.1147485  97.3810346  89.5326433
  81.2376638  97.8623493  88.3968449  16.8771863  32.3732877   3.9647740
  17.7033472  32.6910615   4.3290651  16.2778115  32.3548102   4.7108576
  19.7673285  86.5821552   9.3631548  18.8655782  86.2717438   9.4451523
  20.3022385  85.8437634   9.6545184 100.9929986  89.6843464  80.7603204
 101.6180559  89.9826128  81.4210582 100.2359481  90.2597840  80.8697510
  13.8714027  -0.2169345  45.3159571  12.9373359  -0.0083898  45.2997065
  14.2500209   0.3256537  44.6242332   6.5315722  96.9303281  62.0471930
   7.0546530  96.4431770  61.4105654   6.7395781  96.5244920  62.8887749
  64.2375135  43.0108786  24.5216417  64.7664595  42.7845097  23.7566543
  63.5404730  42.3549652  24.5334649  37.1328735  54.4761658  19.2730498
  37.6992702  53.8561726  19.7324324  36.5198016  53.9252567  18.7863553
  33.6293960  43.5038996  31.6630316  33.1588650  42.9068995  32.2447729
  34.2119217  43.9941216  32.2431827  38.5887288   1.3137080  78.5519159
  38.0157470   2.0105006  78.8719261  38.3843421   0.5614830  79.1074491
   3.5714101   1.0764958  76.4450383   3.0011892   0.4433276  76.0089374
   2.9709052   1.6593624  76.9096780  31.2725782  30.6981875  90.8923002
  31.3006877  31.4711977  90.3284787  31.7429065  30.9614588  91.6833187
  53.6187935  59.2568254  14.7287691  53.7647247  59.9508810  15.3715932
  53.9415121  59.6217775  13.9048207 107.3391052  29.0644766  77.6485217
 106.4441653  28.7569167  77.5045586 107.2344156  29.9379851  78.0256844
  57.7959509  95.6445606  89.8237866  57.0078988  95.7159860  90.3623977
  57.4936719  95.2431447  89.0090951  27.5344181  11.2621284  22.5070047
  27.5710034  12.1844435  22.7604389  27.1541619  10.8200598  23.2660913
  48.5976076  57.8102779  23.6011863  48.0802393  58.5584641  23.8991427
  49.4356394  57.9028797  24.0543532 106.1598840  78.9720964   9.9160475
 105.9165022  79.5448685  10.6433225 106.4929882  79.5667315   9.2439759
 101.3958117  19.7987200  69.6377158 101.6861840  20.4376294  70.2886438
 102.0213624  19.8880936  68.9187360  71.0962911  97.0523364  89.0904023
  70.2043243  97.2442825  88.8009506  71.5528841  96.7795951  88.2945591
  57.0130157  88.9327431   5.8681923  57.3950768  89.2657280   5.0561714
  56.1991310  89.4261646   5.9699285  67.2307777  78.4890413   1.0968056
  68.1865168  78.4420300   1.1209375  66.9447851  77.5769043   1.1462966
  93.6761809   4.0342444  33.5285735  94.3268300   3.5060615  33.0660629
  93.6853934   3.6956805  34.4238520  40.4899787  38.0884673  68.0565691
  40.4141616  38.8524748  68.6282063  40.4646253  37.3399092  68.6526060
  22.9344416  68.0391312   2.7670777  23.1475663  67.1103001   2.8569755
  22.1036077  68.1402731   3.2315317  73.8875151  51.9991636  13.4801352
  73.1648970  51.4275026  13.2207894  74.6746159  51.4798880  13.3156407
  10.8520984   2.7235676  85.1087636  10.0773191   2.2134043  84.8728007
  10.9399127   2.6023127  86.0541826  38.0901670  20.2859808  78.5473955
  38.3457565  21.0172392  79.1096818  38.7246274  20.3016879  77.8308427
  34.1767406  57.2838879  13.8796484  34.7465754  56.7624331  14.4449866
  34.2362952  58.1715441  14.2328417 107.3131200  28.7961031  74.2157352
 107.0120069  28.9863039  73.3272624 108.2448979  28.6008765  74.1161907
  56.8527746  86.3580990  13.2316124  57.6742983  86.6733170  12.8548265
  56.7767572  85.4562855  12.9198802 107.2815081  27.9234339  89.5152834
 107.6370879  28.7362601  89.1559726 106.4804026  28.1909491  89.9657260
  77.6872159   2.4530334  23.7086535  77.1673227   1.6493339  23.7080264
  77.0925451   3.1227035  24.0464950  58.8408232  67.2718239   4.8664051
  57.9845285  67.1406078   5.2735633  59.2454529  66.4043951   4.8747680
  52.1589184  67.6646280   1.0653569  51.4833927  67.6344013   0.3878735
  51.6951895  67.4531555   1.8755825  51.3408327  77.9460430  21.8269014
  51.1337948  77.5930500  20.9615898  52.1268129  78.4744644  21.6882253
  60.1783419  90.0019073   9.8492169  60.5184984  89.3443203   9.2425084
  60.2864313  89.6078396  10.7148135  30.7157087  13.5572029  83.1198448
  30.6647968  13.0958058  82.2827351  31.0949659  14.4084956  82.9014379
  82.0238018  56.6081572  11.8407738  82.3495960  56.2428379  12.6633477
  81.1022282  56.3509560  11.8128443  26.5062881  57.9002047  12.8194714
  27.2532582  57.6534843  12.2741294  26.8640757  58.5304070  13.4448266
  16.0461711   0.3254343  65.5458403  15.2817392   0.8506037  65.3090501
  15.9174728  -0.5050491  65.0876236  63.8668585  68.9694929  34.8567986
  64.2206335  69.8386431  34.6679568  64.5894098  68.3706522  34.6682739
  35.5654048  21.5662314  91.1213896  35.1025724  21.7419554  90.3021573
  35.0809383  22.0622231  91.7813281  10.3084707  42.6623370  83.9842385
   9.7982311  42.3818041  84.7439659  11.0123252  43.1964423  84.3524110
  78.4091949 103.0852127   5.8406824  77.6429892 102.7060127   5.4101318
  79.0821552 103.1026554   5.1602042  98.3696647 100.2491290  83.4988993
  99.1865154 100.2313383  83.0002373  97.6835771 100.2963216  82.8330976
  70.8847237  81.6713238  11.4114296  70.0417662  81.3124657  11.6886961
  70.9174252  81.5054321  10.4692817  42.1424389  74.5916319   7.9352993
  41.6113949  74.8692751   7.1888798  42.7488375  75.3177500   8.0811131
  96.7250105  13.4438063  62.6965904  96.1773702  13.2196738  63.4489775
  96.6078898  14.3875624  62.5877690  52.2442389  46.0562849  14.5758414
  51.5414429  45.4080105  14.6210718  52.2268105  46.4884043  15.4297733
   5.8851146  35.9394099  84.4431323   6.7315768  36.2447478  84.7694838
   5.8071565  35.0462653  84.7784799  45.0375032  44.3002844  26.5459704
  44.8480082  43.3747768  26.7000914  44.2484283  44.7578812  26.8361354
  39.1035223  35.2596474  16.9809949  40.0007868  35.1413941  16.6692924
  39.1957521  35.7583070  17.7928221  60.7890129  68.8597393  23.2310653
  60.2027035  69.1995430  23.9070845  60.2407312  68.7945747  22.4491620
   5.2491187  29.9211623  89.5210798   5.9078025  29.3226172  89.1687849
   5.2532148  29.7539736  90.4635558  34.7324752  49.0952994  82.0485264
  35.1514482  49.9502970  82.1469164  35.0923871  48.5686613  82.7622086
  93.5309596 104.2778022  66.8462348  94.0003867 103.4991939  67.1456313
  92.6083703 104.0760238  67.0022917  54.3065806  82.8165777  65.6371140
  53.4168489  82.6042135  65.9190917  54.2741950  82.7635367  64.6819329
  71.0692263  58.2897472  36.1436558  71.7365599  57.7393961  36.5535545
  71.3580799  59.1857004  36.3170338   3.0654482   4.0239257  57.8332472
   2.5259880   3.4649009  58.3924532   3.9531902   3.6813849  57.9372501
  88.5566182  78.1072743  54.8491740  87.8581996  77.5984366  55.2609134
  89.3010612  78.0174501  55.4441285  33.6629676  25.3498198  71.9925368
  32.8272104  24.9351670  72.2065651  33.4226083  26.1260344  71.4866209
  45.7307959  61.2127256  12.1211731  46.2947845  61.0037136  12.8657997
  45.0607538  61.7923784  12.4834871  58.3561087  92.2754192  14.0414131
  59.2831564  92.5137901  14.0397120  57.9844761  92.7536678  13.3001995
  75.8289976 104.2839248  88.7672347  75.7900830 104.7665126  87.9415065
  75.9721108 104.9576909  89.4319099 106.2749001  80.2952290   1.3975054
 106.8499845  80.2213669   2.1591181 105.3915462  80.3165245   1.7655599
  23.9001369  81.6347885  13.3491075  23.2739902  81.3609791  14.0193295
  23.7412310  81.0404778  12.6157820  25.5399083  14.9502779  73.4259462
  26.3258456  15.4512812  73.2079482  25.2689981  14.5567490  72.5965023
  30.9624386  97.4499893   9.5319438  30.4410100  96.8315125  10.0436294
  30.3754449  97.7367687   8.8323504 104.3966409  24.7487904  74.1491854
 105.2655669  24.5104624  73.8260782 103.8995238  24.9670531  73.3608532
  35.5249977 103.5502529  50.2856493  35.2324629 104.3853760  50.6506634
  35.4945350 103.6793900  49.3376923  29.8446155  64.1217279  36.6572380
  30.7822537  64.0071678  36.8119669  29.5181870  63.2361174  36.4979625
  45.8948755  55.8459044  18.3449399  46.7084742  55.7102489  17.8592598
  45.4126787  56.4918947  17.8287876  56.8324852  87.3791599   9.2340106
  56.9534254  86.8839264   8.4238589  57.4863625  87.0203495   9.8339492
  21.1116313   9.7585417  81.9889766  20.3251504   9.3925311  81.5843618
  21.1002778  10.6830813  81.7413330  35.7965708  62.8228188  14.0133798
  35.1365089  62.2319937  14.3759763  36.4092135  62.2462225  13.5568261
  94.1423225  73.4850216  47.3497200  94.2605400  74.3876791  47.6454639
  94.9705124  73.0536509  47.5600624  29.6775675  75.3388023  54.1815281
  29.6548748  76.2689304  54.4064140  30.3232074  74.9633265  54.7801971
  53.2181597  75.3846264  25.2756739  53.7827158  75.3571701  24.5031762
  52.4240637  74.9217033  25.0085640  32.2686076 103.3722878   1.4543408
  32.5555944 102.8553295   2.2070885  31.3324666 103.5085773   1.6002786
  88.7965393  89.0438366  19.2028451  88.9466286  89.9891949  19.2026532
  87.8445721  88.9524746  19.2433023  29.1212296  78.1385565  11.2941229
  29.5445323  78.6811447  10.6288064  29.4260502  78.4991789  12.1267509
  56.6209316  86.8550873   3.1123823  56.6133070  86.7665195   2.1593192
  57.3441648  87.4560452   3.2913023  75.1796432  87.1633561  82.9126024
  75.1880737  86.8793185  83.8266504  74.6786113  87.9789193  82.9198396
  14.9770974  29.9086119  74.2961502  14.6466207  30.7689692  74.0377092
  15.9105062  30.0485445  74.4555247  40.4152440   0.3093411  87.6999128
  40.9704255   0.9836604  87.3083761  39.7394656   0.7983471  88.1694087
  27.8092860  36.1609866  88.5640740  27.7273750  36.9500281  88.0284056
  27.4994849  36.4261748  89.4300592  19.8094844  30.2604796  68.2023597
  20.5681752  30.7180430  67.8400636  19.3025874  29.9929263  67.4357414
  40.4243659  39.5265318  63.3612561  40.4177331  40.0341917  64.1727138
  39.5075320  39.5006300  63.0874395  14.5337724   5.7585884  82.2468323
  15.4361295   5.8212305  81.9336885  14.1547202   5.0386263  81.7426431
  53.5549879  78.4082079  32.2510219  53.4375238  78.7980032  31.3847113
  53.1923485  77.5262594  32.1680045   2.6990413  32.0685984  66.9069958
   3.1854343  31.7342879  66.1534142   2.9397344  32.9937388  66.9561505
  19.0064906  13.1092526  77.9124284  19.3013095  12.2398497  78.1834483
  19.3712949  13.2230784  77.0348203  38.7205338  94.0036488  12.4005914
  39.5440698  93.8825321  12.8731930  38.0595708  94.0851402  13.0881369
  38.7417245  81.2225056  11.9625163  39.0485620  81.3373280  11.0631287
  39.4402719  80.7294273  12.3927903  41.4849471  27.9246737  77.6463342
  40.6659793  28.2455660  78.0239022  42.1680116  28.2985903  78.2029688
  79.5100355  81.7678452   4.0160769  79.4178343  82.6764202   4.3028277
  79.3409300  81.2499619   4.8031154  85.5707836  88.6854362  20.5514526
  84.6256351  88.6489010  20.4045367  85.7249451  88.0745983  21.2721038
  11.3498342  46.5575123  19.7420478  11.0631526  45.7393360  20.1478076
  11.8445706  46.2817001  18.9704287  23.3518743  29.4781329  88.7752512
  22.6535796  28.8240553  88.7470222  23.9844798  29.1815115  88.1209874
  48.8253641 104.1445923   0.6924781  49.2187071 104.9947453   0.8893657
  49.5140171 103.6622524   0.2349494  29.5442748  71.9039774  12.4139130
  29.7460413  71.4272499  11.6087687  28.7803149  71.4534664  12.7739596
  41.5502834  54.1324568  15.5517161  41.8568468  53.3765650  16.0525918
  42.0241928  54.8754883  15.9252775  11.7663192   2.1106411  71.0268354
  11.0026407   1.8735482  70.5007052  11.7656516   3.0678250  71.0322142
  29.6914005  86.0156155  14.2200732  28.9425159  86.5543365  13.9647615
  30.3897834  86.6454220  14.3984723  67.1863508  56.7947388  13.9107788
  67.1370649  57.0731163  14.8252773  66.2747478  56.6593361  13.6521721
  41.3393307  64.2691612  33.6551857  42.1481609  64.4238997  33.1672549
  40.7363939  64.9419832  33.3389401  70.1836586  59.6165800  22.4154210
  69.3214035  59.5539379  22.8263044  70.7664204  59.8932505  23.1225801
  46.9735098  85.9393215  32.4067116  47.2041464  86.5982151  31.7518115
  47.1970987  86.3454628  33.2441425 111.6706344  11.1518551  87.6727670
 110.7257005  11.2723280  87.5788659 111.9492098  11.8734099  88.2366744
  35.3721714  92.0463657   3.0879986  35.1551437  92.5592136   3.8665345
  34.6003175  92.1239662   2.5272387 103.8227173  35.4461790  85.8103937
 103.3535548  35.3512122  86.6393077 103.3649202  36.1532332  85.3557134
  34.2241931  55.5418682  21.3595653  33.8292241  55.0992250  20.6083703
  34.0018106  54.9881172  22.1079874 105.6013414  27.3786093  87.1545148
 105.1621839  27.0725466  87.9480505 105.8250304  28.2904173  87.3410767
  55.5484629  61.5374422   4.1014853  56.0257816  62.1368694   4.6751463
  55.4947615  61.9987488   3.2644984   5.2556514  19.6149565  72.5428951
   4.5426082  19.0287806  72.2895098   6.0511064  19.1525389  72.2789800
  91.9150599  12.9623009  82.5449216  92.7134236  12.4768092  82.7526408
  91.8537005  13.6271025  83.2308543  55.9864855  71.3677406  12.3930275
  55.4652596  70.5713940  12.2911239  56.8942070  71.0662174  12.3562527
  48.1900311  77.0432806   3.7373585  48.7074757  77.7743292   4.0750742
  47.7701855  77.3904371   2.9503101  40.5726957  52.7827644  22.3536301
  40.3720140  53.0373430  23.2542682  41.3223267  53.3268642  22.1123075
  29.0757155  68.8602877   5.4363006  28.2115531  69.2695570   5.4805142
  29.6809697  69.5914555   5.3126252  62.3700333  88.1463623  15.4137838
  61.5678740  88.5994339  15.1540005  62.1010065  87.2364616  15.5400836
  10.2736771  49.9176741  34.5673966   9.7850609  49.1201687  34.3637657
   9.5993876  50.5684948  34.7623444   3.1012104  99.5428045  63.5738325
   2.4544381 100.1656968  63.9053798   2.8353928  99.3805034  62.6687169
  80.7677174  92.6700211  21.6119003  80.6409645  91.7515087  21.3741994
  79.9000931  92.9688931  21.8841624  23.0522203  19.6570040  86.4615664
  22.7432679  20.5057932  86.1448103  23.0464029  19.7406222  87.4150890
   8.6982679  16.6561772  68.9802098   9.0025806  15.7854868  69.2361760
   8.6161088  16.6107298  68.0276275  85.5917486   4.1116835  79.4424856
  86.0356589   4.9339606  79.2350411  86.2255474   3.6232354  79.9677968
  39.9232507  41.0100555  20.6064892  39.0258193  41.2414408  20.8458853
  40.2936411  41.8196201  20.2548456  30.1988363  37.3384501  89.7765762
  29.9849462  37.6530577  90.6549305  29.4069432  36.8870284  89.4844191
  89.6174335  48.4380674  10.9917426  89.5239925  49.3602228  10.7527184
  90.5254078  48.3571529  11.2837493 106.6555663  30.3729845  64.4904113
 106.8065854  30.0992991  63.5856915 107.5250336  30.5996729  64.8203754
  65.9577656 100.3342628   2.3327413  65.2724981 100.6852913   2.9014415
  65.8310556  99.3859482   2.3622698 104.2432833  14.7849006  42.2431326
 104.0377475  14.3871421  41.3970995 104.2212678  14.0553779  42.8624439
  31.0212898  64.2521858   0.4530131  31.7740655  63.9579773   0.9658543
  31.2448287  65.1449919   0.1900412  12.2275018  33.8738371  87.0133218
  12.9047393  34.1469695  86.3944685  12.5354194  34.1929652  87.8615993
  59.9363852  81.9996548   1.8249796  59.8528719  81.5910149   2.6865309
  59.0480471  82.2812080   1.6063122  40.1733589  47.2240210   1.0598607
  40.6911087  47.2402859   0.2549346  39.3182874  47.5681162   0.8016337
  27.2984314  34.5514750  35.8799410  26.8339157  35.3642321  35.6802368
  26.6136122  33.8830161  35.9003496  83.0042076  64.3476057  34.3141723
  82.0676231  64.4501543  34.4830656  83.1889153  63.4347868  34.5352554
  88.8404366  31.4788081  74.8239779  88.5674091  31.0504652  75.6352758
  89.7942408  31.3983561  74.8198986  22.2815894  27.0997883  71.4274669
  21.8810128  26.2491681  71.2479711  21.5886783  27.7342631  71.2443161
  45.5893040  72.6485634   4.7720841  46.3452339  72.4038172   5.3058451
  45.6322432  72.0653200   4.0143150  21.0724735  63.7625052  73.2391655
  21.6607427  63.0174948  73.1161392  20.2371215  63.4709383  72.8739166
 104.0706253  59.3027353  42.6592922 103.3071995  59.6199894  42.1768332
 104.7341633  59.9804211  42.5301504  26.1632776  31.0908724  81.7393458
  26.5315913  30.7687498  80.9166598  25.4786252  31.7038466  81.4714915
  10.0396442   7.2959830  91.1828592   9.1066837   7.0908715  91.1216528
  10.1219129   8.1599928  90.7791928  97.3545028   7.0647353   1.5256144
  97.8950310   7.2896499   0.7683337  96.8749572   7.8688258   1.7248821
  60.4723883  53.4983921  22.6597619  60.4803038  53.8864040  21.7847657
  61.2787771  53.8128567  23.0685186  57.5244379  90.7245827  25.2796173
  56.7757320  90.4109669  25.7868791  57.6396942  90.0685596  24.5921779
  48.3428478  65.4727936  18.6883771  49.1335773  65.2465391  18.1986952
  47.6695585  64.8888922  18.3391333  88.9289041 104.6524389  81.9754052
  89.7722431 104.9635036  81.6463959  88.7715288 103.8376005  81.4984316
  63.2405615  40.1859808   5.9236181  63.9983892  40.4912710   5.4248869
  63.5750246  39.4560194   6.4446950   5.7346868  27.5941111  73.0258059
   5.5960607  27.0651556  73.8114405   4.9619197  28.1568076  72.9764903
   6.1833381   6.6173388  81.8545097   6.7703103   7.3492600  81.6648155
   5.5658912   6.6097189  81.1231172  62.5573158  38.5195661   8.1683260
  63.0912209  38.6635804   8.9496315  61.6796350  38.8051295   8.4220207
  37.5030565  86.7793274  11.8928587  37.9807639  86.0973454  12.3650205
  38.0135632  86.9211674  11.0956800 105.9626933   5.0124384  89.4467422
 106.8909689   5.2429272  89.4091666 105.9064480   4.1705920  88.9946780
  32.6179671  71.4914656  13.8812017  32.3703909  70.7194567  13.3723426
  33.5491228  71.6123629  13.6952853  47.7512836  97.8301907  16.0668480
  46.9582176  97.8320503  15.5308652  47.6001883  98.5129166  16.7205191
  38.0352496  23.1870152  57.7802920  38.4607219  22.8118111  58.5512853
  37.1877956  23.4957196  58.1008363  31.6402793  69.1274071  12.6081288
  31.2835646  68.6549997  13.3603394  30.8766866  69.3268394  12.0664811
  94.7815963  10.6765009  89.9702018  95.3634664   9.9961258  90.3089511
  93.9063653  10.4003168  90.2420947  52.2467943  83.9621289  85.4955822
  52.2653623  84.5963533  84.7788912  51.3326652  83.6824329  85.5442739
  29.4850397  79.2215872  17.3829091  28.6564279  78.9892244  17.8020012
  29.2721319  79.9755335  16.8329346  17.7592945 104.3465137   1.5312655
  17.6048684 103.4428120   1.8064319  17.1657598 104.8665810   2.0729984
 105.7422825  13.4581257  63.4073472 105.8755799  13.6128069  64.3425131
 106.5859576  13.1300570  63.0961990  34.4319892  93.6830997  24.1628456
  34.6422958  92.9616737  24.7557521  35.0947499  93.6282825  23.4743857
  85.2657890  57.1192074  42.2537518  84.3787289  57.3510790  42.5287104
  85.1718044  56.2609291  41.8405247  69.7375917  88.0762005  16.0771000
  69.0583897  88.5401535  16.5666580  69.3052816  87.2829151  15.7608175
  60.5115461  54.4003439  25.1958513  60.5269194  55.3121376  25.4867530
  59.8733377  54.3872261  24.4825864  11.4048337  31.1115672  81.1644566
  10.8681392  30.4076125  80.8002591  11.8113946  31.5221049  80.4013062
   5.9876827  17.6445884  53.3751488   5.3888229  18.1397456  53.9340973
   6.0494045  16.7852992  53.7923384  45.8136892  12.4619938  88.6529195
  45.4934644  12.7324129  87.7923617  46.0732984  11.5481736  88.5355702
  76.3077927  84.0564537  32.9773688  76.7224884  83.3052063  33.4014916
  76.6285610  84.0297699  32.0759106  37.1832371  43.5482407  29.6105886
  36.7995596  44.3088961  29.1742134  37.3120546  43.8311768  30.5158973
  47.2977208  23.5453726  85.4589742  47.3548459  23.9510943  84.5938975
  47.0321035  22.6427342  85.2831137  19.2336583  65.8543396  10.9035277
  18.5783315  66.5519857  10.8953035  19.9654686  66.2190008  11.4012277
 110.2304550  15.3696371  71.2887394 110.8261605  15.6795098  71.9709039
 109.4188639  15.8535792  71.4415562 100.2192874 101.5905435  86.9311208
 100.5796476 102.4395616  86.6751158  99.2823215 101.6634185  86.7494124
  62.4103975  85.4848576  36.1649823  61.7357111  86.1617947  36.1121607
  63.0288839  85.7083511  35.4694533  50.0000763  96.0103226  24.3130875
  49.1185856  95.6963062  24.5145798  50.2920723  96.4374638  25.1183963
  29.1640615  73.3718586  19.4742990  29.6633267  73.2011938  20.2729464
  29.7541475  73.8928318  18.9296782  78.7243648  97.0889957  77.8589177
  79.1456647  96.3106925  77.4942541  79.4507356  97.6412589  78.1480944
  49.6844912  43.9004993   8.3065718  49.4179583  44.0364265   7.3973328
  49.7153711  42.9491282   8.4074378  73.3709145  54.1292810  28.5340405
  72.7765894  53.3828449  28.6104512  72.8259516  54.8346090  28.1851077
  17.5041484   5.3286244  77.3260403  17.6120137   4.9994494  76.4337170
  16.5757322   5.5532290  77.3878837  66.6053391  64.0017700   2.3995894
  66.5319586  64.9441004   2.2483991  67.4397850  63.8967943   2.8566623
  42.9483795  68.9355612  50.2811909  42.8551531  68.2498026  49.6199226
  42.6630735  68.5226822  51.0962772  63.3085680  79.8001766  24.5897722
  63.2702351  78.8553286  24.7381854  62.4026203  80.0512791  24.4096541
  69.5267268  97.2124011  79.6639884  70.3691192  97.2076948  80.1185060
  69.7375985  96.9563014  78.7661135  37.9374623  81.5478611   7.3963434
  38.0156779  81.0141277   6.6056210  36.9948030  81.6658878   7.5133669
  85.4512830  65.1436789  89.7555147  85.3186078  65.3148169  88.8231304
  84.7461171  65.6236083  90.1898366  94.9218985  25.8939291  66.3246965
  94.5618912  25.3678299  67.0387316  94.7357675  26.7985274  66.5762806
  32.1143103 101.2026596  37.2084737  32.5818706 101.4451122  38.0077457
  32.7802849 100.7929707  36.6563272  29.3791461  40.7619810   3.1848434
  28.8863182  40.9871864   3.9739147  29.4130445  39.8053885   3.1884879
  81.3500786  56.7143297   7.5307512  80.5124664  56.7195034   7.9940104
  81.1391735  56.3819170   6.6582531  32.9568481  53.4380150  20.5637789
  32.4941373  53.2172108  19.7554624  32.5145245  52.9256392  21.2405729
  81.9721403  49.0229060  89.6027143  82.3920961  48.2277323  89.2747287
  81.9006088  49.5901038  88.8349929  39.9927044  78.3552027  11.9669783
  40.7553768  78.2429695  12.5344026  40.3392076  78.2646465  11.0793018
  25.2518010  81.3336945  17.7983916  25.0067234  81.9061375  17.0714283
  25.5892515  80.5430508  17.3774016  61.0905933  93.0270004  10.8832562
  61.4764500  92.3173523  10.3696883  60.2664328  93.2240772  10.4381168
  79.7022529  90.6965191  86.3786846  79.0390964  91.3436801  86.6187665
  79.6857210  90.0601370  87.0935100  41.0148144  29.1178465   0.4733082
  41.2293959  30.0160837   0.2216038  41.3738775  29.0240812   1.3556430
  15.8974408   9.6172406  89.9662167  15.7458925   9.5339991  90.9076708
  15.3036498   8.9791132  89.5706937  81.5367170 102.3267705  71.0821223
  81.9145723 102.0717866  70.2404332  80.6004901 102.1514900  70.9873080
 106.0528083  83.0179555  77.1484423 106.2070222  83.1926496  76.2200391
 106.5868039  82.2467382  77.3389697  30.2523326  40.1288916  60.2545667
  30.5532216  39.2929961  60.6109118  29.7018289  40.4991461  60.9445548
  13.8405751  23.5224368  76.0078299  13.8345670  24.0895440  75.2367377
  13.6279296  24.1061093  76.7360747   4.7665897  69.4767475   6.1087358
   4.9801034  70.3841209   5.8912086   4.5298049  69.5020580   7.0358407
  56.1870337  73.2562017  24.1812468  55.3741789  72.9024029  24.5422530
  56.8375397  72.5723553  24.3406916  46.2943840  78.7531996  23.8622689
  46.7588568  79.4725752  23.4344816  45.6524992  79.1844273  24.4264174
  60.1915121  81.4254951  12.5714898  60.6077194  81.9290352  11.8718839
  60.4685116  80.5228329  12.4142897  21.8763733  99.4347763   9.8287189
  22.6970029  99.3929195   9.3377548  22.0994616  99.9120808  10.6278729
  90.5071969 103.0802257  74.3083560  90.9210058 103.7096794  74.8989344
  90.2328678 103.6031587  73.5550189  32.0580387  88.4924698  36.5334129
  32.2482991  89.3370247  36.1250639  31.1078835  88.4007740  36.4625025
  84.8494530  66.5044641  16.5257621  85.7483006  66.8126059  16.4102244
  84.8983383  65.8935356  17.2610235  76.9484950   0.7662505  17.0429134
  76.8197561  -0.1482659  17.2945333  76.1601902   0.9920520  16.5491343
  53.9614725  81.6360474  24.4547367  53.7352180  82.2166634  25.1813197
  53.1560898  81.1504459  24.2764521  18.1797075  36.5910937  82.4267846
  18.8171815  36.9419123  81.8048656  17.7328252  35.8952166  81.9448203
  61.7925977  19.6996428  88.2787138  60.9345292  20.1132418  88.1844413
  61.7172574  18.8783099  87.7929455  52.9193640  74.9842310   0.6712945
  52.9681873  75.3971958  -0.1908600  53.5244989  74.2445612   0.6171832
  39.0708589  18.5495259  90.9281010  39.3660688  19.4414307  91.1113696
  38.1399345  18.6422278  90.7255540  80.1729679  99.9965954  26.1781883
  80.5495358 100.0035095  25.2981997  79.9192238  99.0850735  26.3229704
  57.3395777 102.9806995   8.1224412  58.1442690 103.4718800   8.2881302
  56.6617680 103.6517048   8.0414635  55.7556629  51.4197826  30.9008074
  55.9007025  51.9196272  30.0974703  56.6311312  51.2969637  31.2678337
  36.0289335  72.5631046   1.9638941  35.7414818  72.0621824   1.2005617
  36.5734839  73.2615805   1.6008084  42.1695041  47.6037527  85.1662737
  42.5827312  47.6098086  86.0296637  42.4194049  46.7611624  84.7870404
 102.8485962   7.0301367  78.0196822 103.0487343   7.0777012  77.0848489
 102.2956129   7.7936674  78.1853878  36.6562319  64.4634819  22.1924353
  36.1876392  64.1067219  21.4378667  36.3676715  65.3746557  22.2446609
  14.5965051  24.3711735  79.8848784  15.3546380  24.4160916  79.3022561
  14.9380635  24.6247031  80.7423711  68.0984640  97.7665901  29.8911762
  68.4231234  96.9209862  29.5816827  67.5941610  97.5564194  30.6771398
  21.8797540  23.0720545  66.9052243  20.9798717  22.8153969  66.7038107
  22.4204253  22.4238516  66.4538479  45.4916620  34.7641970  86.8501917
  45.5844831  35.3254725  87.6199853  46.3905858  34.5538165  86.5973788
  59.5838356  57.4657297  19.0479589  60.2493286  57.1856976  18.4195232
  59.6108675  58.4219885  19.0152884  11.5599679  53.9099337  72.7535284
  11.4256810  54.8495890  72.8769994  11.3527726  53.5244776  73.6048353
  33.0305528  41.2612940  72.1800590  32.6821994  40.6707312  72.8479743
  33.9368009  41.4161993  72.4464285  71.3645411  73.5617447  13.3550406
  70.4721355  73.4976196  13.6952353  71.9166803  73.2445621  14.0697241
  45.3411579  81.6522217   7.1957332  45.4805040  82.5513268   6.8983793
  44.5096207  81.6825867   7.6688683  34.1235828  43.1476141  85.1132834
  34.8875760  42.9510523  85.6554180  34.3995618  42.9306055  84.2227942
  57.3375559  74.8767948  32.3919630  56.6765404  74.4315338  32.9220867
  56.9093513  75.0231409  31.5484834  92.6137591  29.4731826  31.6114211
  92.3319245  28.5801143  31.8095016  92.0984507  30.0233573  32.2013307
  45.1379871  97.7141190  46.2726450  46.0105658  97.3616409  46.4475632
  44.8939133  97.3401833  45.4259872  43.4118223  99.7165012  10.6750476
  42.9893351 100.5412769  10.4353130  42.7452517  99.0494061  10.5110085
  98.8564397  21.4453334  31.5984178  98.9285851  20.7131785  30.9860659
  97.9592467  21.7607802  31.4899445  15.2415275  26.5503432  91.3178351
  14.8368549  26.7824389  90.4820085  15.0267553  25.6254937  91.4392935
  58.3279514  67.8369951  40.1115751  57.5042105  67.8489161  39.6241903
  58.1400633  67.3075485  40.8865690  22.4050712  24.7472597  47.6578617
  21.9857692  25.4285408  47.1322441  22.2312831  23.9357783  47.1808672
  92.0176745  18.2280845  40.8147049  91.5958310  17.4748343  40.4013109
  91.6876508  18.2241649  41.7132044  48.3288336  93.0985165  23.4998703
  48.6436939  93.6404228  22.7763820  49.1244125  92.7483940  23.9007401
  31.2267875  36.0912348  74.0958440  32.0283126  36.1579825  74.6148181
  31.4379310  36.5297152  73.2715952  87.6157284  69.5820236  24.9625301
  87.5895500  68.6751223  24.6574545  87.0419121  70.0543118  24.3592763
  75.6490754  11.5419747  74.9464500  75.0583028  12.0878340  74.4275534
  76.0322808  12.1435381  75.5848169  24.8176669  17.0037438  60.3746557
  24.3218755  17.7284647  59.9936008  24.9338102  17.2494389  61.2924671
  21.4556311  96.4764602  65.9866166  20.8524989  95.8289249  65.6217146
  21.6498660  97.0620162  65.2547479  69.2287493  76.1506414  26.0708380
  68.4585238  76.1228657  26.6384816  69.1353989  76.9672441  25.5802512
  84.7000694  77.2329569   9.2950684  84.5301342  76.3567924   8.9490992
  84.4444561  77.8238821   8.5867608  30.3045130  67.5336885  17.6149666
  30.3939891  68.2633495  18.2280099  31.1066270  67.0242357  17.7302897
  26.0651635  59.9123598  69.1013789  25.2013730  59.5990492  69.3695974
  25.9113025  60.3527571  68.2655501 109.4819732 103.1016023  70.2430844
 110.1495357 103.7665231  70.0743461 109.9777599 102.3245437  70.5011654
  22.4024081  67.5896597   7.7306092  23.1854486  68.1369019   7.7906907
  22.6597166  66.8651342   7.1604455  75.2365208  59.7025537   0.5903842
  76.0131502  60.0207472   1.0506296  75.0895262  60.3449583  -0.1038347
  69.9517632  87.0000744  10.6794357  69.1512537  86.8370533  11.1782718
  70.4180813  87.6653576  11.1855793  44.1443300  32.3997618  68.1963539
  44.6782254  33.1561877  67.9534531  44.0813398  32.4474551  69.1502881
  56.7904425  98.3426666  10.3155684  56.4250898  98.4468651  11.1941445
  57.5634480  97.7923298  10.4413390  87.2433758  87.2330379   4.3550482
  86.3414097  87.2293186   4.0346178  87.5749302  86.3594341   4.1473803
  24.5718526  39.3193556  82.0263886  24.8955106  40.2107836  81.8966871
  23.9935064  39.1635252  81.2797546   7.1956252  42.5145461  83.8514531
   7.8313112  43.1282927  83.4834242   6.7230272  43.0248381  84.5090920
  69.4221354  84.8920631  29.2011571  69.8965740  85.1513290  28.4112716
  68.8185692  84.2106342  28.9052057  65.0593710  64.2469215  11.0670412
  65.1773787  63.9836407  11.9797230  65.9493542  64.3273163  10.7239652
  67.8249741  68.9390135  19.1386533  66.9223213  68.8183880  18.8438642
  67.9104042  69.8835421  19.2682672  73.8141870  87.8130245  26.9054365
  72.9540825  88.0676365  26.5713239  73.9603567  88.3900452  27.6550460
  52.7818251  80.7161808  10.5263162  52.8725624  81.5656948  10.0946558
  51.9411087  80.3789234  10.2169847  28.9433265  85.0922298  28.2255888
  28.7188888  85.9104347  27.7824163  29.8853207  85.1557922  28.3831954
 103.1155587   3.3071059   0.7790136 102.2790576   3.7359160   0.5983877
 103.6975003   4.0193576   1.0441095  59.2800188  61.7901754  24.3274069
  59.9486017  61.4598799  24.9275160  58.8309956  62.4752378  24.8226833
 100.0304843  18.2424945  39.9852538  99.5905114  19.0799827  40.1310873
 100.8135749  18.2845706  40.5341005  69.6336365  66.9593859  18.6881983
  69.4436264  66.7215252  17.7807021  69.0382671  67.6851797  18.8752520
 107.6858807  16.5650863   3.6351275 107.7579833  17.4751205   3.3472532
 107.1805859  16.6099757   4.4468534 109.4667884  37.4497916  86.5013406
 108.9086767  37.3539187  85.7296211 110.3299352  37.1552016  86.2107819
  68.3208799  66.6702652   6.5988880  69.1629505  66.2933874   6.8540472
  68.4705019  67.6156902   6.6030180  37.8818250  70.0016212  32.5882149
  37.9118323  70.6950712  33.2473469  37.0286226  70.1078176  32.1675038
  72.9065514  60.5887508  29.9798298  73.1870222  60.5238914  30.8927155
  73.3146524  61.3935518  29.6604896  57.1771478  31.6082980  78.0200183
  57.9112195  31.7726447  77.4281108  56.9949197  32.4596716  78.4177458
  68.3939838  71.9908619   9.2790312  69.3060017  71.8262196   9.0395540
  67.9363585  71.1820412   9.0496355  90.2567430  75.0470097  58.8931680
  90.1137920  75.8930309  58.4688497  89.5195766  74.9541433  59.4966531
   0.1950930  85.5487473  77.4372721   0.9248398  85.5194242  78.0560172
   0.5734824  85.2600176  76.6067970  81.1416908 104.7308929  86.4434576
  81.3768621 103.9222057  85.9885359  81.1259361 104.4889076  87.3694310
   7.6844405   1.2978531  46.3323069   7.7607726   1.8424155  45.5488110
   8.0421685   1.8391920  47.0360184  62.8126955  82.9578590   8.1829387
  62.3126268  82.3518562   7.6361924  63.6989546  82.5963402   8.1923556
  59.7050714  53.2076836  10.2353263  59.1323614  53.4020329  10.9772575
  59.2591476  53.5931349   9.4811326  18.4233569   8.0007626  88.4997967
  19.1704654   8.2956768  87.9791346  18.1986713   8.7548615  89.0448517
  90.8169445 104.0623520   5.3099364  90.0956222 103.9104391   5.9205502
  91.6055044 103.8770738   5.8199131  68.0832100  62.6396751   0.2061387
  67.7108383  62.9340839   1.0373376  68.1849718  61.6936874   0.3109755
  66.8900271  82.4029357  80.4341042  67.8432007  82.4754722  80.4833734
  66.5999241  82.4352438  81.3457119  33.7448430  48.7278271  14.7249770
  33.0236864  48.0985832  14.7397530  34.5346570  48.1875038  14.7467053
 104.7530218  91.5185840  75.1643205 104.1448017  91.5310199  75.9033334
 105.5519100  91.1276872  75.5181730  27.9250550  77.6079512   7.4736029
  28.3003235  78.4680367   7.2847652  27.7284145  77.2382116   6.6128719
 110.4882409  18.5641325  22.8039098 109.9480787  19.3518150  22.8672576
 111.3288613  18.8764608  22.4691844 104.0648576   7.6691939  50.9446287
 103.1857320   8.0228926  50.8094740 104.0778776   6.8587948  50.4354000
  31.8766164  13.2991625  75.2869272  31.2038278  12.7585341  74.8730278
  32.7041435  12.9116036  75.0019240  82.7502771  83.8901884  90.5063071
  83.3239694  83.2579095  90.0734898  82.3263831  84.3598635  89.7880107
  20.2236986  40.4840660  27.6314306  19.5716524  40.8491945  28.2295513
  21.0652995  40.7148314  28.0247331  60.9007835  59.3320322  33.2510829
  61.0451508  58.9125443  34.0992713  60.3324604  60.0771666  33.4460402
  95.0771709  97.4686105  86.5537801  94.7161956  96.5847261  86.6221797
  96.0257573  97.3404796  86.5523726  21.9247626  88.3819945  84.5577121
  22.7933310  88.5912521  84.9012679  21.3571166  89.0689928  84.9070591
 108.8873931  24.3328978  76.0294414 108.3102938  25.0949265  76.0794747
 108.3659311  23.6665083  75.5819631  47.8555489  70.1299858  28.3658361
  47.4452639  70.9546804  28.6261797  47.1290493  69.5873070  28.0593610
  52.7054691  35.1351762  13.0335963  51.9248819  34.9542379  12.5099766
  52.4759054  35.9105968  13.5457063  76.8003459  91.2631161  86.8654191
  76.0071345  91.1750467  86.3369384  76.8595286  92.1996195  87.0543340
  51.5089750  74.7974777  14.1481686  51.2365818  73.8840294  14.0607297
  52.3539925  74.7536373  14.5956671  31.1704183  57.1438217  14.6975815
  31.9728351  57.4363518  14.2653954  30.9517574  57.8530264  15.3021038
 111.7083903  18.6581398  81.1897683 110.8344790  18.2707812  81.1401606
 111.5592428  19.5442368  81.5196496  73.3969069  68.4305048  13.0580151
  73.3132982  68.6233521  13.9918518  74.0938091  67.7760887  13.0100501
 102.6759454  26.0220887  59.9574423 102.5744315  25.1296069  59.6266747
 103.3180138  25.9444119  60.6630945  18.9400672   9.6488167  72.8364027
  18.9578962   9.7428204  71.8839967  18.3674287   8.8977982  72.9922700
  31.3606738   4.3824078  81.3259143  30.8092689   3.6066080  81.2243378
  32.2338914   4.0917326  81.0627985  17.0517778  40.2935934   8.8345069
  18.0083108  40.3286982   8.8411522  16.7821348  40.9985971   9.4231439
   2.5616836   9.2234017  83.2828003   2.3276424   9.7391487  84.0544611
   1.7491817   9.1616417  82.7805477  77.7398343  70.2373702  56.2149310
  77.5683637  69.3374379  55.9375238  78.6659999  70.3765817  56.0172868
  53.2700677 103.4623344  83.2541335  53.9193697 103.3296068  82.5634658
  53.6009546 104.2087800  83.7536955  20.4527259  38.4388828  22.3051548
  20.9059429  39.2181063  21.9832206  20.9265232  38.1979871  23.1012177
  41.4959240  78.3788204  20.3596735  41.2064886  78.1653929  19.4725955
  41.5342760  79.3351221  20.3755188  36.4121532  36.7763686   6.5161622
  37.0190239  36.1054087   6.8288183  36.1758018  36.4927554   5.6330240
  27.4105405   4.2027689  87.2674569  26.6056155   3.6979224  87.3834661
  28.0933761   3.6581828  87.6591045  90.8124633  91.5618808  75.2973938
  90.3978105  91.8987448  74.5031536  91.3352676  92.2942765  75.6237388
  52.1458054  35.4643488  28.5380745  51.7127085  35.2769303  29.3708611
  51.8510771  34.7668529  27.9525304  42.0261621  75.1757526   1.0868324
  42.6927757  75.8237982   1.3146231  42.3273325  74.3667841   1.5004767
   2.6587437  89.0008337  46.3199949   2.8093813  88.4885247  45.5255890
   2.6294039  88.3509405  47.0221424   2.5642604  73.8104868   4.4422659
   2.0951730  73.3148193   5.1134586   2.0955488  73.6171913   3.6303684
  62.5140043  63.8983078  69.1634679  63.0586834  63.9441068  69.9492526
  63.1317468  63.9905770  68.4381318  85.7231331  35.8945704  42.4381828
  85.7121372  35.0552034  42.8981543  85.3766155  36.5206432  43.0739403
  61.1686945  52.0581150  26.3317990  60.5741930  51.5908957  25.7448483
  61.1879253  52.9524040  25.9910560 102.1365257  99.9123628  85.0327724
 102.4234243 100.7542713  84.6790576 101.8105026 100.1191432  85.9086609
 104.5194478  93.5891349  90.3511865 104.2568250  93.9784725  91.1852577
 104.6763749  92.6673658  90.5560048  55.0957966  38.5742259   4.2148712
  55.4243231  38.8106942   3.3474696  55.6410313  37.8350163   4.4841641
  39.4659662  38.6075140  74.5260155  39.9630212  38.0712820  75.1437724
  39.9673843  38.5619856  73.7119281 103.6328550 103.4462459  68.8732719
 103.5203214 102.8022106  69.5724034 104.5807023 103.5588748  68.8016701
 106.4902730  75.8954818  62.5876474 106.5882917  76.7432387  62.1541381
 106.2712522  75.2887399  61.8804526 102.7883096  98.2681758  88.7879632
 103.0759235  97.4579008  88.3672929 102.0234247  98.0120666  89.3033144
 109.9425168  96.8873460  58.4146786 109.6347852  97.4513824  59.1241884
 109.2271037  96.8905122  57.7787495  58.4215402  29.5174052  81.3800144
  58.1282377  30.3851725  81.1021960  59.2930650  29.4245840  80.9952271
  44.6751364  89.7948367  75.9336102  43.9042933  89.7839863  76.5009868
  45.4089858  89.6215303  76.5232396 108.9804836  81.2216146  63.5718799
 109.0666290  81.8124540  62.8237343 108.0566640  81.2775619  63.8161302
  61.0147429  47.6761818  30.9858990  60.7886362  47.3205185  31.8453264
  60.4467535  48.4401226  30.8858538  15.4790151  56.8659449   5.6939232
  14.8888075  57.2721291   5.0591785  16.3442743  57.2084188   5.4697180
  71.4755173  79.7411902  82.1818912  71.1715622  80.2825911  81.4533800
  70.6806393  79.5309622  82.6719987  44.6691847  88.7666988   8.9748329
  45.2069664  89.1335297   8.2730818  43.9728975  89.4105816   9.1045290
  84.6083732 103.1651885  78.8254941  85.3978725 102.7720172  79.1974306
  84.0523954 103.3483274  79.5828462   9.0441226   1.8917490  82.7138847
   8.4641217   2.6251770  82.5091439   9.6003341   1.8029715  81.9399494
  35.4069471  14.6053530  81.6650408  34.8969363  14.7756840  80.8731377
  35.9028148  13.8115574  81.4644539  17.8389548 100.9689004  63.3355355
  16.8974493 100.9376104  63.5053015  18.2287119 100.4724367  64.0551448
  63.4929323  59.2375660   3.5148633  62.6158667  59.5939398   3.6562493
  63.3412027  58.3615160   3.1602612  95.0506636   8.5626389  76.1497986
  95.8255669   8.1790234  76.5604055  94.6183797   7.8254773  75.7185650
  73.2514139  97.2291000  86.9945711  72.9802938  98.0632741  86.6113240
  74.2073055  97.2745616  87.0155042  38.4297824  56.6631031  18.1975210
  37.8113770  55.9668207  18.4188855  39.2248201  56.2014961  17.9309380
   3.1022548   4.6686770  85.3201264   3.0271768   4.1218020  84.5381260
   3.3492183   5.5311610  84.9864280  90.5970097  47.8424931  20.1836419
  89.9220657  47.2090483  20.4274249  90.4819012  47.9643774  19.2412364
 102.9872461  65.9443612  49.1147518 103.6775728  65.6518502  48.5196781
 102.9908414  66.8982513  49.0353012  52.3327302  17.2334601  59.5068884
  52.4799775  16.3564564  59.8610306  51.5665006  17.5574232  59.9803543
  84.5220228  87.9188568  67.0642924  85.3567834  87.8091318  67.5196648
  84.3894000  87.0900090  66.6042328  65.5789471  35.4799867  29.5057750
  66.3085222  34.9929810  29.1226530  65.9854555  36.0383725  30.1684904
  12.0186090   4.5078780  83.5401112  12.8053283   4.8793150  83.9392847
  11.7355489   3.8303162  84.1541290  88.7755736  37.1473051  79.1156805
  88.7162002  36.4912535  79.8101616  87.8758296  37.2499205  78.8055766
  57.1618462  16.9200182   2.3152637  56.5345621  17.0706439   1.6081151
  57.2310543  15.9672010   2.3751223  33.6366558  65.5094147   2.0214242
  33.4565926  64.5976162   2.2504029  34.0779757  65.8671665   2.7918026
  74.5969076  68.8071782  69.0225244  74.1824289  68.7800832  68.1601429
  75.0169130  69.6665151  69.0595078  82.9634571  56.4498234  29.2845726
  82.9550648  55.5617428  28.9275384  83.8639069  56.7495966  29.1598749
  27.8046273  17.8242852  67.7957726  27.9699420  16.9217421  67.5231504
  28.2171582  18.3588053  67.1172905   2.1752571  10.2321221  90.0159632
   2.0720815  11.1628558  89.8176655   2.5596236  10.2151419  90.8924366
  18.9756392  86.6132529  43.5815859  19.0356825  87.5670750  43.5282040
  19.2878722  86.4024885  44.4615412  69.2140718 104.2089851  72.7412760
  69.0295287 105.1481969  72.7487576  70.1092310 104.1381318  73.0727899
  61.4157724  56.2024832  17.7271509  61.2246609  55.7793951  16.8900716
  62.3168612  55.9468985  17.9244900  92.1783813  29.5088793  77.8775954
  91.5345319  28.8662936  77.5796497  92.5213595  29.1438033  78.6932659
   2.2990083   6.6750075  71.5674889   1.5323567   7.2474696  71.5951490
   2.7693414   6.8651892  72.3791862  76.5896893  73.0254936  28.0083656
  77.4703264  72.6507998  28.0260682  76.7217827  73.9563131  28.1882524
  22.4479722  24.7867896  61.9069624  22.2355127  25.3263880  62.6684928
  22.5266456  23.8992621  62.2567344  39.3175864  56.5160179  25.7360029
  38.7039924  56.6268778  26.4622545  39.7739649  57.3554039  25.6777811
   7.8068446  22.2604777  64.2615414   8.2152652  23.0545308  64.6063709
   7.2238111  21.9675042  64.9618769  35.8547305  25.7897879  81.7370683
  35.2504777  26.4455391  82.0850611  35.7191800  25.8178879  80.7899320
  13.4399509  38.6497332  72.4794745  12.5602960  38.7014605  72.8533232
  13.3077668  38.7679697  71.5388465  95.5666442  87.2922928  79.3120897
  95.9559961  86.9377358  78.5127604  96.2684293  87.8048189  79.7134030
  28.0884647  18.8497425  88.7243795  27.4608325  19.5719410  88.6972496
  28.7328624  19.1169335  89.3798143  93.3945508  96.6816432  82.3186135
  94.3227525  96.8568714  82.4734384  92.9430147  97.1375615  83.0288833
  70.1901674  50.8767462  28.6316299  69.9583244  50.1208544  28.0920839
  70.3007412  51.5926981  28.0059958  59.8398590 103.9927864  19.1471362
  60.4712439 103.2951164  18.9715278  59.1694546 103.8844872  18.4725523
  98.4424920  99.8571927  72.4058056  98.2498355 100.7264478  72.0543671
  97.9920574  99.2544277  71.8141866  55.5709410  56.2404776   1.4908938
  56.0580015  57.0361328   1.7052133  56.0357141  55.8699179   0.7406244
  88.2242294  91.5117414  69.6174288  88.0202337  90.8657963  68.9411330
  87.3966165  91.9676144  69.7706461  73.6608696  93.7442017   3.3114734
  73.5511541  92.9135799   2.8485918  72.9787636  93.7361145   3.9829645
  36.1017322  11.6396071  60.8964682  36.8580865  12.2262026  60.8880925
  35.6629943  11.8263317  61.7264533 108.7768003   0.0299288  67.9068494
 109.1553875   0.0877406  67.0296025 107.9679795   0.5389573  67.8526783
  29.2639493  34.2461039  85.5839372  28.8008212  34.1744830  86.4185724
  29.2641973  33.3555628  85.2329743  37.5805616  55.8126116   6.5824586
  36.8559575  56.3491678   6.2610793  38.1759548  56.4373732   6.9964790
   2.7716731  13.0809380  57.6849055   2.0409679  13.6318661  57.9655933
   2.3640012  12.2521759  57.4335313  21.3480471  77.5995428  53.9840078
  21.7935370  78.4107621  54.2283225  21.0118197  77.2526986  54.8103738
  53.1729126  72.6816511  16.8863010  53.7305927  73.4049082  17.1728694
  53.7441921  71.9140434  16.9118619  54.3566751   6.4444996  86.1663413
  54.4426393   7.2626997  85.6770670  53.4737062   6.4771963  86.5344787
  42.6357365  76.9775295   3.2495624  43.1630135  77.1481085   2.4691051
  43.0101347  77.5479078   3.9209220  57.0902157  44.3629503  20.7327795
  57.3110962  43.7100601  21.3969922  57.9093742  44.8331213  20.5773664
  12.8694108  33.1544423  37.0132399  12.5953820  34.0285420  37.2908783
  12.1797326  32.5737953  37.3348188  40.0792169  10.5942227  72.6354635
  40.0527953   9.8634793  73.2531595  40.6450462  10.2883030  71.9266045
  94.4990540  74.1369438   9.8137480  94.9177837  74.2630577  10.6652105
  95.1441860  73.6520529   9.2990470  91.7804046 105.2334268  81.9548416
  91.8104883 104.7458656  82.7780145  92.5233503 104.9000509  81.4517260
  11.7380571   2.4938942  87.7067721  11.7190313   3.4028222  88.0063087
  11.0054635   2.0768858  88.1602466   4.8537158  23.6984850  84.7594333
   4.8850297  22.9973055  85.4102790   5.2905416  24.4376780  85.1825225
  80.7315636  29.6225286  20.7039618  80.1687336  28.9829254  21.1402774
  80.5810928  30.4387093  21.1808681 106.8585607  23.0078341  63.0778956
 107.1484514  23.7648608  62.5688744 106.5536471  22.3807932  62.4220896
  52.7278996  44.3233109   7.9017276  52.0207405  44.5218801   8.5155082
  53.0433130  43.4605360   8.1707287  62.4295664  53.5680008  10.9985101
  61.5410185  53.4315062  10.6697571  62.5124168  54.5183420  11.0773742
 111.2628099  39.9906947  68.5823226 111.1933752  39.5567633  69.4326782
 111.6939994  39.3474699  68.0196834  55.6094122  78.8732338   5.8614069
  55.4219151  79.2994642   6.6977113  56.2084103  79.4725323   5.4161274
  50.9895372   6.8757702  73.0039775  50.2083444   7.2640110  73.3979762
  50.8126592   6.8839909  72.0632982  83.1871510  88.3354950   9.8800206
  83.9143372  88.4337902   9.2653835  83.1837368  87.4039173  10.0999963
 102.4693509  34.6604182  65.7984757 101.7970058  35.3363921  65.7133722
 102.8708287  34.6113612  64.9309278  42.9312371  12.5175120  59.9991918
  42.1210860  12.0844914  60.2682304  43.5255574  11.7995526  59.7811270
  64.9924755  58.8562393  21.6414022  64.7377157  59.7226572  21.9586468
  65.2017832  58.9915657  20.7172227  81.7192173  44.2948341   8.9706481
  81.4641857  44.8119783   9.7346842  82.4241924  43.7304068   9.2879367
  40.6380891  37.2484232  84.5030600  41.5351295  36.9154383  84.4772524
  40.1720046  36.6371275  85.0734222  16.4926957  14.3286158  41.5134716
  16.9850826  14.6745469  42.2578621  16.6129588  14.9805380  40.8229828
  54.2419863  56.1588764  14.7795951  53.8002920  55.6637001  15.4694784
  54.3550158  57.0349026  15.1484299   0.4912398 101.7651939  31.9261146
  -0.0260368 100.9829903  31.7342329   1.0937792 101.8413162  31.1862612
  24.8314739   4.0479774  22.9955316  25.0080479   4.7639770  22.3852921
  24.1029037   3.5699004  22.5994730  15.3665353  24.9084300   6.5614921
  16.0043216  25.2632541   5.9421694  14.6975518  24.5025176   6.0101914
  88.7063535  63.4191634  69.9175906  87.7645036  63.2641055  69.8461485
  89.0943154  62.5441386  69.9112296   5.9499347 101.7744827   0.4833269
   5.3208745 102.4616528   0.2635475   6.5197021 101.7171192  -0.2836849
 102.6375142  68.6827898  10.7536566 102.7146956  67.7352285  10.6422806
 103.3055636  69.0473843  10.1731312  57.7526618   7.5668258  28.1302500
  57.7811290   8.3503455  27.5811410  57.8911997   7.8924769  29.0196228
  26.1494041  17.2869128  23.0490971  25.3197683  17.4488181  22.5999618
  26.1125172  17.8422374  23.8278699   3.6943454  51.4394522   4.0982705
   3.6642238  50.5343008   4.4081530   3.7640256  51.3645935   3.1465498
  26.5140700  70.2541447  19.0177727  27.2221088  70.2925014  18.3747804
  26.2567782  71.1672306  19.1454744  27.2009087   6.5035838  60.7575083
  27.4486203   6.4871043  61.6819525  27.7769274   5.8607787  60.3437042
  53.3821774  83.7680531  14.2111456  52.8221273  83.8371944  14.9843180
  52.7762318  83.8140965  13.4715903  42.1806240 101.3810825  63.9826202
  41.6026735 101.9362354  63.4591627  42.2862768 100.5858040  63.4605074
  36.2914620  26.0797996   7.0345324  35.5401108  25.6805724   7.4730742
  36.2923362  26.9871825   7.3392981  35.3091275   8.6249942  43.8771772
  35.6812010   8.9719218  44.6880007  34.3623356   8.6623973  44.0128946
 104.6913865  39.6299052  38.0346727 104.5119658  39.3652010  38.9368773
 103.8461569  39.9302506  37.7005911  67.3220775  87.6491165  41.6510248
  67.6932761  88.3336639  42.2076559  67.0831344  88.1015778  40.8420610
   7.1272510  78.8313437  12.8336656   7.1040398  79.4129562  13.5935485
   7.0599091  79.4183636  12.0806015  19.3137562 104.9517441  14.8671091
  20.2436113 104.9850559  14.6423995  19.1618788 104.0422630  15.1240349
  36.2328070   1.6174430   4.5793012  37.1896772   1.5932197   4.5726025
  35.9933259   1.8686408   3.6872363  22.9194212  52.3201418   8.8252270
  22.7731299  53.1155920   9.3371713  22.4798012  51.6307545   9.3229353
  27.9450609  59.1338627   0.3723812  28.0443813  59.9047654  -0.1862621
  28.8165094  58.7383645   0.3919411 110.3884347  87.8689671  50.8044195
 109.6769197  88.0545902  51.4172173 110.0070032  87.2602367  50.1718092
  49.6670569   6.7162436  59.8492527  50.0701845   6.9699592  59.0189791
  48.7424362   6.5882129  59.6373177  64.3072153  21.2933463  14.9300551
  64.0313984  21.0494536  14.0464962  65.2592302  21.1943835  14.9196577
  39.9440289 102.4894047  29.7632933  39.3182969 102.2576523  30.4495764
  39.7191405 101.9160271  29.0305614 101.2148604  73.8034916  42.5100470
 102.0463035  73.9187288  42.0499897 101.4375278  73.9028263  43.4356737
  88.1146142  71.2894201  66.4209366  89.0550873  71.3342571  66.2485075
  87.7698633  72.1169281  66.0853624  78.6067391  17.7417296  52.2592974
  79.2784501  17.0646304  52.3404217  78.7577010  18.3196944  53.0072212
  30.6825328  97.5444126  52.5652266  30.6486440  97.7179623  53.5059500
  30.4000497  96.6338825  52.4793243 106.5662304  91.4294624  38.2023025
 106.6135743  90.4929352  38.0101991 106.8243024  91.8550205  37.3846650
   1.9377209  74.6251678  38.4338808   1.6946629  73.7164450  38.2567239
   1.3012105  75.1436567  37.9416919  27.0650829   3.2260150  59.6259260
  27.4039996   2.3423213  59.4829082  27.8235365   3.7964934  59.5013189
  45.0617790  99.4932842  40.0551701  45.6672001  99.0164757  39.4874096
  44.3987036  99.8417664  39.4592524  86.8723604  56.6481400  35.7816720
  87.2845289  57.4457169  35.4496741  86.2880179  56.3692188  35.0767064
   2.4606107  93.6226463  32.5472569   2.2755551  94.5613956  32.5742888
   3.4096238  93.5687542  32.4345565   4.8562148  96.2293625  24.0100098
   4.7866580  96.5855503  23.1242776   4.1207945  96.6186333  24.4831443
  30.4512400  11.0344428  44.8363781  30.9565283  11.3686961  45.5774498
  31.1118818  10.7422656  44.2083502   7.9983927   4.4910735  79.2942333
   8.7460352   4.6823329  79.8605204   8.2606769   4.8166102  78.4331512
  24.2040087   5.0774592  39.8695397  24.5106948   4.4119090  40.4853439
  24.9616028   5.6469268  39.7354174   9.6093488   7.5479049  67.6506710
  10.2252484   7.3247069  66.9527626  10.1601244   7.8839129  68.3577633
  28.0941391  83.4355068  23.5512710  27.8740501  84.3413639  23.3339882
  27.2508836  83.0217361  23.7354970  -0.0231353  34.4148111  50.8516359
   0.2558040  34.1647267  49.9707937   0.4776167  33.8425064  51.4329720
  80.7330295  68.2306147  27.3556376  80.9217665  68.6911488  28.1732678
  80.7285115  67.3045874  27.5978756   5.2756619  67.0579433  40.1386404
   4.9831480  66.4247847  40.7942104   5.3050464  67.8919268  40.6075096
  19.2904663  57.5045538  14.3453658  18.4773350  57.1246624  14.6781290
  19.5642924  58.1186724  15.0266206 108.8478547  63.3512354   1.8231831
 109.0622565  63.5927343   0.9221041 109.0882859  64.1196918   2.3407726
 105.8997676  91.3736629  24.6350026 106.5594801  92.0648575  24.5779276
 105.0758669  91.8400097  24.7762179  32.3389781  11.7102164  37.5444269
  32.3523477  12.6595897  37.6658845  33.0191297  11.3837832  38.1335497
  10.3518713  78.9419603  17.1938229  10.5716264  78.0286312  17.3775911
   9.4184417  79.0088606  17.3949814  16.6632367  10.4853744  18.2015944
  15.8834172  10.5664367  17.6524651  16.3459826  10.0833529  19.0102768
  43.4101064   7.2022170  45.2191496  44.2117716   7.7241534  45.2529478
  43.1462116   7.1090144  46.1345196  37.9466438  88.4156513  36.3237548
  38.3652973  89.1859722  35.9396195  37.2101426  88.2281208  35.7418346
  17.3074543 105.4983807  25.6483221  17.3045361 104.5421886  25.6920981
  16.7493320 105.7731533  26.3758039  45.7210016  71.4070368   1.9405432
  46.5902042  71.4367867   1.5407534  45.3872204  70.5365562   1.7235379
 104.7479764  84.7088814  34.7277975 105.0473294  84.8483467  35.6262207
 105.4166886  84.1463566  34.3371272  23.4264029  36.1921901  15.4809785
  24.1270054  36.8352431  15.5898941  22.8415311  36.3472575  16.2226713
 105.1353720  82.9326820  59.2576456 105.4117486  83.8328457  59.0857506
 104.6215436  82.9895878  60.0632334   3.5031036  26.5830726  30.6999493
   3.1540493  26.8621940  31.5464020   4.3345646  26.1588115  30.9118724
  29.7518165  29.4044131  39.3570733  29.2461468  29.7838611  38.6383605
  29.4816322  29.9019927  40.1288557  11.1069608  83.5160255  76.2013912
  10.5900204  84.3021870  76.3773298  10.5690980  82.7966881  76.5322685
  15.7014799  62.6487684  60.0765038  16.5052474  62.1835947  59.8445606
  15.6015813  62.5001526  61.0168076  35.8267856 101.7904568  42.8396463
  36.4998603 101.8594074  42.1625566  36.1890960 101.1735821  43.4755898
  20.9706879  84.4445515  10.1856375  21.8035698  84.3032265  10.6357110
  20.5868149  83.5707664  10.1122725  21.3453722  62.7955103  21.9898105
  20.5932879  62.5250626  22.5165558  21.5809631  62.0140743  21.4897275
  90.7178780  87.9208946  43.0702019  91.2454960  87.4630642  42.4158001
  91.2727067  87.9467773  43.8497686  13.4596299  46.3135077  90.4688232
  13.5376453  45.3719164  90.6222918  14.1743039  46.5179182  89.8657534
  44.6372933  28.0656547   6.0242051  45.2532507  28.6046618   5.5279183
  43.9292730  27.8811664   5.4070336 104.4625553 102.0987988  28.1470919
 104.3850002 101.2434769  28.5697579 103.5782298 102.2937679  27.8369474
 100.5391094  98.0949974  16.6538644  99.9932572  98.5478878  17.2966480
  99.9170539  97.6151466  16.1070359  16.5289092  42.5981474  15.1055300
  16.3415492  41.6843510  14.8908293  17.3129547  42.8075457  14.5979297
  55.7285643   3.5979861  30.2853322  55.7214189   2.8165931  29.7325182
  55.2689040   4.2604941  29.7695494  59.0070629  95.2170944  36.9156432
  58.0502272  95.2275181  36.9397259  59.2211962  94.9290657  36.0282779
  92.0797810  59.7426081   3.2106951  91.6508171  59.5300102   2.3818254
  91.6811678  59.1479683   3.8461021  55.2256764   7.9637927  22.8569341
  54.8826278   8.2660216  22.0159769  55.8139873   7.2434253  22.6306772
  43.5636551   4.3137759  41.0942936  42.6390726   4.0691680  41.0549450
  43.5601247   5.2105636  41.4289331  63.0264831   6.5144176  16.5988195
  63.3592416   6.1999244  15.7582283  62.3226810   5.9048862  16.8209994
  29.7825599  61.9262886  40.9293413  29.2711711  62.7327871  40.8639669
  29.2353916  61.3371706  41.4487505  10.7186615 102.4460793  32.1220112
  10.7801878 101.9374180  31.3134885  10.9996498 103.3265781  31.8730092
  57.0349158  13.4958095  51.7906952  57.4059129  14.3362826  51.5219831
  56.0880852  13.6351317  51.7723989  59.1448928  13.3822745  54.0634966
  59.3831898  14.3000239  54.1946220  58.5358048  13.3961028  53.3252192
  45.5676717   7.3520106  42.7007532  45.5716873   6.7815799  41.9321012
  44.6739537   7.2927016  43.0383635  72.9017871  51.3927294  87.6143017
  72.9665761  52.2730280  87.9845771  73.4667753  51.4155699  86.8419686
  77.9588891   6.3632125  43.7249470  78.0816127   6.3497275  44.6741486
  78.3889485   5.5656261  43.4164858  29.5278854   3.4450740  24.9979019
  29.7666515   2.5432223  25.2121091  28.8807274   3.6854381  25.6609559
  79.7528077   1.1015338  39.0393066  80.4551841   0.4512710  39.0320587
  80.0158931   1.7455882  38.3818793  60.7647228 105.3488350  45.5040693
  60.9273195 104.9538898  44.6474457  61.6188288 105.3437614  45.9361649
  18.1602669   3.8574142  36.4781904  18.7301744   3.8408107  35.7093191
  18.6496247   3.3817214  37.1493626  32.4081779  84.9049187  60.7746935
  33.2261562  85.2275085  61.1529589  31.7589140  85.0286865  61.4670610
  17.7591276 102.7307892  53.1845140  18.7137103 102.6833248  53.2369518
  17.4644125 102.6342583  54.0900803  43.8958454  88.6820316  29.9876380
  43.1650734  88.6127949  30.6019783  44.4444752  89.3799019  30.3457093
  30.0010848  94.5623016  15.3769422  30.2264929  95.1223373  14.6341193
  29.4856787  93.8524246  14.9939799  33.6420774  81.0691357   1.6015737
  33.0389166  80.3470230   1.4255585  34.5088196  80.7079601   1.4157151
   0.6248473  83.8578701  30.6141448   0.2890555  83.7899780  29.7203517
  -0.0959644  84.2434025  31.1121678 105.5862120  77.9474592  24.4821858
 105.3507337  77.0967960  24.8525262 104.7652808  78.4395885  24.4715595
 105.2994707 103.9587212  47.2500181 105.2523282 103.0928707  47.6553822
 106.1560217 104.2982769  47.5093460  14.9491417  84.9952793  36.5128779
  14.5636106  84.4284534  35.8448172  14.3120444  85.7007885  36.6251111
  64.3784261   8.4452838  12.1788251  63.5136677   8.5115737  12.5838315
  64.2605830   8.8095397  11.3015211  33.5710716  85.3081226  22.8550267
  34.0102983  85.0139618  22.0570421  32.6503944  85.0850773  22.7177906
  40.8881656  37.9457015  40.8935738  41.4084829  37.9003543  40.0914240
  41.1930937  38.7399215  41.3322783   2.2534399  81.9058228  36.8210840
   2.9598445  82.4864960  36.5381575   2.4704778  81.6887188  37.7277231
 110.6535135  88.5023689  12.0464206 109.7512041  88.7898159  11.9069791
 110.5768563  87.7468109  12.6290679  91.5664674   1.6223163  31.1566639
  90.6655837   1.9443625  31.1262369  91.5391541   0.7895011  30.6855845
  63.5919429   3.3333510  30.7621074  63.3189274   4.0998000  31.2663436
  62.7789689   2.9861564  30.3950071  10.3271639  97.8222847  37.2094297
   9.5852214  98.3775139  37.4491811  10.6067014  97.4264622  38.0349088
  47.4497366  88.4424210  30.7934666  46.8288231  89.0071583  31.2536669
  47.0922279  88.3641434  29.9089932  47.5964428   6.2723178  53.0644941
  47.9965223   5.6644744  53.6863327  47.9484046   6.0107249  52.2136593
 107.0905367  75.6337214  35.8556890 107.9230198  75.3453779  35.4814434
 106.8047300  74.8990154  36.3985968  86.0161516  51.1148405  29.1752768
  86.8347785  50.6681633  28.9594960  85.5225965  51.1197519  28.3551502
  83.7160346  62.9195213  10.8328485  84.4629118  63.5179281  10.8150876
  83.1994531  63.2035351  11.5869761   0.5013955  58.2878113  28.2720828
   0.8016865  57.8722668  29.0804029   1.1593410  58.0466175  27.6200366
  14.0728164  45.9957981   7.5929213  14.8343885  46.5554714   7.7446055
  14.3822384  45.1116943   7.7900290  14.9721515  41.7261744  39.7130847
  15.6210577  42.2415686  39.2339993  14.2332542  42.3228025  39.8326540
  10.0120020  76.6750240  38.2597852   9.1663963  76.9110966  37.8784037
  10.4290581  76.1256075  37.5961304  16.2344290   0.5844707  32.0495629
  15.3667618   0.7831973  32.4015498  16.4768053  -0.2439195  32.4633980
  22.7896881  53.1436348  24.4372153  21.8425608  53.2788467  24.4672108
  22.9701209  52.9141951  23.5256028  81.0869832 101.3090713  88.1668669
  81.7200275 101.3094909  87.4488944  81.4293428 101.9514806  88.7884229
  79.1675946  45.6985092  13.9238095  78.5990164  45.4949427  14.6664476
  79.7237417  46.4120674  14.2364919  34.6721506  64.6392536  11.5720761
  35.5681419  64.8184967  11.2869346  34.7732687  64.0799761  12.3422790
   6.8978006  48.3256388  24.2399263   7.3941433  47.5564384  23.9602637
   6.0938364  47.9679394  24.6166563  84.7864506  67.9562283  11.1415398
  85.1445433  67.0735359  11.0474336  84.0206406  67.9664946  10.5673790
  16.2642467  62.5593376  15.6884718  15.4757309  63.0310822  15.9566724
  16.7808342  63.2083654  15.2108443   6.3129097  57.4651670  15.1730907
   6.5528089  58.0641031  14.4660151   5.7175398  56.8374157  14.7635841
 103.3730558  54.7624302  14.2187297 102.9969355  54.7683334  15.0989175
 102.9650822  55.5083275  13.7789249  89.3067905  17.7529122  67.3417449
  88.4049710  17.4600006  67.4727154  89.2218777  18.6141278  66.9326782
  39.1304469  94.2560291  41.3021421  39.9251246  94.7545338  41.4924335
  38.9268732  93.8073826  42.1228170  82.7968898   8.9489962  83.8437897
  82.3193737   9.7177245  83.5319215  82.7171852   8.9879061  84.7968709
  94.8888919  80.7545567  33.0784845  95.4974207  80.2130508  33.5811734
  95.0932798  80.5587673  32.1640873  51.1799140  91.5992768  86.7234948
  51.2378772  91.9376953  85.8299929  52.0874973  91.5640910  87.0256311
  19.4977665  77.6112032  41.4919615  19.4504035  78.2986450  40.8275700
  19.8564613  76.8544292  41.0284281  87.3789784  42.2767950  77.2337842
  86.9540163  41.4191462  77.2249424  87.2879013  42.5799204  78.1371391
  94.5291337  77.3881149  31.1573386  94.1493472  76.6592789  31.6480446
  95.4455122  77.4107265  31.4329648 104.2895313  14.2816378  87.0318916
 105.1683684  14.2813088  86.6525793 104.0121552  15.1969363  86.9928446
  89.3402788  32.3965430  24.4587135  89.9056908  31.8703365  23.8933396
  88.5488769  31.8685365  24.5641875  97.6111719  77.0432186   5.6390893
  98.1754348  77.6121616   6.1626792  98.2178494  76.5270901   5.1082528
  79.0922721  43.7828089  81.9435769  78.2530578  44.1183115  82.2588366
  78.8851943  42.9208971  81.5823823  82.4203941  51.6291618  24.7771263
  81.6471645  52.1292400  25.0384068  82.2874209  51.4516068  23.8459849
   9.3527085  48.4651184  42.4366093   9.1107476  49.3123007  42.0624876
   8.5255235  48.0936575  42.7432299  48.7279987  64.6117067  61.0367441
  47.7948475  64.8225641  61.0052299  49.0148354  64.6575165  60.1246834
  66.1108198   2.2992922  90.5647288  65.4113968   2.1946217  89.9196836
  66.9154771   2.1278597  90.0754758  49.5223499   9.4363421  67.2428083
  49.8682678   9.6867770  68.0994606  49.5258594   8.4792060  67.2535753
  91.8917343  68.2742929  25.6751609  92.3352286  67.4263668  25.6514120
  92.3399422  68.7596989  26.3677812  13.3523321  20.4757047  12.9827321
  12.4689496  20.5077004  13.3499420  13.3249998  19.7530651  12.3556149
  39.1223382  29.9195975  23.6070681  38.2070751  30.0650424  23.8465905
  39.5688207  29.7781962  24.4418669  11.6335821  68.5032463  42.1668959
  11.1879373  67.6747274  42.3434973  11.5391743  69.0035200  42.9774809
 111.0422719  50.8581448  13.4104300 110.6010833  50.6209707  14.2261112
 110.5429649  51.6031408  13.0759156 107.2760454  27.8476644  43.8017702
 106.8447497  28.5682321  43.3424234 106.9720060  27.0600128  43.3507681
   4.4449246  71.2141228   2.5138423   3.9075035  70.6938410   3.1111008
   5.1740164  71.5206194   3.0530253   8.0454981  41.8046856   2.5847092
   8.1847346  42.3002291   3.3917290   8.6561066  42.1919489   1.9574808
  62.9520245 102.3222167  88.7424591  63.2762928 101.4833982  88.4146395
  62.2182341 102.0895345  89.3113545  97.7580938  31.5900779  26.3927126
  97.2828385  31.5826058  25.5618644  98.6417863  31.3005686  26.1657715
  15.5802000  62.5981092  32.8626847  14.6844840  62.9350758  32.8431964
  15.7696700  62.4751806  33.7928581  97.3134074  42.0404100  34.9205256
  97.2735688  41.7186546  34.0199065  96.7088410  42.7823448  34.9367642
  61.9320533  57.6277351  35.3262043  61.9808432  57.2426701  36.2011766
  62.8008601  58.0021429  35.1805115 102.7294704  69.3040276   1.3068733
 102.1504298  68.6177015   1.6383889 103.5633346  68.8600540   1.1526404
  71.9437211   7.8139569  79.2082441  72.1177166   8.2511021  78.3746600
  71.4699479   8.4650303  79.7258139 105.2523068  63.1325293   9.6943247
 105.8323196  62.4477148   9.3613893 105.4677704  63.1974792  10.6246948
  65.6777116   6.7809130  81.0787833  66.5059706   7.0055462  81.5027606
  65.0901064   6.5619398  81.8019742  27.9036832  60.0034809   5.9774303
  27.6178455  59.0901661   5.9579426  28.3505058  60.0967073   6.8187928
  14.9646366  97.3834705  15.9613931  15.5780411  98.1179333  15.9382892
  15.0232828  97.0505142  16.8568993  25.4779601  49.8979044  23.6756730
  25.7112217  50.5105209  22.9781628  24.6121979  49.5725298  23.4290552
  87.0620510 104.4500351  37.2513866  87.7055976 103.8139057  37.5635099
  87.1361586 104.4174290  36.2976170  28.8596291   8.1416434  19.9036539
  28.4479249   7.6618785  20.6223774  28.1260134   8.4874839  19.3952942
  44.3326664  55.0779819   0.4003958  44.5682144  54.2124796   0.0662494
  43.7997961  55.4658413  -0.2937556  13.6674166  59.4402170  32.9792094
  13.6424792  59.7867489  33.8711309  13.1599152  60.0675106  32.4642587
  11.6394722 100.2466106  18.4436035  11.4648354  99.3369007  18.6847401
  12.2388279 100.5627728  19.1196573   4.0784863 100.7780552  14.5667338
   4.6119934 100.6578255  15.3523195   3.6227107  99.9435520  14.4567025
  19.4704974   3.5872668   0.0608333  18.7446094   3.0475444   0.3739099
  19.1326738   4.4824428   0.0885063 106.8488270  71.3471079   3.9551190
 106.2525848  71.6467285   3.2688594 106.4720020  70.5200577   4.2554945
  86.8927956   1.3273067  17.0780325  87.0562793   1.9379443  17.7967989
  86.9220830   1.8708247  16.2906539  94.0513536  62.8793859  56.7149878
  94.0527770  63.8094044  56.9414663  94.1447291  62.8646898  55.7624674
  34.7583728  98.5863073  90.5363099  33.9881675  98.0763585  90.2853741
  34.8747021  99.2120130  89.8213324   6.2160140  68.9854479  21.9438362
   6.9837505  69.2459202  22.4527240   6.5218258  68.2553101  21.4056778
   3.0718160  88.6695766  16.9792902   3.1021330  87.9395962  16.3608694
   2.3496419  88.4537888  17.5693190  26.6223621  90.4622078   5.9744000
  25.6858850  90.3515148   6.1386895  26.6831589  90.6208897   5.0324035
   2.3946442  46.4880276  16.2030709   2.2093901  46.1828232  17.0911932
   3.3341861  46.3432312  16.0911489 100.6733223  34.7953917  91.4112613
 100.2691957  33.9824034  91.1080077 100.2243324  35.4836584  90.9204222
  89.3490025  48.0027723  52.5755835  89.0880057  48.7957096  52.1072245
  88.5440847  47.6946783  52.9920197  11.6644681  68.1966829  19.5742393
  11.1952186  69.0286064  19.6370363  11.5575528  67.9297113  18.6612618
  42.8780603 101.8495655   5.1498717  42.4940586 101.0230446   4.8572248
  42.4007416 102.5211906   4.6627203  20.5390787  39.5124102   2.5525624
  20.4439950  40.3504229   3.0052489  19.6552515  39.3009257   2.2519739
  46.1784220  54.2452097  10.6060398  45.2749443  54.4363880  10.8578563
  46.1338711  54.0747261   9.6651983 105.0263795  66.9235945   7.7915579
 104.8912719  67.8490829   7.9951358 104.6496531  66.4567995   8.5374880
   4.3191487  72.3417521  55.0849867   4.7608659  72.6541471  55.8746195
   3.3996677  72.5722885  55.2177906  14.3602228  89.9115276  19.4798958
  15.2798593  90.1115990  19.6544588  14.3643725  89.5009995  18.6152101
 104.1638181  80.2743912   4.7113863 104.5489094  80.9542465   5.2643192
 104.6686587  79.4867086   4.9136588  10.1637745  77.0591640  29.1709495
  10.4573178  77.9616690  29.0462327   9.4911927  76.9314528  28.5019541
  16.9619250  90.0563240  19.6847594  17.2556019  89.3138313  20.2126741
  17.7467096  90.3437233  19.2181253  28.9697552  60.2201986  31.5143704
  29.4906640  59.6070194  32.0329213  28.2172060  59.7066021  31.2209034
  59.7346898  31.0704543  77.3369110  60.6886502  31.0048987  77.2934139
  59.4384810  30.1698424  77.4687755  97.9273698  75.1112604  31.8930912
  97.5674757  74.5328999  32.5655556  98.7195894  74.6656990  31.5929389
  35.5125642  75.9934044  20.6725836  34.8836923  76.2121868  21.3602495
  35.8416414  76.8400717  20.3707647  94.2543527  37.9192759  69.3250155
  95.0306793  37.8462435  69.8801875  93.7293025  38.6057021  69.7365642
  87.8058979  48.8729763  31.6347122  88.2203528  49.6214437  31.2054634
  87.1999833  49.2633915  32.2645330   6.5037429  65.2128124  36.4564371
   6.0464567  65.4704237  35.6559634   7.1853536  65.8757305  36.5668011
  73.8946348  17.4958969  76.4529335  73.2288701  17.6021553  77.1324182
  74.6548505  17.9728676  76.7858076  93.9281770   2.9590441  85.1051068
  94.8280402   3.2840277  85.0757027  93.4550127   3.6105849  85.6226385
  81.5648747   2.4955672  55.1736021  82.0754481   2.6784343  55.9623384
  81.9608165   1.7034549  54.8102760  13.5723007  90.2450275  29.6126294
  13.0311441  90.4570484  30.3731775  14.3067241  90.8568287  29.6632075
  38.9732814  77.9733515  38.5714865  39.6269965  78.5373878  38.1582618
  38.4797144  78.5593176  39.1453028  24.0670156  94.0187550  29.4220877
  23.5287690  94.5796585  29.9805760  23.5613012  93.2106400  29.3358016
 100.2064750  73.4981966  30.9981728  99.9774680  73.7417603  30.1012540
 100.9958336  74.0045977  31.1897540  38.8187838  67.6745462  30.0887942
  38.7765002  67.4500799  29.1592455  37.9481649  68.0162239  30.2925277
  83.9131996  86.6017151  12.5839043  84.6970198  86.4251709  12.0636261
  83.2151386  86.1252022  12.1345878  29.8217607  35.8200383  45.8263445
  29.9261475  35.9098172  46.7735863  29.4965887  34.9280190  45.7046890
  89.3419787  54.1237354  30.1065087  89.9805185  54.8244524  30.2387691
  88.6763307  54.5104980  29.5376897 103.6630055  86.3443661  42.3229837
 104.0707687  87.1832561  42.5379848 104.3892607  85.7923889  42.0329666
 104.9221537  84.7216034   5.0910735 104.9006125  85.6569099   4.8886546
 104.5575455  84.2997074   4.3130636  14.6760321  74.2304277   7.4826908
  14.1386819  73.9571714   6.7391741  14.4596601  75.1544189   7.6078260
  19.2229939  60.9862614  29.0466261  19.0035486  61.7118502  28.4621668
  18.9553511  61.2884521  29.9145436  28.0911803  75.3577471  42.3647642
  28.1733799  74.4055223  42.4171352  27.5952005  75.5114698  41.5606451
 105.1276351   9.5732993  19.2441535 104.1760159   9.6095199  19.3408251
 105.3416968   8.6441058  19.3279171  33.2524633  33.9928055   5.6952131
  33.5324574  34.5605826   6.4131701  34.0526295  33.8230658   5.1980668
   8.9129150  84.3902683  25.5304980   8.2106972  84.7857761  26.0469198
   8.9543313  84.9219799  24.7356439  62.2479316  13.0843283  85.5063468
  62.3368045  13.9503313  85.1083887  61.3826355  13.0963828  85.9154314
 111.5323564  20.9786822  82.8913093 112.4419304  21.2242724  82.7222186
 111.0196682  21.5508868  82.3203790  99.5274338  16.9774413   4.7709790
 100.0526080  16.5961778   5.4745853 100.1521084  17.4872708   4.2551440
  37.1936321  71.1273623  67.5064325  36.7890072  71.8464327  67.9916620
  37.0007539  71.3192701  66.5887165  94.9372741  24.3687130  87.7161008
  94.6301337  25.2743746  87.7569681  95.1717516  24.2365385  86.7975241
  30.9102106  48.9441109  21.0946465  31.7608094  48.5051537  21.1000681
  30.2822971  48.2522106  21.3025665  22.7694082  48.3243656  40.2764940
  21.9104695  47.9077625  40.2064610  23.3627915  47.6114893  40.5130005
  18.6774731  70.5773020  27.5348258  18.2754552  71.4458513  27.5194407
  19.6123064  70.7439041  27.4141479  29.9171567  75.2184486  10.8862436
  29.6784258  75.2097225   9.9593329  29.7524071  76.1184263  11.1675441
  60.8764721  12.8466529  21.0129571  60.4188157  12.1263331  21.4464688
  61.5098310  12.4166793  20.4383159  56.2803837   9.0542914  66.7999744
  55.8345672   8.3553053  66.3215446  56.7481860   8.6029841  67.5026226
  32.5185394  43.9497423   1.2507626  31.9380045  43.6237812   1.9384828
  31.9282436  44.2221069   0.5481954  26.8072033  53.7307310  19.4077480
  26.0661483  54.3210030  19.2711830  27.3168445  53.7952948  18.6000788
  92.3378893  21.0101487  77.8684556  93.2173546  21.3086583  77.6368058
  92.3260745  20.0853993  77.6216185  39.0430544  91.1986763  85.8931214
  38.8286318  91.6636355  86.7018655  38.2045108  91.1051400  85.4410958
  14.1811824  61.0808945  17.5553107  14.6178865  60.8145761  18.3643794
  14.1192257  62.0339584  17.6191092  11.4512825 100.7655621  10.1186109
  11.8114531 101.0301399  10.9650803  11.1398232  99.8715210  10.2597356
  27.4519319   3.6151999  27.2111297  26.6951454   3.4338397  26.6538000
  27.2547401   3.1698627  28.0351591   6.9628912 104.8776722  46.9741917
   6.6682547 105.4729939  46.2849808   7.6413476 105.3670025  47.4394703
   6.1002010  68.1311750  27.0134687   5.5566382  68.9162254  27.0803237
   5.7844967  67.6875925  26.2261963  39.3275928  91.3714790  58.0578518
  39.0958309  90.9636021  58.8922119  40.1704645  90.9812737  57.8264523
  13.4520578  39.2070032  91.4177284  13.2142114  39.9052836  90.8077607
  14.3764734  39.0361143  91.2374891  42.8829575  72.8050232   2.1695717
  43.1662130  72.4149418   1.3426283  43.6970758  73.0395651   2.6150322
  40.5987835  96.3650608  22.1299911  41.3108587  95.8088589  22.4459124
  40.1468706  96.6498470  22.9242873  30.0928736  76.9749975   0.5008282
  29.4945121  77.7024984   0.6709222  30.0365210  76.8344975  -0.4443254
 102.0916042  52.5817442   9.2548782 102.7023306  52.7291059   9.9770486
 102.6127478  52.1347761   8.5878986  44.2937519  95.0958068  90.4767966
  45.0176467  94.4741161  90.4012434  44.6568312  95.8265264  90.9772558
  18.9631867  48.8098288  22.1436477  19.0441740  47.8569841  22.1017146
  18.0673611  48.9869261  21.8566561 105.5189571  62.7516079  45.5974197
 105.4924437  61.8225098  45.3687048 104.8405656  63.1516504  45.0533772
  36.5758491  91.7996025  36.1176944  36.7243743  92.7434254  36.1757517
  37.4542093  91.4199162  36.0942292  29.6260285  82.8103733  33.8627195
  30.4347348  82.7055740  34.3639636  29.3520021  83.7110329  34.0357494
  41.4752102  86.8211365  67.4457407  40.6552839  86.4591312  67.1097183
  41.8942881  86.0875702  67.8957224  15.8037567  72.5098467  29.9513149
  14.9479532  72.8905392  29.7540736  15.6145132  71.5990400  30.1768112
  70.6158829  91.0942268  30.7994843  69.9292040  91.2096691  31.4562774
  70.2168179  91.3899231  29.9812269  24.3445253  15.9368826  84.0439522
  25.2878474  15.8228518  84.1595894  24.2061280  16.8808724  84.1211843
  16.2894773  62.5640440  78.5698652  16.8620765  61.8625927  78.8802290
  16.7850220  63.3668900  78.7314463   5.1532388  86.2674522   5.4175323
   4.5777375  86.2062645   4.6551120   5.7441854  86.9924259   5.2139777
  73.0293271  56.4342642  16.8710375  72.3490688  55.9329796  17.3206937
  73.8377234  56.2064743  17.3302126  93.6826095  94.1143036  55.4801369
  92.7470049  94.2495441  55.6304121  93.7303039  93.2932472  54.9904203
 109.9299760  83.7849712  10.8134925 109.6742760  82.8631020  10.7819021
 110.6953938  83.8016701  11.3880253 102.2827312  66.3923979  14.9831116
 103.2309648  66.4554167  15.0976241 101.9554135  66.1211348  15.8407319
  26.4716363  85.5317211  47.1793175  25.6697273  85.5825233  46.6591358
  26.7004156  84.6022701  47.1765900  99.0093002  49.6463346   3.9238688
  98.9775738  50.2883959   3.2146531  99.4775531  48.8997412   3.5502833
  98.2999774  10.3814007  68.9785099  98.5662719   9.9734427  68.1545615
  97.9853722  11.2492587  68.7253809   7.5577396  91.6111183  34.7332382
   7.0068669  90.8379459  34.6108580   8.1471705  91.3743401  35.4492950
  88.6139151  79.7634888   8.4392697  88.2262632  80.1646042   7.6614106
  88.2999203  78.8593817   8.4242660  72.3394852  18.9020516  81.5949106
  71.5732833  18.7030531  81.0567963  72.4654063  19.8454214  81.4928025
  84.8988888  71.7128897  36.8447542  85.0831696  72.5831509  36.4913106
  85.4493591  71.6498947  37.6252961  64.4550880  25.0344826  83.4623349
  64.1350587  25.4641892  84.2555332  64.6756526  24.1464497  83.7433761
  17.3394465  67.9547167  11.4431953  16.5953612  68.5507393  11.5288055
  18.1081986  68.5131884  11.5587878  19.8526454  62.1146393  38.8833904
  19.7111118  62.8823328  39.4373250  19.3317437  62.2860622  38.0988479
  48.8295699  16.2873954  33.2029152  48.1640328  16.8681544  33.5717034
  48.3467639  15.7224578  32.5996065  26.6874647  64.3494844  29.5245790
  26.7813921  64.0095949  28.6347008  27.1956706  63.7458467  30.0664115
  50.5477858  93.7189865  34.5058012  50.0659466  93.1384182  33.9167356
  51.1274910  93.1357193  34.9956679  93.3288857  93.8725281  43.2299948
  93.7002954  94.2265606  44.0380430  94.0642771  93.8511086  42.6176453
  14.0468848  86.8574429  15.0698233  14.4982898  86.0811043  14.7385168
  13.1184876  86.6745949  14.9253392  41.9574642  31.5643144   5.7843131
  42.1426010  30.9037566   5.1167655  41.0118055  31.5078855   5.9213203
  31.5491199  93.2911682  30.4816484  31.3137817  92.7216911  29.7491598
  31.4339519  94.1785431  30.1417446  62.0575428  68.7551546  40.6437826
  62.8973532  68.3439445  40.4391861  62.1510029  69.0533972  41.5485191
   7.2896242  90.9204197  28.1243849   7.3671544  90.8455944  29.0755010
   8.1278312  91.2878132  27.8439164  53.3430906  38.7572886  71.5180290
  52.4934741  39.0662981  71.2035584  53.9822765  39.2795588  71.0333586
  25.4915524  91.2908363  23.4487367  25.5707836  90.3378582  23.4910131
  26.3564992  91.6144848  23.7004232  34.0627289  96.4863968  24.5474792
  34.5168495  95.8065510  24.0496707  34.6337104  96.6564274  25.2966785
  60.6999946  15.0457400  32.9459310  60.4707194  14.2176837  32.5240517
  59.8839880  15.5460853  32.9507613  34.5999861  78.2422495  12.6847720
  34.8632884  77.4483585  13.1502247  35.4085302  78.7467003  12.5952387
   2.8627557  75.7161903  42.6820230   3.1167817  75.7784367  43.6028004
   3.5413206  75.1718903  42.2826290  53.9981080  10.6521148  38.2366848
  53.5662497  10.2839202  37.4658680  53.3964432  10.4695338  38.9584160
  33.4823108 104.8470497  13.7857234  33.7707472 104.2375374  13.1063604
  32.5592136 104.6339226  13.9224827  18.1972611  85.7177544  78.3805084
  19.1408777  85.8571815  78.3006382  18.0861795  85.3198624  79.2439747
  47.0586861  10.0741595  33.1535625  47.7148581   9.3772620  33.1572247
  47.5490666  10.8636588  32.9245520  65.0138570   1.1326808  38.8275027
  65.5681945   0.8505649  38.0999374  64.6864844   1.9915122  38.5601687
  66.4087340  97.5182152   2.9812172  66.9181678  96.7409229   2.7520266
  65.6799933  97.1817684   3.5027310  16.8822157  89.1207504  16.8821526
  15.9468603  89.2224121  16.7060649  16.9605958  89.2285728  17.8300250
  54.3718529  -0.1020509  22.9235411  54.3349434   0.7893962  22.5768709
  54.5616139   0.0108260  23.8549256  68.6764526  99.7963428   0.7854667
  68.1182575 100.5574226   0.6260370  68.0660629  99.0952682   1.0138218
  23.7632179  85.6119823  32.3596406  24.6989512  85.8131695  32.3469353
  23.7241626  84.6596909  32.4482536  12.8539085  11.3515784  90.2786542
  12.3118114  11.1810185  91.0488957  13.4401654  12.0579077  90.5500171
  65.2244759  89.7727394  20.3892350  64.5823240  89.0776920  20.2450943
  65.0440836  90.0853920  21.2757659  48.7156248  86.1403179   9.1074234
  49.0143776  87.0421791   8.9907330  47.7729654  86.1774063   8.9454126
  75.4100443  10.2972335  59.6556091  74.7623420   9.6471423  59.9277925
  76.2536979   9.8650664  59.7886896   4.5330402  82.9765129  24.6021366
   3.8560164  83.6133957  24.3735504   4.8940468  82.6982021  23.7604403
  27.2991323 104.8883247  15.6734395  28.2318258 104.9576950  15.4697132
  26.8583775 105.2460384  14.9027205  93.2241631  13.1958789  19.9710572
  93.4459973  12.7430743  19.1574287  92.6240636  12.6007384  20.4204202
   8.9348042  74.0784883  71.3785791   9.7956097  74.3709135  71.0790253
   9.0760255  73.8082314  72.2859097 111.5194108  66.3042879   2.9476440
 112.2786146  66.0130930   2.4426216 110.8568431  66.5086365   2.2877365
  30.1763320  81.4643574   5.7721794  29.6710062  81.3676167   4.9650127
  31.0895419  81.4564800   5.4854405  34.1480875  87.6160622  26.2307787
  34.3477774  87.5820827  25.2952576  34.8398066  87.0979881  26.6423059
 103.3847633  54.1843271  24.0639067 103.2015255  53.9591122  23.1518030
 103.0106845  53.4622049  24.5687175  82.9043198   0.4214210  42.8816032
  82.0627118   0.8298797  43.0843019  83.2269622   0.1060027  43.7257862
  93.3610257  46.5736128  90.6894239  93.8436218  45.8027769  90.3908554
  93.9951953  47.0663191  91.2102898  38.9901853 101.1091137   3.7179449
  38.7151909 100.2141380   3.5188848  38.4898686 101.6541004   3.1105673
  21.5069866  92.8182793  18.1483757  22.3738527  92.5420380  17.8509486
  21.6783547  93.3465767  18.9279747  31.0974241   2.6165504  18.4390974
  30.2294803   2.8735274  18.1278586  31.4557839   2.0791835  17.7326691
  89.9408909  61.6416003  90.9150955  89.2487856  62.2777106  91.0956176
  89.9969061  61.6131998  89.9599582  87.6419099  50.8076788  90.1541264
  86.7923304  50.6889750  90.5788103  87.9694315  51.6373564  90.5013929
  19.7053480 104.2932510  41.5783644  19.7456861 104.2059994  42.5307226
  19.6977234 105.2379799  41.4245129  41.4947946   8.8659495  20.7510853
  41.4348761   8.2069415  21.4427161  42.2981185   8.6458129  20.2794480
  30.8389354  40.4036617  56.2198067  31.7429209  40.1235628  56.0763168
  30.5193233  39.8327351  56.9184685  44.6632565  17.6164931  48.3408594
  44.4170452  16.7317790  48.6108541  44.5531017  18.1470794  49.1298962
  28.1315614  44.9885673   9.9081475  27.2992707  44.5696277   9.6890283
  28.7594784  44.2672366   9.9485213  57.9566527  18.2256240  22.3286080
  58.6256696  17.9894179  21.6860723  57.4126268  18.8734931  21.8807983
  44.8839612   5.3429812  30.0085735  43.9571292   5.3317279  29.7696447
  44.8843385   5.4070682  30.9636259  21.2457061  88.7991619  26.1675692
  21.7129946  89.5911217  25.9017348  20.3200078  89.0269375  26.0813451
 106.0722962  88.1059265  54.3126011 106.1624596  89.0504551  54.1862249
 106.2555119  87.9700851  55.2422333  57.5302362  93.1635761   2.1395777
  57.2930193  94.0034866   1.7465013  58.4396791  93.2767773   2.4158683
  26.7379569  32.2124125  88.8229807  26.3120794  31.3922144  88.5737354
  27.2102927  32.0019080  89.6284705  63.5958339   1.0456389  32.3567772
  63.5925341   1.7076987  31.6654730  62.7836705   0.5567473  32.2240829
   4.2669958  83.3222389  36.2664604   4.8066193  82.5319767  36.2893486
   4.5628983  83.8361549  37.0178294  85.6119681  18.0960006   7.9067427
  84.7698880  18.2895488   7.4948323  86.2388469  18.0994338   7.1833879
  99.2937585  52.2733427  88.4222412  99.1624328  53.0626894  88.9475116
  99.0982052  52.5467612  87.5260082  99.5214722  94.8202610  49.1836500
  99.7920451  93.9182568  49.0121508  98.9335975  94.7550011  49.9362278
  83.1146289   2.7901668  57.4247551  82.6412822   2.6738471  58.2485533
  84.0371848   2.7014846  57.6640272 102.4701193  86.0443783  51.1814070
 102.5909349  86.9628906  50.9406376 102.3222932  86.0620785  52.1269560
  19.6376920  83.6005116  23.3256698  20.3909373  83.0848598  23.0376506
  19.6355975  84.3642998  22.7487350  32.6362801  94.2013645  27.1376228
  32.7894068  94.9276638  26.5332460  33.0231285  94.4915295  27.9636836
  66.2158061  24.6475810  37.1118546  65.9930325  25.5668086  36.9648147
  66.8737484  24.4509524  36.4450121   0.3409204  99.3886185  45.2618217
  -0.3855065  99.8704529  44.8663855   0.4373313  98.6091423  44.7146893
 104.7163966  91.3234425   0.4033283 105.1675025  90.8710861   1.1161440
 104.3324617  90.6208229  -0.1212164  33.3108888   6.7328662  11.1334050
  33.0394150   5.8950442  10.7584405  32.8785831   6.7646331  11.9868302
   0.9659957  17.2062899  90.7204634   0.0761174  17.0171334  90.4228607
   1.4187145  17.5201107  89.9376532  16.7807484  64.9789429   0.6084193
  17.3142171  65.7544565   0.4345839  17.3111629  64.2475700   0.2922108
  33.9104152  83.8125324   6.6824955  33.3562350  84.0030289   7.4393481
  33.3067894  83.8043022   5.9396648  30.2897763 100.7887173  18.1564295
  29.5934582 100.2083588  18.4639227  31.0978651 100.3748703  18.4596598
  35.2429032  79.3534517  47.0155144  34.9990726  79.4638824  47.9345226
  34.9787402  80.1730251  46.5974760  10.0090432  87.4206829  10.2692759
   9.3859434  87.9990387  10.7091391   9.4992167  86.6402149  10.0520658
   3.1474748 102.8750515  57.4420643   3.6028206 103.7026119  57.2870302
   3.7094465 102.4040699  58.0573702  93.0983639  12.8938979   5.7601106
  92.9844189  13.7826938   6.0966951  94.0361214  12.8238410   5.5814177
  96.7173768  15.6401843   8.0634403  96.8109275  14.8695678   7.5034225
  95.8307458  15.5725593   8.4177721 103.2884356  59.2295767  89.7057110
 102.4117252  59.6130492  89.6820806 103.7230846  59.6704127  90.4357600
 110.3680626  95.0838852  22.6422310 109.7590384  94.3459988  22.6713753
 110.2576964  95.4510403  21.7651606  66.1331273  21.3534183  27.7946138
  65.3229595  20.9756774  28.1369138  66.4576293  21.9075793  28.5044312
  90.9339476   6.4635295  41.5939140  90.2315140   6.8247336  42.1346045
  90.5529547   6.3987655  40.7181978  58.6147833  66.1613274  29.7314882
  59.3012142  65.5246878  29.5321488  58.8058281  66.4477777  30.6246161
  79.0637340  26.4139105  85.7720953  78.5539176  27.0515324  85.2723378
  79.3326923  26.8867232  86.5597123  12.6781976  48.9674997  34.0177560
  12.7071416  49.2044783  33.0908036  11.9076800  49.4226742  34.3573880
 101.6333581  14.6356124  51.6016579 101.2223292  14.6595592  50.7375288
 100.9328175  14.3593234  52.1925306  50.8005381  57.4786997  21.5493321
  51.3919497  58.1796789  21.2752962  49.9247646  57.8191137  21.3666487
  59.4995237   2.8685397   2.7239636  60.3015638   2.9359263   3.2420582
  59.3469501   3.7570018   2.4020979  14.4259977  90.6704712  58.8711834
  14.8097503  89.8197842  58.6583662  15.1076078  91.1232090  59.3678474
  24.1546487  48.0116679  82.4026859  23.6053561  48.4982420  81.7880708
  24.9631929  47.8424288  81.9191074  76.3417905  46.6139819  84.3670070
  76.0308004  45.9444643  83.7576860  76.1405944  46.2610651  85.2337265
 110.8086599 103.3134842  64.6793938 110.4308821 103.4780407  65.5433559
 110.1030685 103.5195065  64.0662622  58.6416245   3.0065555  18.6058962
  59.2759991   3.4232348  19.1891479  59.1739703   2.4776954  18.0116379
 110.7265925  68.9454985  24.9198818 110.8801934  69.8668480  25.1290607
 111.4623267  68.7015152  24.3582773  11.0728455  79.1182137  41.7315960
  10.3419256  79.5687342  42.1547031  11.6405249  78.8513184  42.4546003
  52.9040421   7.5373477  26.0794377  52.1307529   7.0709628  26.3968349
  53.5873163   6.8682403  26.0386276 106.9107282  56.3526917  28.9635348
 107.7922842  56.5380335  28.6398983 106.9982415  56.3637972  29.9166632
  46.9687080  56.4414597  13.6542618  46.5193415  55.5991364  13.5850394
  47.3861408  56.4201784  14.5153832  79.4365492  47.4039008  80.4087174
  79.7688320  48.1849505  80.8511865  80.1757445  46.7957713  80.4089367
  98.5926685 103.8016224  18.3431792  97.8182718 103.3709526  17.9811418
  99.1864249 103.0831432  18.5610580  84.7097560  46.6702010  78.5366499
  84.1944429  45.8802248  78.3734596  84.3469902  47.3211504  77.9359078
  80.6799031  18.9089793  38.3934450  81.4409590  18.7288398  38.9453292
  80.2961064  19.7026366  38.7663412  66.5269709  69.0124893  12.1610308
  67.1809769  69.7108746  12.1333575  66.0827351  69.0666962  11.3148940
 104.1511878  86.2866116   2.0655374 103.3258107  86.7702961   2.0976761
 104.6747217  86.6588497   2.7751744  58.0266567  17.9998471  89.7570628
  57.9818448  17.0479180  89.6673258  58.0630728  18.3238102  88.8570884
  45.9824521  15.4397697  50.7302666  46.1403979  16.2749499  50.2900791
  45.3409947  14.9946994  50.1764822  94.3165800 104.2155933  52.9086447
  93.4540400 104.3869591  53.2866526  94.8342547 103.8745594  53.6379910
  66.7820669   7.8300303  23.6138940  66.8408323   8.6217422  24.1486526
  66.3635112   7.1858329  24.1849089 107.6871833  51.3356972  22.4628496
 107.4611005  52.2075748  22.7868056 107.3670229  50.7385159  23.1389451
  75.7622481   8.4204883  16.3786817  75.2302123   9.0646190  16.8458617
  76.6581536   8.5957831  16.6665280  45.1119184 102.1975613  41.0404730
  45.9185982 102.3072529  41.5439272  45.1631975 101.3054657  40.6973028
  33.1557655 100.2081966  14.3768263  33.1842232  99.6672249  13.5876632
  32.5177097  99.7732639  14.9424696  73.4547067  28.9221686  48.5419226
  74.1132999  29.5609588  48.2691050  72.6305962  29.2654532  48.1966305
  77.4637700  13.1620711   8.1421697  77.1982003  13.6846465   8.8988864
  77.5904656  12.2803611   8.4925556  83.8513661   8.3328742   6.2388426
  83.7203646   7.7265853   6.9678748  84.7305346   8.1338519   5.9168369
  89.6187068   1.0064143  27.1655774  88.8592816   1.5841502  27.0899582
  89.2485715   0.1236838  27.1704650  29.3015385  88.5713387  36.0302758
  28.3716965  88.5926533  36.2564826  29.3797183  89.1635323  35.2823305
  60.4343510   5.1551169  48.7056017  61.2009693   5.5410975  49.1293287
  60.2061344   5.7749576  48.0128193 107.3977491  68.2784487  58.8245654
 107.3382541  67.3436571  59.0216756 107.6899692  68.6778761  59.6438956
  60.2025843  16.8150538  62.5962639  61.1020375  16.6791076  62.2983837
  59.7042800  16.9649333  61.7928600  49.9679947  98.6603737  14.2816758
  50.8114290  98.5039997  14.7064066  49.3187523  98.4110165  14.9393523
 100.6582018  54.7208334  80.7610583  99.8662015  55.1808573  81.0391796
 100.8257290  55.0457407  79.8764086 107.7399512  21.6541792  86.1482906
 107.6739379  21.4784886  85.2096713 106.9514152  21.2604691  86.5216959
  92.8547379 103.1145287   7.1083236  93.6253700 102.6493073   7.4337959
  92.4378964 103.4669495   7.8946292 101.3976332  31.3170744  76.1529446
 100.6310578  31.7652728  76.5103161 101.0387822  30.5571104  75.6947839
  27.2793508  88.6166096  33.5652947  26.8313718  88.6853123  32.7221894
  28.1208491  89.0508461  33.4254837  69.7114992  94.2842674   9.9390435
  68.8140297  93.9781857  10.0697839  70.2574635  93.5374641  10.1848829
  25.7287407  66.6529322  19.1038370  25.1050806  67.3283577  19.3704438
  25.5719233  66.5386868  18.1665063  21.8919325  89.0133095  18.0382299
  21.5411830  89.4532585  17.2638619  22.7633429  88.7194729  17.7726460
  89.8834897  11.2181872  32.6922536  89.4436408  12.0678061  32.6622915
  89.4272280  10.7364673  33.3821869  32.0238519  54.5204067  32.0000672
  32.9426622  54.2555571  31.9567776  31.6392851  54.1842270  31.1905479
  45.1129843  22.1282977  33.6150384  44.4261271  21.5576285  33.9597058
  44.7411288  22.4923915  32.8116775  70.5665565  10.9997291   0.4927489
  70.2587319  10.1399344   0.2059957  70.7570267  10.8875674   1.4240780
  10.1083505  94.7114658  49.8927069  10.7292104  95.2202034  50.4141998
   9.7208411  95.3487396  49.2927456  19.9428403  89.3056297   8.6728340
  20.3841591  89.0169430   7.8740036  19.7859251  88.4994698   9.1644770
  71.8155719   2.2953528  38.5253239  71.5503240   3.2099837  38.4286880
  71.0799790   1.8788165  38.9743519  79.8039103  31.1101169   8.2893580
  79.8992062  30.2633304   7.8533554  80.6302262  31.5619582   8.1182432
  38.7459469  81.4608097  46.2267351  38.2376313  82.2079086  46.5424681
  38.7114191  80.8274841  46.9436312  23.3287048  89.6101952  28.0280948
  23.5990119  89.0261936  28.7366843  22.9659748  89.0264702  27.3618221
  37.6286721 103.9575100  15.0191367  37.4201322 103.0311871  15.1402926
  38.5838056 103.9964390  15.0685203  48.4414959 104.5770073  39.4640541
  47.7470875 103.9199924  39.5126176  48.2058001 105.2241898  40.1287651
 109.6117118  88.5192585  18.7982547 109.7461036  88.5105801  19.7459340
 109.5747755  87.5947189  18.5531104  15.6881046  65.1125647  62.5898528
  15.0082540  65.7153345  62.2886848  15.3121518  64.2422415  62.4578381
  99.5090676   7.5130481  30.5661178  99.7721196   7.3589152  29.6587729
  98.9201356   6.7869300  30.7714033  80.5997706   4.2058391  14.1833246
  81.0841656   4.9295825  13.7861061  80.9775258   4.1164512  15.0582790
  55.9624065  31.7590732  36.5935874  56.8154181  31.3782805  36.3847876
  55.3289736  31.1097926  36.2879252  44.4335079 103.0948925  28.5569024
  43.7459993 103.6449337  28.9324188  44.5222473 103.4044075  27.6554823
  69.0854884   0.4544562  37.5991201  69.7394396   0.4300326  36.9005632
  68.7568475  -0.4430562  37.6510358  83.9440306  62.1208121  90.4805173
  84.7662493  61.7350794  90.7828306  83.8982781  61.8903948  89.5525919
  72.4858833   3.8540000  32.3743129  72.2600961   2.9282397  32.2835994
  72.1016885   4.1132850  33.2118082  26.5969562  71.5073992  75.2247334
  26.5083646  71.9829680  76.0506976  27.2937488  70.8717181  75.3879130
  58.0627394  15.9813041  32.5179768  57.6225281  15.7477111  33.3352160
  58.2716656  16.9103164  32.6155233  66.2697458  90.6533051  25.7543373
  66.4037704  91.5933514  25.6336117  66.7028379  90.2509880  25.0014710
  87.7612814  79.8856284  66.4237118  88.5996028  79.5392920  66.1179328
  87.1756335  79.1284968  66.4254165  11.3137364  81.0122108  10.2235937
  11.7606628  80.3363514  10.7331955  10.4192555  80.6858826  10.1253843
  29.1400242  46.8194151  21.4611006  28.2258630  46.7888498  21.7432523
  29.5335841  46.0326815  21.8384552  64.5782305  15.2786082  17.7149105
  64.7391535  14.3843669  17.4137974  64.8536635  15.8309096  16.9832540
  23.4279393  53.0263544  83.0043286  24.2803907  53.3002592  83.3427590
  23.2395601  53.6462332  82.2997028  58.2233859  13.5132331  39.7484446
  58.4958840  13.6467189  40.6562757  57.3132015  13.8086623  39.7256732
   9.0017032  68.7319399  83.9762163   9.8503732  68.9537741  83.5930997
   9.0880632  68.9646460  84.9006724  53.1362534  97.9073238  27.9237247
  53.8975477  97.5137520  27.4973798  52.9568481  98.6964989  27.4126077
  63.4385992  43.6386985   9.5703745  62.9301930  43.3662147   8.8064969
  62.9479075  43.2983989  10.3184724  41.7076874  81.0493374  12.8393602
  42.0556116  80.5179977  12.1232152  42.4834967  81.3576794  13.3076298
  11.0278976  97.5406837  34.6056461  10.7389653  98.3980370  34.2930770
  10.8656597  97.5624371  35.5487466 110.4713331  28.2146287  15.3547120
 110.8051260  27.7458978  14.5897889 109.5246619  28.0759215  15.3263235
 101.3133153  59.5268726  21.2873626 101.0383782  59.1233397  22.1106505
 100.8250627  59.0534401  20.6137896  46.6517158  98.9740140  65.9967208
  45.9059401  99.5064170  65.7199502  46.6406049  99.0247066  66.9525123
   9.6000028  37.3939848  10.7645130  10.4543638  37.7210593  11.0461533
   8.9826995  38.0746222  11.0326624  55.5162485  94.4962318  82.9158413
  55.7907541  95.2954919  83.3653539  56.0688837  94.4586284  82.1351928
  74.7749517  13.6627175  72.8889132  75.7082877  13.6476494  72.6770437
  74.7330467  14.0616204  73.7580240  88.3492491  39.1854405  21.2017107
  88.0194423  38.7310505  21.9769454  88.9969203  38.5863805  20.8303905
  27.5648417 102.8898008  54.7090650  26.9000419 103.5690982  54.8223186
  27.1160336 102.1928747  54.2304206  95.0459632  83.2720852  48.2067585
  94.6060416  83.6285019  47.4349594  94.3670294  83.2512665  48.8811827
  18.3681309  43.1865406  13.1308067  19.3216753  43.1346893  13.0652630
  18.1714046  44.1178560  13.0298889   4.7676590  62.1325302  28.5073304
   5.5138171  62.2113180  27.9129648   4.0423042  61.8584251  27.9461217
  21.7634630  74.3436623  12.1429229  22.4844193  74.8875904  12.4600923
  20.9866405  74.8940945  12.2419095  32.6083684  34.7164941  14.5788240
  32.0900917  34.2941046  13.8938355  33.4315109  34.9474192  14.1483128
  37.9167616  87.2986872  75.0033450  37.4828239  86.6378696  74.4636691
  37.2581363  87.5489790  75.6512642   1.3351546  76.6614294   6.1367029
   0.8494562  77.2477627   6.7168272   1.3989182  75.8404303   6.6246808
  71.6564899  10.6027676  87.8918216  72.4938589  10.1505162  87.9943451
  71.2634917  10.2058293  87.1145034  72.4842829  38.8034655  76.0532618
  71.7204844  39.2749430  75.7207739  73.1583396  39.4763686  76.1485434
  79.4323251  55.9884024  11.5025795  78.6467645  55.6789255  11.0516346
  79.5291778  55.3964329  12.2485185  10.3250682  37.6569271   6.2963402
  10.7610691  36.8180680   6.1465025  10.6197417  37.9280901   7.1657473
  87.5359126  16.8052937  62.3338032  86.8761154  17.3437287  61.8967843
  87.5660428  17.1429707  63.2289553 105.0763103   7.1468903  87.3230687
 105.9881874   7.1499659  87.0320317 105.1153108   6.8426634  88.2297969
  51.2319239  96.6869361  80.9917569  50.3966565  96.2949378  80.7370055
  50.9949155  97.3671110  81.6221696  82.3433113  64.4102526  44.7907734
  82.5506973  64.6884823  43.8986874  83.1110954  63.9119482  45.0708437
  54.4276857  59.0750122   4.6753106  55.1445961  59.7046947   4.5993093
  53.6608458  59.5443392   4.3468052  20.2449775  66.9478321  38.9366698
  20.0082803  67.4712515  38.1710100  21.0444880  67.3565102  39.2683220
   8.9024985  69.1795969  23.1910872   9.4526678  68.5569906  22.7157903
   9.1987813  69.1164684  24.0990877  83.1871476  12.2677637  88.8995597
  83.0673661  13.1930233  88.6856130  83.0186691  11.8079926  88.0770880
  15.1826401  47.6450117  87.3247480  14.4113202  47.3765374  86.8255284
  15.0852175  48.5919199  87.4252746  70.5434855  27.1152188  77.5569463
  70.4606333  27.5832011  76.7260683  70.4533901  27.7950312  78.2247555
  36.5014623 103.6693199  74.1429639  35.5481856 103.6855752  74.0579283
  36.6613229 103.1883867  74.9549854  20.2694941  23.5059428  24.5261049
  21.0039973  23.0031896  24.8782086  19.5546746  22.8725958  24.4617963
 100.3701505  19.6566677  19.6198261  99.4530472  19.6610284  19.3457162
 100.5737218  18.7319887  19.7603953  80.5725861  13.7201613  42.7985334
  80.5498315  14.6768397  42.7766323  79.6681977  13.4631175  42.9780960
  73.5218684  31.0221888  81.5918690  73.1018443  31.0445811  80.7320380
  74.4154690  30.7286002  81.4143354  39.0404153  81.6434002  18.3489394
  38.1896162  81.9138336  18.0036306  39.6773601  82.1214867  17.8179383
  71.6021305  17.9517628  77.9760170  71.0463413  18.6162878  78.3831310
  71.0760089  17.6094700  77.2533405   9.4711477  34.1791463   4.7564763
   9.2276573  33.4976602   4.1299620   8.9894015  34.9539256   4.4668740
   3.9483857  65.8989716  28.0968666   3.1265152  65.6258392  28.5044932
   3.7709400  66.7797899  27.7668619  18.8539124  38.0373502   6.1816716
  18.0360246  37.6697159   6.5165365  18.6515629  38.2908368   5.2810985
   4.8038359  98.2827575  65.5444956   5.5512615  98.8711316  65.6512666
   4.4815226  98.4628065  64.6613598 107.0158169  49.0704632  50.3298330
 106.9061086  49.8368311  49.7669172 106.2902388  48.4930563  50.0924206
  35.6883693  46.9508791  46.1768341  36.3704371  47.2592163  45.5802250
  35.8055735  47.4777126  46.9673681  74.5276208  98.8826902  65.6000280
  73.9446421  98.1565053  65.3786159  74.5545407  98.8850505  66.5568471
   6.0571867  26.7656016   8.7149602   6.7659569  27.0756912   9.2786276
   6.0387546  27.3887372   7.9886019  10.4579663  55.9723425  22.3174715
   9.6583033  55.5602598  22.6445198  11.1046970  55.8206367  23.0066419
  99.4251344  62.0687389  25.6092334 100.2920291  62.1494675  26.0069871
  99.2112300  61.1390543  25.6877279  18.3105397  54.6972370  16.1808670
  17.8768361  54.0572786  16.7453003  17.6341105  55.3477764  15.9925139
 102.8496638  79.0388107  19.5833051 102.8601935  79.2625427  18.6526787
 102.4025378  78.1933117  19.6213293  49.0265830  83.4502752  61.5954995
  49.8118801  83.8483484  61.9711018  48.3190830  84.0522630  61.8263292
  17.4806333  63.0830383  54.0175629  17.1756864  63.5603666  53.2459402
  17.5651729  63.7531614  54.6958065  84.7784778  46.7060804  16.7781591
  85.1557609  45.8434486  16.9506729  85.4513499  47.3234987  17.0649838
  27.9041286 103.6274965  70.4063439  27.7440037 104.3852575  70.9688306
  28.8570400 103.5860259  70.3258944  29.6809459  54.9275398  43.7778378
  28.9783549  55.5772829  43.7986946  30.0384831  54.9328041  44.6657372
  33.5740042  70.7529449  25.5432367  33.5486555  69.7986937  25.4725742
  34.4594669  70.9469032  25.8507538  12.9069018  48.5526037   0.5037796
  13.7057042  48.5588884   1.0311367  13.1227374  48.0054235  -0.2513647
  51.9880867 101.6262627   9.9760246  51.1054373 101.5126610   9.6235299
  51.8616772 102.1282387  10.7811785  36.0743690  89.7142315  54.2293358
  36.6732430  89.0190792  53.9566708  36.6352463  90.4808044  54.3476963
  28.6621904  64.4713402  52.3309612  27.9023242  64.5711279  52.9044437
  28.2950330  64.4576502  51.4470863  46.0240030  75.6083202   6.9293702
  46.9377851  75.4151392   6.7198265  45.6736660  76.0037470   6.1311626
  34.5548296  34.8636937  21.3336658  34.5768642  33.9088917  21.2696195
  33.6406398  35.0938368  21.1677623  14.1360307  73.3431578  49.1395283
  13.3695865  73.1440163  48.6018085  14.6951973  72.5708914  49.0548706
  87.9947969  18.3971526  89.2275032  87.0470568  18.5161520  89.1653708
  88.1165060  17.4478461  89.2427070  19.7607839  71.6633892  56.9829702
  20.0701761  72.0502663  57.8020144  20.1301527  72.2224855  56.2994432
  11.3720441  96.3686466   2.3376004  11.8054402  95.6533432   1.8720539
  11.5441132  96.1915207   3.2623976 101.2354227  21.2506606  48.5445786
 100.7011839  20.9723689  47.8006887 101.6371223  22.0706965  48.2575083
  98.8935825  20.0884080  11.9652712  98.4502992  20.6042218  12.6388204
  98.2119188  19.9006736  11.3200402  46.9959261  86.4363534  85.2216876
  47.3384590  87.0172961  85.9009582  46.2613721  85.9865768  85.6392568
 102.5776263   7.4699713  86.1148345 102.7562877   8.0405690  85.3673506
 103.3937307   7.4679209  86.6150388  18.6092830  92.3019028   2.0794921
  18.9458632  93.0317211   2.5994051  17.9974091  91.8538857   2.6635465
 110.9517697  78.4373999   3.8380778 111.7949653  78.3298492   4.2781758
 111.0443714  79.2482376   3.3378774  83.6831429  47.3122527  85.7212818
  84.4573393  46.7555834  85.6378031  83.2437577  46.9947173  86.5101680
 105.4257890  31.9704749  70.6672955 105.8488508  31.7187048  69.8464036
 104.6712276  32.4938418  70.3971839  72.2227402 104.1045673  64.2483878
  71.6807742 104.7415740  63.7828493  72.1668001 103.3095891  63.7181854
  14.3877888  80.4699993  14.6363604  14.2779958  80.9963608  15.4282713
  13.5689092  79.9804783  14.5586979  36.1995816  60.8274555   5.1355851
  35.6714535  61.6257668   5.1387656  36.2843680  60.5926847   6.0596657
   2.0944375  99.9731064  22.0392990   2.1367718  99.9889660  21.0831690
   1.2233654  99.6277714  22.2347832  27.4886250 100.5300522  28.7681818
  28.0993438  99.8195648  28.9642859  26.7797852 100.4182816  29.4016504
  19.7586894  75.5865622  39.7940898  19.8854804  74.8282766  39.2238593
  19.2263687  76.1898518  39.2755318  27.5143600  65.9710598   5.9346163
  28.0087161  66.3376808   5.2015185  27.2644782  65.0950336   5.6407386
  92.4525733  80.1802904  78.8464117  91.5177675  79.9821384  78.7906599
  92.7718492  80.0834997  77.9492342  28.4317780  64.1451406   1.7956267
  28.7066340  63.2289076   1.7608866  29.1665792  64.6300364   1.4199004
  18.1615770  59.9013758  18.2155120  17.6893556  59.1906214  18.6491752
  18.4005475  59.5434904  17.3605037  58.3485199   4.1923446  32.8487468
  59.1190863   4.4644946  32.3503542  58.2628108   3.2567996  32.6653695
  84.3111202  60.1278496  13.7390149  84.2092583  61.0705042  13.8703907
  84.8378345  60.0524521  12.9433274  88.0472895  35.3423430  80.9707487
  88.6791345  35.0876833  81.6431695  87.4756547  35.9745528  81.4063764
   6.8431336  64.6679592   8.6136591   6.0952157  65.0234270   8.1335628
   7.0109570  63.8202190   8.2020676  49.0098305  83.8502819  76.3724816
  49.6442969  83.1335719  76.3688111  48.7317820  83.9286930  75.4599178
  10.4885089  94.5254135   6.2915081  10.6290555  93.5801029   6.3450181
  10.7720518  94.8582935   7.1429932 106.1799880  41.8327166  73.4392488
 107.0254274  41.6677023  73.8566625 106.4017745  42.1092059  72.5500929
 107.0412576  75.6886721  26.5500212 106.0903767  75.5960035  26.4911127
 107.3357743  75.7192230  25.6397676 105.3414818  30.6477953  74.6925402
 105.5552121  31.3649107  75.2894473 106.0275384  29.9976756  74.8438561
  34.8214822   1.8459720  41.0164738  34.6748362   2.0806331  40.1001453
  33.9541248   1.6090793  41.3448095  98.7285825   1.6581751  88.0476120
  98.6030742   1.6803481  87.0989352  98.4000727   0.7990719  88.3126605
  37.4320082 104.4209773  83.1699818  36.5153542 104.6894033  83.1073368
  37.6384831 104.4895275  84.1021305  52.4191638  15.8144881  65.1720166
  52.5074788  16.5049912  64.5150232  53.2658597  15.7987191  65.6182098
  59.2434931  36.2830567   8.3124179  59.8702478  36.0263562   7.6360214
  58.6283588  36.8616557   7.8617883  20.2249265  81.9826794  37.2345805
  20.7771111  82.5850964  37.7330041  19.3616331  82.0568752  37.6413369
  41.2488317  43.1479836  22.6926446  41.2312460  42.3676205  23.2466817
  40.3318119  43.4136677  22.6239514  25.7933688  41.9878531  25.2295732
  26.2155557  41.3314295  25.7837343  25.0366879  41.5355778  24.8565984
  44.7208786  89.8920441   1.1042000  44.4588947  90.6818008   0.6310494
  44.2429733  89.9392891   1.9322148  42.0225477  58.3718109  26.4145494
  42.8598261  58.8341522  26.4523888  42.1896505  57.5374508  26.8528962
  57.3671890  10.1444835  35.5484414  56.4649714  10.2287311  35.8568859
  57.7686167   9.5179004  36.1505103  53.7412930  29.1879416  13.4536946
  54.0442038  28.2804871  13.4853375  54.5206451  29.6926236  13.2210243
  93.2434364  22.3704220  88.8853177  93.3492752  22.6160599  87.9662466
  93.9503404  22.8295494  89.3388817  20.7965422  64.4523239  35.0938892
  21.6995668  64.7497749  34.9829960  20.4008293  64.5604801  34.2290521
  46.6525508   9.4684810   7.5473589  47.5436688   9.8149318   7.5013381
  46.3237149   9.5334548   6.6507667  38.1574059  65.7873678  13.0766547
  37.5411081  66.1896181  12.4646056  37.8596354  66.0745811  13.9398324
  19.7868490  71.2372017   1.3439453  19.6206677  71.2602282   2.2863281
  19.2853034  71.9736671   0.9942278  14.8003638  31.7586184   7.2724849
  15.4696310  32.2454906   7.7533895  14.3014514  31.3034987   7.9508531
  54.0224504  62.8868961  13.0440855  54.1545725  62.7330923  12.1086073
  53.1019068  63.1386900  13.1177485  65.1486826  81.8926334   6.5551633
  65.3036499  82.0535851   7.4859232  65.5476809  82.6418972   6.1128545
  55.0299025  59.2471981  29.2521524  54.0875721  59.1660929  29.1049552
  55.3104973  58.3659458  29.4989181  18.2741833  75.7698822  20.4881907
  17.4756658  76.2748575  20.3345680  18.1920362  75.4604006  21.3902473
  52.5463057  59.9603033   9.2723215  52.9241133  59.1661549   9.6502388
  51.7985868  60.1611233   9.8351842  14.9301553  56.0857677  23.1734252
  14.0253878  56.0378122  23.4821796  14.8553801  56.3180017  22.2478390
  99.8145529  32.0511938  89.6162583  99.1014596  31.6102053  89.1544607
 100.4903337  32.1760584  88.9499530  67.6291247  39.5832659  80.0619078
  68.0091973  39.5174910  79.1858649  68.2315936  39.0935446  80.6217599
  18.0643642  33.5146904  15.5216503  18.3698332  32.6076198  15.5097651
  18.0086756  33.7607837  14.5983040  89.5414496  16.6516322  28.2241249
  88.6369515  16.6485518  27.9109049  89.4973279  17.0794219  29.0792751
  32.6412439  81.0686588  19.4409204  33.3891654  81.3545227  18.9163935
  32.2850633  80.3201962  18.9622128  33.6556220  73.0606651  44.2823744
  34.0610790  72.1944427  44.3210411  33.1663775  73.0596066  43.4596539
  51.2485456  51.1114836  13.1355095  50.7558155  50.8774900  12.3489392
  52.1646118  50.9751987  12.8936696  19.3616140  81.7969894  44.0131712
  19.4994223  80.9219646  43.6504555  19.3908417  82.3785210  43.2534361
  75.8129375  23.9483858  90.2573127  76.6943543  23.7587048  89.9358214
  75.9503267  24.5356013  91.0006402  14.2867601  76.8906021   7.8236544
  14.0719903  76.7270803   8.7420034  13.6007881  77.4848270   7.5193942
  98.9433142   1.9955756  70.6506014  99.3917461   2.7915694  70.9361434
  99.4414397   1.7003514  69.8884034  88.5024568   2.7724053  44.8389292
  87.9461166   2.2218586  44.2879200  89.3188878   2.2798277  44.9228382
  26.5539193  59.1379595  21.4067173  26.7782617  59.7567415  22.1017075
  26.6407585  59.6435928  20.5986190 103.1582423  31.6662051  90.7761664
 103.8836642  32.1089198  91.2166197 102.5221249  31.4988352  91.4715612
  34.0314674  24.6442890   2.1589845  33.2049227  24.9692154   1.8019463
  34.1035080  23.7513757   1.8217184  26.5042019 100.6389332  24.0031481
  27.1450090 100.0045204  24.3242645  26.2461281 101.1333847  24.7810602
  49.1635132  83.9593601  33.1482387  48.5375404  84.0616035  32.4313450
  48.6870432  84.2507076  33.9256263  54.0885063  99.1211994  87.9818144
  53.5197540  99.5943792  87.3744792  54.9658795  99.2151077  87.6108286
 109.1116717  60.0271177  20.2154064 109.6738714  60.5963993  19.6899700
 109.4844422  59.1526604  20.1031590  35.5221762   7.4291915  33.1926799
  35.0293631   6.6217345  33.0464649  36.1173622   7.4852389  32.4451208
 111.7881902  59.1475630  13.2676446 112.2757652  59.0816021  12.4465764
 111.1740303  58.4138489  13.2411015  26.1109662  89.9963093  27.4205375
  26.5081811  90.3523064  28.2153440  25.1927114  90.2615833  27.4721789
  27.7785277  88.3205986  30.0527954  27.4950600  89.2177963  29.8769569
  28.6588240  88.2701874  29.6802735  97.7507076  41.2462378   9.3834919
  97.9046842  40.4351997   8.8989890  97.9142472  41.0139132  10.2975547
   0.5470179  59.4534016  21.3085270   0.7488596  59.9886513  20.5410647
   1.3946277  59.1091251  21.5900660  96.8333527  71.3675070  14.4042063
  97.4439046  71.9900274  14.7990775  97.3834059  70.6337023  14.1299725
   2.9986492  74.9566126  22.3065567   3.6546892  74.3420935  21.9776106
   2.3215261  74.4005299  22.6919246  44.7939253  39.4215035  20.9469485
  44.2846632  38.9626169  21.6150093  45.0744534  38.7326455  20.3444457
   7.0540965  44.4786739  41.3423157   7.9846233  44.2755508  41.2469530
   6.8427593  44.2182732  42.2388458   8.9556831  86.5737343  20.4244924
   8.8985699  86.4804554  21.3754225   8.5641336  87.4282742  20.2437091
  21.3109827  87.8532791  20.6733441  21.5429020  88.6271286  21.1867714
  21.6625404  88.0305290  19.8008633  13.9582443  78.1439209  32.1119070
  14.7429836  77.6464033  31.8819165  14.2924964  78.9636421  32.4760008
  35.8099484  83.3421898  23.5041904  35.4664421  82.5364208  23.1182265
  35.0563192  83.9313126  23.5390139  40.1635790  86.7911148  20.5120802
  40.7977581  87.3260975  20.0347567  39.3151712  87.1821594  20.3034520
  27.4999475  54.2691517   6.0662049  26.6234541  54.4827843   6.3861322
  27.3606539  53.9701843   5.1676250 107.2379687  43.7352610  13.3842468
 107.7006003  44.5097685  13.7041569 107.9107144  43.0558014  13.3396995
  15.3892279  34.9958611  14.5925045  15.9418368  34.2494011  14.8241377
  14.6896255  34.6193933  14.0585947  34.7641250  28.1629778  85.8035755
  35.0442144  27.2476746  85.8045977  35.4456063  28.6225439  86.2941059
  84.4703927   2.3051716  84.1230553  83.8754859   2.8138615  84.6740103
  84.6968886   2.8966690  83.4053791  89.9508878  18.4830405  73.7055337
  90.0626238  18.3728339  72.7612877  89.3379065  19.2132880  73.7905645
  25.9035968   8.2997824  55.5694056  26.0334443   7.8736283  54.7221971
  25.7931470   7.5766970  56.1868048  51.8068679 102.3929174  68.7712717
  51.3895924 102.6591594  67.9519844  52.2287495 101.5587909  68.5651684
  35.4724002  78.4668446  27.4388766  34.6219587  78.6702013  27.0494866
  35.9107065  79.3145561  27.5130796  94.9262521  50.6220150  51.0631275
  95.7433388  51.0845232  51.2493753  94.6784768  50.9169340  50.1868486
  49.3094015  15.7830071  42.5861025  49.9574995  16.4590669  42.7839375
  49.8277044  14.9955320  42.4203396 100.1201007  52.9566240  16.8097401
  99.3937024  52.3755264  16.5841198 100.9048483  52.4327850  16.6485035
  19.8858559  45.9457159  21.5500975  20.5720496  46.3430977  21.0139441
  20.3439665  45.2943945  22.0812702   1.6396885  49.7537518  12.1821988
   2.0160404  49.1066027  12.7786791   0.8839855  50.1035690  12.6541877
  13.7466764  30.6827094  82.9244643  14.5580148  30.9779478  82.5111860
  13.0528402  31.1106516  82.4227846  48.2821417  83.6293221  22.5994849
  48.1182575  84.5259190  22.3071122  48.6431837  83.7269402  23.4805942
  10.4665148  98.2486248   6.0561454  10.1249278  99.1184425   5.8488607
  10.2954972  98.1408596   6.9917578   4.8333120  37.3538519  90.5717007
   5.0659274  37.4504877  89.6482375   5.1677036  38.1486155  90.9873585
  14.0708875  36.7822672  54.3099260  13.9753103  37.6515604  53.9207840
  14.0851020  36.9425036  55.2535129  65.9948631 104.2534740  76.6323185
  66.1052628 105.1895101  76.4653552  66.8012233 103.8550241  76.3048255
  84.5483967  33.8752676  70.9757233  84.8255249  34.1183592  71.8590915
  83.9275118  34.5585276  70.7229567  14.9051094  78.2623577   1.3978618
  15.8099687  78.4151125   1.6701216  14.7370207  77.3483753   1.6272512
  12.5363803  40.4575920  32.7320075  11.8213773  40.7331896  32.1583819
  13.3266962  40.7895994  32.3060918 103.2065674  23.0427433  60.0411820
 102.6561328  22.2667672  59.9357748 103.4893175  23.2583453  59.1524744
  65.6019402  96.0233498   9.1178620  66.3867235  96.5452290   8.9505625
  65.4157877  96.1616802  10.0465393  87.3536643  67.8378893  77.3137462
  86.9804247  67.0633627  76.8930089  88.1043228  68.0692889  76.7667556
  66.4946344  37.8403498  88.5882011  66.5908804  36.9244505  88.8491665
  67.0994868  37.9449488  87.8537327 106.8982884  53.0616404  70.3922749
 106.3689395  53.8287951  70.6102133 107.6787540  53.4211470  69.9705315
  67.4586917  20.0808066   1.6987228  67.4389101  19.3546790   2.3220775
  68.3825708  20.1708049   1.4650919  13.2646703  22.4179627  85.5807883
  14.0195512  22.7030589  85.0659019  12.8723764  21.7156578  85.0620365
  23.7261820  91.5345573   8.1857425  24.0226889  90.7884502   7.6645488
  24.3677616  92.2219563   8.0065858  50.9826231  81.5326595  13.8528645
  51.4538288  81.5095139  13.0200028  51.1939573  82.3893356  14.2239010
  27.8940606  78.4223747  19.5932758  27.0147371  78.2874966  19.9465895
  28.4725499  78.3353806  20.3509116  62.5338030  89.7952843   2.3621461
  63.3530951  89.3110371   2.4645714  61.9865274  89.2279339   1.8191543
  87.6469561   3.6308886  59.7457862  87.7358802   3.0340506  60.4888296
  88.5458990   3.7922217  59.4592500  62.6320649   7.8377456  20.9261179
  63.5097099   7.6301402  20.6053782  62.1326304   8.0492324  20.1374054
  26.1753178  95.4645634  60.3317833  26.5276670  94.8006630  60.9245014
  26.9190836  96.0371494  60.1442003  66.7592359  13.3213347  15.5579233
  67.0160962  13.2515830  14.6384740  65.8266068  13.1059093  15.5630708
 104.1086198  16.2951106  13.8269138 103.5165358  15.7745093  13.2841027
 103.5408307  16.9376391  14.2523670  25.2065229  25.1475550  78.0285358
  24.8223399  26.0194756  77.9369545  24.7269248  24.6073367  77.4005365
  23.2692480  90.1135063  44.4973183  22.9521966  89.7516632  43.6698055
  22.5381994  89.9990177  45.1045227  38.5647321  82.5191402  25.3140211
  37.7999067  82.2721481  24.7941470  38.4307766  83.4460831  25.5117011
  31.5514016 104.4054699  24.5160413  31.8858600 105.2265835  24.1552949
  31.0638809 104.6678925  25.2968693  96.3117620   4.3754031  89.2433545
  96.2115213   5.0265910  89.9377170  97.2468754   4.3850352  89.0391430
  28.8327670  94.7495842  38.7149358  28.1337166  94.7391415  38.0611396
  28.7348986  93.9206600  39.1834831  29.7807932  92.7864742  12.8492868
  30.0819182  92.6843739  11.9464421  29.3637371  91.9507313  13.0586362
  79.7974565  30.8966376  71.8821990  80.6099709  31.3468005  72.1132886
  80.0743517  30.1818968  71.3088632  86.6448136  29.7183730  80.9639633
  86.6949066  29.3521620  80.0810051  86.3870617  28.9796378  81.5153819
  31.8885231  98.7209320  34.5254898  31.2546539  99.2397499  35.0207305
  31.5614486  98.7379837  33.6260653  27.0708752  55.6749010  23.6350894
  27.7141619  56.3824892  23.5934734  27.5956368  54.8787403  23.7186503
  58.8684893  75.7275486  19.7129071  58.8567495  76.6538811  19.4720721
  57.9447508  75.4852533  19.7779274  24.2002582  10.1692797  60.8632636
  24.6194648  10.9671379  60.5408978  24.0073585   9.6641566  60.0734067
  53.9269972  95.7615089   2.6277271  54.0544415  95.0523949   3.2579294
  54.7989845  96.1391163   2.5124821  42.9771471  96.9991207   3.6587477
  43.7907028  96.6017532   3.9693269  43.0587387  97.9242516   3.8904941
  32.4371219  92.1253014  41.9290161  33.3336115  92.4591923  41.9615555
  32.4483752  91.4770699  41.2248135  26.3853549  32.1131255  85.0168222
  25.5812406  32.4580313  84.6286458  26.5923356  32.7255179  85.7227767
   0.6654286  52.7129008  79.6778131   1.2124085  52.1441485  80.2196312
   0.8191633  52.4110056  78.7825739  28.1239462  64.9996138   8.6287761
  28.9562464  65.3322554   8.2928264  27.5316668  65.0336838   7.8775942
  90.5324555   6.5868396  14.1656828  90.8547259   6.3300532  13.3017182
  90.5383588   7.5438708  14.1487968  57.4086881   3.7300414  22.1577430
  57.1157540   4.2844790  21.4345431  57.9206897   4.3152255  22.7159953
  29.6426320  85.5698395   9.1517103  29.4689655  84.8399067   8.5573488
  28.7988925  86.0132980   9.2393607  63.9684773  29.5514316   6.9214153
  64.7815133  29.1462153   7.2230846  63.6836601  30.0934714   7.6571518
  87.2139979   3.5928935  21.4940906  86.7736817   2.7976531  21.1941624
  87.2846223   3.4843844  22.4424934 100.0132366   2.5343110  80.6822801
 100.0032207   2.3784615  79.7379053 100.0522634   3.4869172  80.7674241
  40.9182453  43.9929199  30.2810884  40.3997421  43.7274265  29.5215487
  41.2721968  44.8495054  30.0418901   6.8107318   7.2023417  88.6552510
   5.9707784   7.2846199  88.2036546   7.2565316   6.4859797  88.2032311
  16.3808107  51.1784674  66.1217690  16.2731504  51.1388995  67.0720720
  16.3318443  50.2659251  65.8369732  94.7536226  21.1955954  71.3497734
  93.9457484  21.7029978  71.2715745  95.3431364  21.7595364  71.8504488
  40.9637356  88.6297417  18.3545792  41.9141531  88.7091160  18.4360647
  40.6660414  89.5161247  18.1498241   5.0911438  62.2432661   1.0035707
   4.8480895  62.2242355   1.9292027   4.3892944  62.7389860   0.5817878
  44.2334318  43.2905722  12.3208666  43.5088682  43.9070559  12.4266446
  43.8114500  42.4612141  12.0965302  69.9435711 103.2420731   4.7710305
  69.5150805 103.3448601   3.9212865  69.6166563 103.9739513   5.2942073
  41.1958265  81.1436653  20.5515051  41.5198898  82.0361042  20.6730199
  40.3890991  81.2483978  20.0470710  33.8586235  92.0229530   0.6886264
  33.4509993  92.5494099   0.0009423  33.9983106  91.1668777   0.2838303
  15.3976178  73.0192852   2.8841385  16.2574589  72.8796053   3.2808691
  14.7780490  72.8820562   3.6007512  47.7618837  96.1990261   6.5390843
  47.7915812  96.3837719   7.4778187  47.2435427  95.3973770   6.4690197
 100.4269648   6.5802020  23.7793231  99.8353673   6.4362258  23.0407333
 100.2509356   5.8502883  24.3730116  18.8968384  70.5861950   4.1007957
  18.0269849  70.1895475   4.1482967  18.7468874  71.5144730   4.2798042
  93.8539990  43.4833075  27.4390602  93.2537397  42.8567816  27.0348454
  93.3197614  44.2628123  27.5913668  53.9243508  32.0718211   1.4098017
  53.4003342  32.8565902   1.2492377  54.6918011  32.3894710   1.8855594
  37.3962665 100.9049511  25.4384947  36.4530349 100.9568214  25.2840471
  37.7025747 100.2350235  24.8272634  72.9433584  59.5943117  11.5152907
  73.4009600  58.9374161  12.0400000  72.1304941  59.7588301  11.9932234
  65.8719660  22.5284595  10.6215906  64.9690605  22.8332633  10.5316401
  66.0318185  22.5283450  11.5653479  13.6054671  18.3122206  24.1621542
  13.8067150  18.6907828  23.3063388  14.1036022  18.8443696  24.7825670
  44.0821028  81.7961311  18.3731198  44.2719221  81.6514397  19.3000853
  44.7665358  82.3974419  18.0794978  56.2955999  80.4124546   1.3087785
  56.2975311  79.4647455   1.1743478  55.5490303  80.7253075   0.7979104
  68.6838150  63.0085850  18.9152372  68.4632492  62.0784092  18.9637697
  68.9067888  63.2491016  19.8144948  33.4880686 100.6927872  30.2918386
  33.2325292  99.7811413  30.1510096  32.8743839 101.1985779  29.7591114
  97.8618666  22.9821659  70.1512194  97.8320428  23.9263798  70.3054857
  97.1996494  22.8285386  69.4773507  34.0742207  82.2240925  29.1726255
  34.1465402  82.3132515  28.2223344  33.1396294  82.3264122  29.3523526
  16.9858861  80.5208015   4.8678291  16.2440550  81.1102295   4.7318393
  16.6823137  79.9032974   5.5332375  35.4941344  97.3362255   6.7251688
  35.0383806  97.3604012   7.5665587  36.4225936  97.3765278   6.9544482
  45.2348804  96.6834831  12.1393597  45.5950356  97.4291039  11.6591883
  45.8107948  95.9528255  11.9142044  47.0380878  78.9531898  33.5338950
  47.7350092  79.2211342  34.1328430  47.4655962  78.3544540  32.9215360
  20.6337523  95.1707554   3.1337938  20.0891900  95.8410072   3.5466477
  20.7641649  95.4856300   2.2393215  43.6226845  66.2107420  11.5595603
  44.0626812  67.0526981  11.4423203  42.6961994  66.4348030  11.6470432
  31.8977690  80.0328255  24.1607523  32.4125123  80.1168251  24.9633837
  31.6373587  79.1119957  24.1384983  55.4346752  86.4348698  30.4769611
  56.3404751  86.6136932  30.7295060  54.9928093  87.2803497  30.5553198
  48.8378525  87.9308987   4.0574184  48.0105305  88.3815670   3.8880911
  49.2959309  87.9473877   3.2171074   2.3769759  30.9744574  80.8708751
   2.1224260  30.3898360  80.1569760   1.7894196  30.7437445  81.5904450
   5.1542567  44.4254042  85.3266162   4.6493100  45.1833369  85.6212407
   4.5614576  43.9561964  84.7395331   1.0947949  58.0566645  39.1704512
   1.6983402  57.3446512  39.3825841   1.6380134  58.8445807  39.1887832
  27.7829837  21.7343546  85.0514865  27.4631786  20.8402277  84.9310905
  27.0024394  22.2816016  84.9648619  88.1245681  45.5003001  89.2862675
  87.6780077  46.3189627  89.5021743  87.7893528  44.8693968  89.9233088
 110.2100774  33.6026598  80.3098011 109.9427744  33.2368018  81.1529672
 109.5741554  34.2970492  80.1375997  70.9036418  65.6405665  75.9356236
  70.9386291  66.0999323  76.7746651  70.2019926  66.0771586  75.4526079
  97.7882501  34.5244051  91.1411410  97.5501867  34.1920878  90.2756202
  97.8102823  35.4754282  91.0348231  24.5773554  75.0104094  12.4568784
  25.4633117  75.2966881  12.2347176  24.7028565  74.1863489  12.9274189
  21.9427323  56.9322300  30.6515765  21.7183661  57.8591347  30.7336402
  21.1174583  56.4716816  30.8034086 104.1624518  40.4287840  81.1938775
 103.6129376  41.2116457  81.2311494 105.0122377  40.7165457  81.5274823
  28.8758540  51.7126894  49.8612213  28.4648633  50.8976030  49.5732117
  29.3478608  52.0282602  49.0906000  97.6656290  37.2902609  86.1623698
  97.7571102  37.4238707  85.2189648  96.7362686  37.0986868  86.2881336
  23.4246945  93.3657169  23.0079746  23.8497782  92.5109673  22.9376936
  24.0618491  93.9130688  23.4669685   7.9290008   4.5852114  87.8556377
   8.6975908   4.0270306  87.9736891   8.0281877   4.9462010  86.9746828
  26.6673803  32.0332838  77.1852696  26.8414973  31.2840678  77.7549934
  26.8029355  31.6971232  76.2993538  10.3960513   7.4312474  83.8700122
  11.1688232   7.2206046  83.3459097   9.9426936   6.5948035  83.9751709
   5.9497422 101.9456863  31.8491578   6.4211327 102.3924446  31.1460018
   6.3547850 101.0797024  31.8965292  78.2622480  96.3837147   2.9174715
  77.6843929  95.7236576   3.3004031  78.2231665  96.2187290   1.9754079
  29.3798399  89.3853092  18.3385336  29.0457034  89.4767475  19.2308474
  30.2974677  89.6511269  18.3979809  30.3648591  88.4864235  28.6883450
  30.0747585  88.1389141  27.8449512  31.2833667  88.2246685  28.7520885
  99.0579148  19.0272404  74.5541298  99.0392443  18.2789828  75.1507819
  99.8029753  18.8557841  73.9781785  95.1454016   4.3472744  76.3358688
  94.6909042   4.8907925  76.9794929  95.1755663   3.4778572  76.7351604
  93.5285044  19.3318385  38.7227249  93.1255103  19.1252631  39.5660210
  94.4686032  19.2397899  38.8775659   5.2302295  63.7363529  18.4929919
   4.2978886  63.9422750  18.5605836   5.5585653  64.3309736  17.8185642
  76.9224787   9.6269626  24.0661788  75.9693814   9.7032470  24.1111374
  77.2154785  10.4765719  23.7367153  84.0752459  21.5278262  34.3464422
  83.4439469  21.8157310  35.0058436  83.8591862  20.6079501  34.1935372
  32.4679041 101.8044472  25.4844689  31.6915917 101.4023590  25.0947332
  32.3934960 102.7327442  25.2632070  57.8813124  54.1665888  20.6742835
  58.7022781  54.6403933  20.5410218  57.6789761  53.7921572  19.8169065
  65.0020504  83.7421799  17.3178208  65.7957363  83.5540771  17.8187287
  64.3642426  84.0202713  17.9751647  86.9507655  43.9256789  87.2318336
  86.7487296  43.2441069  87.8728265  87.3503896  44.6271922  87.7460480
  38.0904006  39.9568678  86.0718417  37.9793929  39.9717547  85.1212162
  37.6891565  39.1325213  86.3469538  55.6690431  11.8382186  13.1030560
  55.4859973  11.5747565  14.0048957  54.9815846  12.4706382  12.8940618
   8.1369638  51.8414999  71.2549233   7.6361465  51.0827090  71.5543246
   7.5800752  52.5923659  71.4606273  20.7464360  68.4624030  86.3664642
  21.1238813  68.9400603  85.6278098  21.3694953  68.5949446  87.0809287
 104.7597786  29.5335127  66.2553239 104.4445082  28.6377741  66.1349988
 105.4290196  29.6446253  65.5800438  47.1853018  69.1393900   8.7390840
  48.0869055  68.8874960   8.5393500  46.9084597  68.5218620   9.4160247
  57.9081011  88.7968540  16.9197106  57.0134687  88.9384270  16.6101646
  57.8029919  88.4523392  17.8065550  31.2499499 104.2096806  50.9631252
  30.6953669 103.8445854  51.6526031  31.0780215 105.1509094  50.9907150
  88.9082814   6.1671084   6.9815624  88.9756776   5.2758807   6.6389030
  88.0807925   6.1768264   7.4625969  76.4933348   7.5982970   2.2506073
  77.1212221   7.6244945   2.9726198  76.4668537   8.4974689   1.9234785
  44.0746784  73.9105225  23.9147019  43.4072876  73.3220911  24.2676401
  43.8881826  73.9490032  22.9766321   8.7325191  57.3465182  83.0703408
   8.3091640  57.9767157  83.6533117   9.6671294  57.4400355  83.2546967
  31.7616700  71.5934588  90.3816847  32.6019334  71.8649985  90.7510816
  31.4023971  70.9839178  91.0263613  40.2492189  97.0104122   4.6647465
  41.1234808  96.8727398   4.3001392  40.1981354  96.4010334   5.4011434
  75.5133105   4.3647975  10.2585149  76.3913203   4.1639728  10.5825627
  75.2383638   3.5691375   9.8029202  34.6580219  87.4734211  18.7727380
  33.8690996  87.4088001  19.3109345  34.5348978  86.8166065  18.0874145
   4.6039492  94.3685150  26.0904074   5.0881118  94.9506664  26.6759992
   4.7872701  94.7046947  25.2131343   5.8085345  26.5909983  56.0168529
   5.7884311  25.6394936  55.9145784   5.4244327  26.9271017  55.2070785
  50.1301146  72.8608847   3.8999796  49.9457264  72.5968122   4.8013672
  50.8470869  73.4904051   3.9767247  40.9816170  62.5877476   1.1981860
  41.0847664  63.3096743   1.8181935  41.8556595  62.2034311   1.1304931
  51.9298697  95.7631969   6.2232113  52.2533083  96.6625500   6.1705345
  51.9224739  95.4578018   5.3160650  91.6913744  40.6308295  63.6313605
  92.4186941  40.0938536  63.9458346  91.8119200  41.4753367  64.0655494
  66.0666157  10.2954024  30.6795239  65.2181197  10.2699584  30.2372146
  65.8585692  10.1637858  31.6045237  35.2586508  85.2231026  26.4688015
  34.5986676  84.6769142  26.0418010  36.0905075  84.7936058  26.2693501
  41.3366461 102.2877979  12.9619491  41.4108896 102.5167274  12.0354998
  42.2188139 102.0132923  13.2122767  36.1353707  61.8662882   2.3550020
  36.6959882  61.1392689   2.6258957  36.4863896  62.6256418   2.8201896
  82.1295405   7.4369449   2.5830591  82.1740819   7.9434794   3.3940288
  81.2918425   7.6845855   2.1916927  56.9269086   0.4504985  19.3601894
  56.4545525   0.9087771  18.6651421  57.6213861   1.0567683  19.6178126
  57.8743816   0.6764525  38.9791608  58.0327321   0.0866908  38.2420444
  57.0233453   1.0720557  38.7908411  31.3101434  24.0250088  88.1547505
  31.3130473  23.8298489  87.2176611  30.5577516  24.6040799  88.2764703
  11.5445518  43.4950854  87.0721322  12.1386289  43.3334853  87.8050634
  11.0788249  44.2957903  87.3133731  88.0977496 102.3118140  80.5124569
  88.5073575 101.4521624  80.6096411  87.1591803 102.1398665  80.5883050
  41.4891481  71.4016962  51.4997530  40.8492470  70.7363176  51.7527914
  42.3098087  71.1072350  51.8947697  92.7913102  47.4032332  56.4806342
  92.7668937  46.5707137  56.0088944  92.1796712  47.9657484  56.0055518
  33.1060958  97.9608536  29.6582270  32.9719830  98.0688381  28.7166405
  33.7080646  97.2202015  29.7310281  53.5259819  99.9518776  25.6210613
  54.2931080 100.1623154  25.0886440  52.8044415  99.9056911  24.9937868
  63.8692165  40.7408637   2.3481672  64.4821192  41.0734004   3.0039132
  63.4773947  41.5263480   1.9664422  24.2164087  47.7355791  90.2504954
  25.1018953  47.9398657  90.5511801  23.8342380  47.2221972  90.9622639
  51.1827946  86.9023705  20.5563712  50.4694080  86.3333130  20.8452892
  51.8274212  86.3047695  20.1774859  92.2843600   4.2766494  42.5843000
  91.8406869   4.9636382  42.0868683  92.9238988   4.7446651  43.1211233
  64.3646026  23.0797500  21.2269855  63.5948969  22.6384753  20.8677292
  64.5946670  22.5671023  22.0019031  17.0179808  98.0833721   3.5883695
  17.1607971  98.9193821   4.0321293  16.7904270  98.3246326   2.6904580
  50.3073263  57.5542974  11.6233480  51.0975933  57.8885984  11.1991382
  50.1559067  56.7036629  11.2113678  93.8852216   1.5084476  29.6515870
  93.3764888   2.1610850  30.1327133  93.2935239   0.7612723  29.5629621
  53.5567713  85.5249500  10.8071053  54.0431118  85.7078648  11.6110003
  53.5697269  86.3522530  10.3258348   6.0269207  66.2985468   2.1640389
   5.9122670  65.4366541   2.5643241   6.9464332  66.5143871   2.3194151
  40.4331303 104.3190193  14.6044338  40.6839943 103.5813713  14.0483880
  40.6568241 105.0941753  14.0893435  27.8136158  56.0345650  10.8620465
  27.9868460  55.2594280  10.3278339  28.6640763  56.2609768  11.2384617
  29.0629244  81.4248562  19.6226466  28.8547301  80.9923458  18.7945032
  28.5410810  82.2272301  19.6116281   7.9369878  24.5987965  83.1685287
   8.5823440  23.9361884  83.4149021   7.6565980  24.3447758  82.2892737
  26.9880390  97.5243282  21.7479110  26.1667538  97.5616741  22.2381473
  27.1161222  98.4169292  21.4268351  30.6655835  16.9533278  78.6358798
  31.5436029  16.5793206  78.5621476  30.1816129  16.3245846  79.1713083
  12.6977658  84.6677685  23.7889075  12.2331393  85.1141357  24.4968009
  13.6095130  84.9406052  23.8914323   1.9247793  56.6003180   0.3359523
   1.1367983  56.9060516   0.7852250   2.2906271  57.3871565  -0.0681231
  86.0113247  17.4118639  51.1010551  85.0700005  17.5829436  51.0715008
  86.3341471  17.9702069  51.8083525   7.9988134  56.7268324  19.9110627
   8.1649119  57.1129560  19.0510905   8.4076542  57.3330355  20.5288005
  23.5167932   9.4930149  75.1368952  22.6016187   9.7535206  75.0328529
  23.8491487   9.4231392  74.2419732  57.8487301  49.3024015  16.4108026
  57.7047396  49.4852400  15.4823267  57.3405790  48.5091257  16.5803134
  21.0698839  91.9888027  60.4094672  21.7446990  92.4903257  60.8669949
  21.5582903  91.3840611  59.8509169   5.8017111  66.7999077   5.8861947
   5.1173782  66.4300394   6.4439756   5.4322970  67.6237106   5.5682105
  24.3412971  59.4667292   2.9951605  24.8467779  60.2615929   2.8251103
  24.1279101  59.5133781   3.9271057  76.4201122  42.4884058  78.2697213
  75.8286122  41.8744494  77.8345036  76.2923477  43.3149363  77.8041553
  43.6963987  63.1087542  12.6554418  42.9411840  62.5827885  12.9185688
  43.4527349  63.4676409  11.8021762 102.2621151  44.5941855  90.6991808
 103.0664011  45.0690771  90.4898082 102.2991367  44.4666506  91.6471240
  50.2227211  90.8753109   6.3516456  50.6219482  91.7145443   6.5808392
  49.4469166  91.1102200   5.8425462  36.8418813  77.5006056   5.0968790
  36.7562890  76.5474510   5.0767875  36.2840796  77.7758884   5.8244151
   0.5246877  18.4402396  59.9516654   1.0418891  18.8972594  60.6148887
   0.8663820  18.7623478  59.1175652   1.5490031  25.2948977  54.7377658
   1.0149907  24.5005537  54.7289515   1.4124345  25.6656481  55.6096172
  34.7767811  96.5602405  88.5689542  34.5165260  96.6752107  87.6550174
  35.1111653  97.4175603  88.8324344  10.9743154  69.0679789  49.6442699
  11.7579997  68.6045170  49.9396944  10.5887508  68.4906292  48.9852953
  58.4561777  86.7371082   6.4624733  58.2334328  86.2146473   5.6919861
  58.2024479  87.6298046   6.2280500  33.9114356 100.8741188   6.7582190
  33.0761623 100.5738926   6.3998652  33.7555528 101.7882538   6.9954693
  95.0599766  45.5202198   6.8944466  95.4304123  46.2224293   6.3597345
  95.4204464  45.6692028   7.7685738  64.1300535  68.1407309   6.1119467
  65.0737953  67.9828596   6.1375928  63.8035917  67.7749300   6.9340456
  92.2675892   7.1842553  89.8783210  92.6327833   6.3075186  89.7591595
  91.3671776   7.0317198  90.1650652  28.5255003  85.5150890  21.3142014
  29.4749379  85.3934288  21.3129020  28.1862259  84.7569180  20.8384919
  65.5431166   8.1085278  78.6014760  66.0398402   8.8989712  78.8128984
  65.5606636   7.5919653  79.4071364  26.8274808  86.8480778  16.9476056
  27.7109766  87.1586609  17.1456170  26.7600369  86.9092655  15.9947467
 110.6329700  34.5878245  37.5764656 110.6761166  33.8867403  38.2267284
 109.8937079  35.1281001  37.8554535  27.6582575  51.9110537  29.3547535
  27.0426893  51.6587067  28.6665487  27.3341823  52.7554464  29.6681333
  22.8708028  30.0486876  76.6523516  22.3125695  29.3924834  76.2352037
  22.3350667  30.4024817  77.3623121  23.7281609  65.7543373  12.4098551
  23.8331389  65.7074022  11.4595866  24.5508027  66.1300516  12.7234340
  54.2565012  81.5943050   4.5037994  53.6995506  80.9063435   4.1394421
  54.1600418  82.3275089   3.8960725  90.7168098  93.1634672  63.7411046
  90.9112401  94.0200145  64.1215730  91.4396472  93.0009420  63.1350303
  30.6598258  86.2747765   0.7529368  31.0287666  86.6545486   1.5503600
  30.5136204  87.0244694   0.1760337  70.5799773   9.9640061  80.0487387
  70.2766981  10.6817080  80.6047618  71.0939863  10.3921725  79.3641198
  25.2359843  39.8025632   2.8793600  24.6006346  39.1745615   3.2231331
  25.4940438  39.4421411   2.0309888 100.4594155  17.8162123  81.1730647
 100.9934898  17.6829459  81.9561589  99.6198555  17.4073531  81.3833064
  48.9272566  80.7841117  89.9508168  49.7932203  80.4837425  89.6749237
  48.6938663  81.4594943  89.3139344  47.0995045  38.2643652  10.7717609
  46.2032461  38.1100893  10.4731882  47.6377058  38.1351399   9.9908173
  16.4612222  48.8521194   0.9793498  16.4554083  48.9675045   0.0291475
  17.0675433  48.1266785   1.1288244  56.9821358  83.7992287  12.5282097
  57.0451784  83.4301090  13.4091234  56.8138838  83.0446529  11.9638169
  83.1374212  88.2565076  90.0233309  83.3572622  88.3701236  90.9479893
  82.6901574  89.0676649  89.7820580  21.9464827  77.4626350   2.7609682
  21.3009763  78.0767775   2.4111342  22.7890396  77.8941965   2.6192614
  75.1175690  35.8096242  18.9822733  74.4143963  35.9820771  19.6084023
  75.9213924  35.9950566  19.4677770  92.8090116  12.9953076  89.1351180
  93.0178412  12.2033860  88.6396530  93.4169611  13.6545397  88.8003974
 111.1030074  23.1117607  89.3497524 111.4860340  23.9338709  89.6557941
 111.2558075  23.1134631  88.4048283   3.0862790  34.9427485  26.9939804
   3.0481783  34.4936538  27.8384280   2.2466820  34.7445679  26.5792108
  15.5235338  65.6475687  12.6539862  15.7746446  66.5345478  12.9117501
  16.0463715  65.0772858  13.2175946  18.3448112  82.0588112  12.9248333
  18.2597709  82.9998207  12.7714956  18.1614029  81.9506741  13.8580537
  42.7410889  81.6246223  16.0521078  42.0428658  82.2497463  16.2468612
  43.2958031  81.6344452  16.8321264  10.6540871  66.5853977  11.4410448
  10.7619166  65.6392288  11.3442457   9.9625385  66.8124866  10.8194160
 102.0228573  23.2556988  90.4793072 101.3352080  23.4132887  89.8323637
 102.8193661  23.1450631  89.9601085  38.9325380  47.2462320  22.9673696
  37.9873586  47.1741390  23.1002975  39.1871762  48.0186033  23.4721828
  42.1400738  85.4857731  17.4167669  42.8484344  84.8798943  17.1991134
  42.3344517  86.2737370  16.9092703  63.6889124 100.9471607  10.0666201
  63.6404419 100.2039337   9.4653690  62.9785013 100.7973385  10.6903982
  80.2960309  20.7126976  83.0785525  79.6707573  20.6266381  82.3589283
  80.0043931  20.0720002  83.7271583  54.4163704  76.2002039  22.0119214
  53.5687256  75.8296967  22.2578096  54.2714167  76.5736628  21.1425853
   2.0635199  20.5096365  75.1431358   2.9909848  20.4223658  75.3631902
   1.9936299  21.3744427  74.7388351  12.5696301  97.1598244  14.5309556
  12.2264695  98.0480957  14.6282113  13.2396936  97.0861912  15.2105319
 105.0872775  21.0434081  69.4076467 105.6718656  20.2854611  69.4096708
 104.3227478  20.7548882  68.9091682  45.6292676  61.2261416  57.2548127
  46.0741662  60.7451941  56.5569711  46.3372087  61.5476347  57.8131056
 106.4709874  10.3672387  56.8236804 106.2595268  11.2971569  56.9059443
 107.4240943  10.3303267  56.9040370  73.7461711  10.0926703  18.0990624
  72.8389240  10.2480716  18.3617127  74.1947270   9.8614043  18.9124191
  46.1302567  50.0092077   3.7300578  46.6909504  49.3309927   3.3533865
  46.1072683  50.6974697   3.0652308  42.7851868  78.3184147  13.3973622
  43.1426525  78.2192898  12.5149643  43.5077572  78.0772448  13.9769864
  63.3393049  50.4659700  21.1695838  63.5452747  49.8465443  21.8696690
  62.4601030  50.2193117  20.8825397  78.3242016  23.5875536  89.2996146
  78.8428419  22.9272200  89.7591852  77.9968273  23.1361462  88.5216093
  94.4914051  30.8782793  85.3552085  93.9072975  30.3392722  84.8217982
  94.1621359  30.7766844  86.2482327  71.5048171   4.4765872  50.4441166
  71.8037821   4.3165320  49.5490026  70.9811378   3.7058658  50.6631517
 101.9136902  37.7067210  85.5097955 101.2567111  37.2388293  84.9943507
 101.4881726  37.8660895  86.3522732  83.3423419  90.9088976  73.0782473
  83.0598636  91.3478429  72.2758973  83.8656707  90.1673849  72.7740777
  73.3946848  84.9424934   5.0450814  73.0289412  85.6329060   4.4920889
  74.0985060  84.5622635   4.5194486  90.7435747  93.9025075  57.2940564
  90.7149883  93.4160669  56.4701700  90.6320377  93.2345731  57.9705572
  84.2176385  95.1321037  67.0973802  84.7991844  95.7157142  66.6101050
  84.2829557  95.4313619  68.0042481 103.5819527  14.7704626  55.7132316
 103.9424296  14.9251629  54.8401022 103.7814423  15.5702235  56.1998653
  44.3502998 100.5296612  17.7184272  45.2579594 100.3528309  17.9656470
  44.0875483 101.2602234  18.2783151  33.1245160  67.5047874  21.4573693
  32.4061871  66.9650888  21.7874551  32.9114175  68.3913469  21.7486238
  64.7657967  72.3282051   5.6748420  63.9684820  72.4131155   5.1520485
  64.4563007  72.2952318   6.5800261 102.0953532  23.6113669  52.9365039
 103.0469390  23.6147953  52.8330564 101.8717786  22.6896263  53.0655289
  12.9743003  34.4298674  72.9272878  12.2110175  34.1306235  73.4213305
  12.7024602  34.3766905  72.0110416  45.2007157   0.6130427   7.0536637
  45.4474974   0.3545970   7.9416585  44.5472110  -0.0342351   6.7887127
  22.1768235   6.8500925  87.3764229  22.1946859   7.0476509  86.4400023
  21.8994807   5.9351326  87.4229297  57.4137087  98.4709794  75.1343954
  56.6091986  98.8292463  74.7593713  57.6548834  97.7560575  74.5453691
   5.5982637  21.5594651  86.3748652   5.0949907  20.7505585  86.4676905
   6.4043521  21.3976170  86.8650207  40.4967117  97.1562099  11.2916422
  39.6308231  96.7624855  11.1846495  40.3469563  97.9143715  11.8564391
  60.9323879 104.1064603  83.4337121  60.4487892 103.2817085  83.4801066
  60.8602400 104.3752200  82.5178552  60.2794027  99.5957470   5.3455424
  59.9482727 100.3989315   5.7473975  59.8792934  99.5803547   4.4761124
  69.1240644  61.4994478   9.2052627  69.4512939  60.6137514   9.3623978
  68.2501650  61.3700533   8.8367599   9.2114925  25.3987099  80.5434561
  10.1218557  25.1145769  80.6255698   8.9715623  25.6909777  81.4227992
 107.6294991  30.2141978  57.1040940 106.8119308  30.5441882  56.7313671
 108.0633231  30.9915759  57.4558282  38.4810948  67.3164129   1.8500909
  39.0435576  67.1075487   2.5959098  38.4033370  68.2702732   1.8684615
  81.3979526 101.6173894  80.6476045  81.5501352 102.5148494  80.3515673
  80.4720540 101.4584119  80.4641008 107.8165003  43.3528353  53.5758471
 107.2459503  44.0487982  53.9019489 107.3499986  42.5433756  53.7841511
  25.1605987  21.7162634  64.7431803  25.0017165  22.6012398  64.4148397
  25.8720016  21.8194319  65.3752375  18.7185597  77.8798962  12.4246621
  18.3817804  77.0280504  12.1468711  18.4832180  77.9401493  13.3505225
  36.9431520  54.6074724  24.2174125  37.4026465  55.2884102  24.7087622
  37.1410704  54.7987604  23.3006406  79.8331466  36.1111952  55.0614643
  79.0606960  36.2489344  54.5132112  80.3410288  36.9169642  54.9664927
  14.3921041  37.3575808  86.0714149  14.4740199  38.0907656  85.4615217
  13.9572286  37.7311255  86.8379563  16.8995141  32.9250838  85.0106853
  17.4100541  32.5259901  85.7151806  16.6119909  33.7647177  85.3692657
  81.3367462 104.2674065   9.9367464  81.3629436 105.0200367   9.3459028
  80.8175278 103.6134720   9.4687533  86.9458433  87.5046499  84.2616677
  87.3890729  88.3476288  84.1659337  86.0206266  87.7301438  84.3584061
   4.6426915  32.3328520  80.0024152   4.4252586  32.7046992  79.1476178
   3.8203859  31.9564368  80.3160441  44.6759367  91.5549374  16.2905812
  44.5703936  91.0494709  17.0965600  45.1303768  92.3513889  16.5651286
 105.0099178 102.3747308  59.9351883 104.7031207 101.4785154  60.0726843
 105.1484866 102.4381263  58.9901948  31.0725116  21.2393643  48.6159658
  30.8896493  21.5010668  49.5183516  30.6468868  20.3870751  48.5228300
 111.8039367 111.8039367 111.8039367 109.4712190 109.4712190 109.4712190
