
51845  0.0000000e+00
  43.0135965  51.4030552  18.2164478  42.3444510  51.3880920  17.4600613
  43.6682463  52.1561146  18.0601132  42.4559784  51.7454910  18.9858007
  43.6379004  50.0577068  18.4068775  42.8851175  49.2705441  18.3645213
  44.5739174  49.8077536  17.2028816  45.3015471  50.6050873  17.0515311
  45.0611353  48.8562822  17.4159944  43.6952925  49.7418213  15.9404826
  42.5489473  50.1619959  15.8952844  44.2729044  49.1488075  14.9399066
  43.7154055  48.8302135  14.1602957  45.2098846  48.7741947  14.9827182
  44.3215179  49.8741865  19.7589195  44.7361803  50.8690023  20.4083276
  44.3497229  48.6404657  20.2508879  43.7015629  47.9541302  19.8918092
  45.2792597  48.1394958  21.2813807  45.0626326  48.5328054  22.2745967
  45.1659489  46.5728569  21.4199758  45.5200768  46.1380529  20.4852891
  45.8841228  46.2067509  22.1536589  43.7263918  46.1977005  21.7408490
  43.1076288  46.3317204  20.8535624  43.7799740  44.7085571  22.0284605
  42.7722502  44.3831873  22.2867942  44.0823841  44.1533756  21.1405277
  44.5325804  44.5467663  22.8001499  42.9437685  46.8883753  22.8996778
  41.9669867  46.4220858  23.0284166  43.4913015  46.7418289  23.8307190
  42.9556847  47.9504061  22.6546311  46.7542887  48.5810471  21.0028839
  47.2143507  48.5407066  19.8390889  47.4431181  48.9158058  22.0937586
  46.9156647  48.9305592  22.9549646  48.9075613  49.1304684  22.1141148
  49.0968418  49.8667669  21.3330030  49.3206882  49.7085381  23.4764385
  50.2281523  50.2681923  23.2497168  48.5463762  50.3878784  23.8328648
  49.6587658  48.8988447  24.5455122  50.5957747  49.0110159  24.7216773
  49.5805979  47.7586746  21.9283462  49.0008640  46.6677427  22.1546173
  50.8192158  47.7023220  21.5491486  51.6215229  48.7837553  21.0067081
  52.1838236  49.3054295  21.7811608  50.9505606  49.4824457  20.5069733
  52.6685810  48.1830168  20.0893569  53.5446501  48.8171101  19.9532270
  52.2474003  47.9179096  19.1196024  52.9660892  46.9104242  20.8827806
  53.6253452  47.0675802  21.7364717  53.4052134  46.1603451  20.2250195
  51.5920019  46.5134382  21.3489151  51.0425329  46.0232115  20.5452609
  51.7021275  45.6858444  22.6652813  51.6312647  44.4566154  22.5310922
  51.6388130  46.2336683  23.9264894  51.8706703  47.2166729  23.9198089
  51.4141989  45.3899288  25.1875448  51.8335342  44.3896675  25.0792003
  52.2878981  46.0467196  26.3486099  53.3054495  46.1428547  25.9698677
  52.0070744  47.0730734  26.5849113  52.3251057  45.2112389  27.6284671
  51.2828016  45.1711988  27.9448628  52.8135777  43.7585735  27.4682593
  51.9674253  43.1768990  27.1024942  53.8082981  43.7438011  27.0228195
  52.9441547  43.3068848  28.4516358  53.1929827  45.8046389  28.6803341
  53.0886316  45.2508497  29.6133590  54.2101479  45.7301092  28.2957315
  52.9582834  46.8682051  28.7232304  49.9079084  45.1609135  25.5773830
  49.6741199  44.1611814  26.1777377  48.9251423  45.9680414  25.1325631
  49.1801214  46.7916870  24.6065497  47.5127268  45.6254244  25.2710462
  47.3223495  45.3385973  26.3052535  46.7086363  46.9006968  24.9274254
  47.1427917  47.3417664  24.0301728  45.7018280  46.6157436  24.6220684
  46.7203999  47.8635454  26.1131430  46.0577297  47.4125338  26.8517613
  47.7300644  47.9459381  26.5155005  46.1785412  49.3000317  25.7543898
  45.9435320  50.2043915  26.6379929  45.7460499  49.4831371  24.5864654
  47.2777653  44.3497324  24.4140625  46.6485262  43.4070444  24.8149896
  47.9620886  44.2968369  23.2989240  48.3630562  45.1987314  23.0846596
  47.9335880  43.2026100  22.3582435  46.8957996  43.0329609  22.0713472
  48.5924721  43.6227846  21.0627604  49.6409369  43.9085865  21.1472535
  48.5520697  42.7808762  20.3716302  48.0078888  44.7655058  20.4394746
  48.3480930  45.5300140  20.9099984  48.5099840  41.8749142  22.8865099
  47.8773928  40.7781553  22.9324889  49.6918631  41.9904041  23.5754323
  50.1784611  42.8581953  23.4014773  50.1902485  40.7411242  24.1798830
  50.2119637  39.9631238  23.4167695  51.6220808  41.0625458  24.5804811
  52.0442486  41.4537525  23.6548281  51.6742134  41.7432976  25.4301596
  52.1704531  39.5624399  24.9069762  51.3596106  38.8749886  25.1479053
  52.9825783  39.0267611  23.6892295  53.6080647  39.8463035  23.3353639
  53.6405373  38.2244754  24.0231943  52.3224545  38.7081981  22.8824735
  53.1310034  39.6768403  26.0595679  53.9673185  40.2444172  25.6514788
  52.6820040  40.3343630  26.8039894  53.4667683  38.7146235  26.4462256
  49.2509270  40.2491474  25.3097606  48.9278126  39.1093159  25.4475856
  48.7035608  41.1900377  26.1552072  48.9328814  42.1378469  25.8922124
  47.8076601  40.8565140  27.2534466  48.1673050  40.0833321  27.9323792
  47.6418400  42.0605755  28.1723166  47.1166515  42.8608036  27.6508665
  47.0929384  41.7688370  29.0676928  48.6454630  42.3409224  28.4920788
  46.4283705  40.2861452  26.7895508  45.8612156  39.4459414  27.5455070
  45.9063387  40.7763004  25.6204653  46.4008808  41.5129662  25.1379156
  44.7512674  40.1343346  24.9497485  43.9790010  39.9639583  25.6998730
  44.2899466  41.0173798  23.7709641  43.9947367  41.9555855  24.2407751
  45.0407267  41.1391878  22.9902005  43.0109835  40.5210876  23.1343436
  42.8933144  39.8156905  22.0168161  43.7308359  39.5610046  21.3842893
  41.5772295  39.5117855  21.7629743  41.3107634  38.7817144  21.1179209
  40.7919502  39.9025059  22.8370857  39.4453287  39.7798896  23.0861235
  38.8190341  39.3915462  22.2966051  38.8387084  40.3407288  24.2509246
  37.7859735  40.2740955  24.4826841  39.7272348  40.9595108  25.1998162
  39.3087220  41.3386440  26.1204195  41.0625219  41.1569166  24.8873258
  41.7943764  41.6028452  25.5445457  41.6540098  40.6248808  23.6961341
  45.1504469  38.7612605  24.4123721  44.3937349  37.8539658  24.5387411
  46.3807964  38.5471582  23.9182782  46.9996548  39.3453312  23.9118099
  46.8695164  37.3216152  23.3405995  46.0033369  37.0453882  22.7393270
  48.0122995  37.5568295  22.3113108  47.7696276  38.3922505  21.6545892
  48.8301468  37.9594159  22.9089355  48.3782625  36.2690759  21.5162039
  49.1313982  36.5680194  20.7871509  48.9415216  35.5812716  22.1468925
  47.2152472  35.5765796  20.8243299  46.1441803  36.1733890  20.5491590
  47.4125719  34.3558550  20.4403329  46.6939259  33.8495779  19.9430072
  48.3610821  34.1447473  20.1649094  47.1034145  36.2465453  24.4940519
  46.7959452  35.1185298  24.3125653  47.5173903  36.7161322  25.6656170
  47.8186226  37.6796150  25.6329274  47.4566126  35.9160304  26.9207263
  48.0824614  35.0352407  26.7771220  48.1106281  36.7266726  28.0445480
  47.6693869  37.7204919  28.1202722  47.9265738  36.1879683  29.4883204
  48.3601379  35.1988673  29.6359563  48.3379698  36.9149280  30.1885939
  46.8619394  36.1787987  29.7219396  49.6444035  36.9864368  27.8731918
  50.0505877  37.8629541  28.3780050  50.1941252  36.0987735  28.1861782
  49.7135448  37.2211194  26.8110037  46.0482359  35.4766679  27.2061706
  45.8519983  34.3549609  27.5952268  45.0824690  36.4107251  27.0147920
  45.4253244  37.3462296  26.8493032  43.6887360  36.1254001  27.2587013
  43.6677551  35.6890178  28.2573152  42.9225683  37.4521160  27.2102666
  43.5596466  38.2522559  27.5871062  42.6852083  37.7693892  26.1948371
  41.6030502  37.3753452  27.9862881  40.9580517  36.6143012  27.5470901
  41.7220783  37.0813155  29.0291119  40.7916546  38.6674261  27.9062986
  41.3255978  39.5061994  28.3529258  40.6468821  38.9536071  26.8645477
  39.5176411  38.7125659  28.7359524  39.8404121  38.6865282  29.7767425
  39.0565681  39.6723247  28.5027719  38.4777808  37.6303101  28.4497046
  37.6283669  37.9375076  28.9016271  38.2781935  37.5916052  27.4603772
  38.7959123  36.7463326  28.8204813  43.1365156  35.1791716  26.1878204
  42.3083878  34.3432689  26.5441775  43.6359787  35.2168536  24.9551272
  44.2186594  35.9857249  24.6560907  43.1442833  34.3169141  23.8568211
  42.0990276  34.1120887  24.0883279  43.3742905  34.9946856  22.5268698
  44.3411350  35.4957604  22.5741625  43.1305981  34.3495607  21.6827559
  42.2263288  36.3722444  22.3395991  42.7376699  37.1071815  23.3312130
  43.8558865  32.9776192  23.9585233  43.4462595  32.1012759  23.1743860
  44.7635555  32.7668095  24.8802805  45.2840090  33.5804081  25.1757169
  45.4226542  31.4878440  25.1632667  45.3337622  30.8215690  24.3052030
  46.9643021  31.7709064  25.4084826  47.0794296  32.8517485  25.4898953
  47.2309256  31.3069010  26.3580656  47.9036570  31.2158632  24.2926383
  48.9057255  31.5531921  24.5575261  47.9098129  29.6764779  24.3790436
  48.1146622  29.3940473  25.4116964  46.9770241  29.1655922  24.1402984
  48.6283636  29.2344236  23.6888480  47.4992609  31.5777421  22.8255677
  48.1385374  31.0414457  22.1242666  46.4446640  31.3865161  22.6271796
  47.8063202  32.6126599  22.6746941  44.8434258  30.8390665  26.4706826
  45.0631952  29.6537352  26.7079496  44.2163849  31.6566586  27.3585963
  44.0263510  32.5789285  26.9933510  43.5360527  31.2976313  28.6323738
  44.0770817  30.3823757  28.8725781  43.9009523  32.2061753  29.8269010
  43.9572573  33.2320571  29.4628978  43.1413364  32.1721721  30.6078863
  45.3744507  32.0126891  30.3579998  46.1842489  31.9868803  29.6288514
  45.5782413  33.1537914  31.3361287  44.7371387  33.2539129  32.0221496
  46.5067863  32.9968047  31.8850040  45.6093264  34.0782690  30.7595205
  45.4027939  30.7733202  31.1697555  44.6712828  30.6654811  31.9706106
  45.1931095  29.9449921  30.4929948  46.4122295  30.6152749  31.5494442
  42.0006227  31.0588884  28.5617495  41.4707232  30.1818323  29.2352438
  41.2881947  31.6944528  27.6199698  41.8237162  32.2422671  26.9617796
  39.7975707  31.5577912  27.3991418  39.2674565  31.8742204  28.2974458
  39.2668533  32.5748825  26.3736916  38.1771445  32.5912356  26.3928199
  39.6712089  33.5524106  26.6364408  39.7334862  32.3739290  24.9006176
  40.8160925  32.4884987  24.8465586  39.3850613  31.3809872  24.6164203
  39.0237594  33.4455490  24.1145587  37.9400992  33.4330320  24.2312813
  39.3810248  34.4332790  24.4058466  39.5346427  33.3786225  22.6377058
  40.5837059  33.6607194  22.7270818  39.4712329  32.3661637  22.2389531
  38.8868427  34.3609929  21.7639828  37.9495144  34.0510559  21.5507650
  38.6789799  35.2324247  22.2303510  39.4043612  34.4235134  20.8989024
  39.4290709  30.0558591  27.0905781  38.4502840  29.5098066  27.5891471
  40.3033257  29.3452716  26.3890147  41.1102009  29.7867918  25.9717345
  40.0638962  27.9610205  26.1136436  38.9812803  27.8882909  26.0099435
  40.5676126  27.6932621  24.6921539  41.6490412  27.7867222  24.7915435
  40.3851700  26.6513348  24.4290900  40.0399637  28.5712051  23.5703373
  40.9150219  29.1657782  22.6045990  41.9839859  29.0703177  22.7254415
  40.3832626  29.8901916  21.5382457  40.9916353  30.2925801  20.7417703
  39.0304923  30.1714778  21.4806199  38.5596895  31.0021806  20.5274844
  37.7827096  30.6170464  20.1156902  38.2003284  29.5865679  22.4471688
  37.1599388  29.7103500  22.1851254  38.6864591  28.8598752  23.5100317
  37.9863214  28.3904910  24.1852260  40.4876375  26.9396806  27.1805596
  40.2582216  25.7589340  26.9196415  41.1404467  27.3779678  28.2638860
  41.1416054  28.3644342  28.4806633  41.7359257  26.5417814  29.3197608
  42.5000334  25.9808302  28.7816429  42.3902273  27.4047709  30.4342794
  43.0397463  28.0980778  29.8999119  41.7239904  28.0195856  31.0394526
  43.2260180  26.6518307  31.2733173  44.1055346  26.8311477  30.9328699
  40.7665873  25.4839182  29.8620296  39.5266986  25.6547904  29.8017097
  41.3506413  24.4837046  30.4444361  42.3502684  24.4159150  30.3169656
  40.7560301  23.3870864  31.3030601  39.7286224  23.6340117  31.5705657
  40.6577587  22.1231580  30.4732442  40.3602219  21.2751675  31.0900831
  39.6281528  22.3232675  29.4132209  39.2660260  21.3571262  29.0617585
  38.7354827  22.6030827  29.9726319  39.8905420  23.0113125  28.6095738
  41.8946123  21.7095733  29.8431134  41.5713596  20.9341812  29.3784928
  41.4530563  23.1661105  32.6723695  41.1012268  22.2256041  33.4268785
  42.5130033  23.9990330  32.9229641  42.7155828  24.7873926  32.3250079
  43.5255146  23.7884450  33.9556050  43.3378077  22.8708363  34.5131612
  44.8351812  23.4452510  33.2362604  45.5866289  23.3548260  34.0206456
  44.8767424  22.0930457  32.4952555  44.4445038  21.2592936  33.0485511
  44.3038177  22.0457196  31.5691781  45.9123373  21.8277431  32.2825122
  45.3718472  24.4113564  32.3784184  45.5855370  25.1854277  32.9044962
  43.8713980  24.9857616  34.8837185  44.9443674  24.9893761  35.5181003
  42.9130173  25.9446168  34.8665905  42.1556664  25.7798386  34.2190027
  43.1915188  27.2891116  35.4235029  44.0749550  27.3033071  36.0618138
  43.4494495  28.1471038  34.1193271  44.2153215  27.7795219  33.4363723
  42.4977732  28.0947471  33.5904813  43.7623978  29.6181178  34.3829584
  42.8808546  30.6308293  34.3757820  41.8395424  30.4551649  34.1494775
  43.4588003  31.8540955  34.5755434  42.9316711  32.7154803  34.5593143
  44.8171282  31.7441058  34.7691607  45.8576536  32.7118516  34.8727322
  45.6545448  33.7601733  34.7109723  47.1622753  32.2901487  34.9362659
  47.8665829  33.1038117  35.0273776  47.4687529  30.9128022  34.9405384
  48.5107279  30.6364822  34.8746395  46.4200020  30.0009131  34.7869897
  46.6414928  28.9457059  34.7247267  45.0334024  30.3369880  34.7886992
  42.0230341  27.8873801  36.2979603  40.8675337  27.5888872  36.1647701
  42.3710251  28.8201308  37.2301102  43.3382559  29.1108775  37.2361636
  41.4743996  29.3639493  38.3454323  40.4604864  28.9712334  38.2689214
  42.1032047  28.7347031  39.6575093  43.1245375  29.1107965  39.7169566
  41.4692354  29.0194869  40.4972029  42.2585678  27.2272086  39.6155024
  41.3918304  26.7926979  39.1174340  43.1337738  27.0758915  38.9836693
  42.3930311  26.4914584  40.9174919  43.2668352  26.8844295  41.4372396
  41.5315151  26.5703726  41.5805626  42.6749325  25.0724483  40.4920387
  41.7720699  24.6697044  40.0329733  43.4881258  25.0733399  39.7662091
  43.0896330  24.2199516  41.6157389  42.5053549  24.3752456  42.4248123
  43.0331659  23.2480121  41.3469315  43.9991093  24.5646238  41.8880510
  41.5099382  30.8815742  38.2205725  42.3336887  31.5598273  38.7982941
  40.6254911  31.4328742  37.4387097  39.6101642  30.7524586  36.6026568
  39.0662432  30.0379705  37.2205210  40.1954508  30.0778055  35.9778476
  38.8583469  31.7545819  35.8140349  37.9745674  32.1693087  36.2988400
  38.6671281  31.3936305  34.8034668  39.9590230  32.9049444  35.7840586
  39.4803929  33.8646531  35.5891943  40.6892633  32.7302194  34.9939203
  40.5744314  32.8637624  37.1713185  41.5693283  33.3044600  37.1074915
  39.8067689  33.6353922  38.3082986  38.8309455  33.0700755  38.8237333
  40.2231836  34.8765326  38.6583734  40.9983730  35.2750373  38.1481028
  39.5325947  35.8351302  39.5818758  39.4920063  35.4700828  40.6081295
  40.3410149  37.2135997  39.5589161  41.3311625  37.0270085  39.9747157
  40.3576660  37.5269508  38.5150599  39.7449422  38.3068657  40.4374838
  38.7237930  38.4253073  40.0750971  39.7093964  37.9924655  41.9487286
  40.7485104  37.8763509  42.2567463  39.2813182  38.8206911  42.5134373
  39.1709304  37.0607162  42.1219301  40.4688835  39.7256327  40.3685045
  40.4465437  40.0714445  39.3350554  39.9119139  40.4982281  40.8985806
  41.4866543  39.5271540  40.7044411  38.0915189  35.9646225  39.0524054
  37.9155064  36.4585185  37.9450846  37.0914674  35.7739258  39.9458623
  37.4777794  35.3975129  40.7997847  35.6622958  36.1048245  39.7798276
  35.1341772  35.5984521  38.9718819  34.9113321  35.6547093  41.0326195
  35.0514770  34.6144462  41.3264227  35.4118252  36.2264299  41.8141222
  33.4712148  36.0179973  41.2098932  32.8612494  36.7409658  40.4227352
  32.8271246  35.6203842  42.2428322  31.8785691  35.9194541  42.4186325
  33.4066439  35.2208400  42.9671431  35.4277539  37.6679778  39.5038033
  35.8857179  38.4911370  40.2645445  34.6456313  38.0386543  38.4825492
  34.0549183  37.1602726  37.4515986  33.2110929  36.5942502  37.8461623
  34.7090149  36.3893414  37.0442581  33.6436892  38.1165195  36.2693310
  32.7599764  37.6234388  35.8643246  34.3999791  38.1983042  35.4886651
  33.3059144  39.4349885  37.0019555  32.2486615  39.3664765  37.2581267
  33.3480287  40.2382612  36.2663746  34.1918325  39.4667935  38.2391167
  35.0960326  40.0047779  37.9543447  33.4889412  40.1824808  39.3632126
  33.4796381  41.3879585  39.3716049  32.8605056  39.5199752  40.3402042
  32.7325821  38.5228920  40.2424145  32.2474051  40.1152134  41.4749575
  31.9615293  41.1263943  41.1853313  30.8868504  39.3297601  41.7962551
  30.9266734  38.2631016  42.0170593  30.3980947  39.7962117  42.6516151
  29.9182653  39.5859075  40.6897783  29.2703199  40.6411171  40.7514429
  29.6731853  38.6675000  39.8131943  28.8473964  38.8020277  39.2474413
  30.0446725  37.7289009  39.7795725  33.1295466  40.2851295  42.7209949
  32.6809978  40.6996202  43.8042641  34.4644284  40.0449848  42.4666214
  34.8421931  39.6786833  41.6045189  35.5096364  40.2592421  43.5343742
  35.1682186  39.6425009  44.3657398  36.8682909  39.8832917  42.9973364
  36.9739723  38.8045335  42.8824091  37.0094275  40.3676176  42.0310974
  37.9200530  40.4150200  43.8377857  37.9888535  39.7662449  44.5420265
  35.4346824  41.7842388  43.9719820  35.1678109  42.7761841  43.2757330
  35.6369066  41.9655752  45.3023338  35.8716679  41.1913967  45.9070110
  35.3637385  43.3236647  45.9088326  34.3607998  43.6133432  45.5953074
  35.3627896  43.1463051  47.4432898  35.0084710  44.0658140  47.9091835
  34.5783806  42.4274969  47.6801920  36.6833448  42.8166580  48.0916691
  37.1867442  41.5697098  48.2208538  36.6617966  40.7260036  47.7977800
  38.4933352  41.6285276  48.7197208  39.1398215  40.8676624  48.8721418
  38.8316560  42.9338360  48.9187002  40.0018740  43.4842634  49.4483805
  40.6860590  42.7366686  49.8217344  40.0858688  44.8670149  49.5891714
  40.8843946  45.2893877  50.1810789  39.0395021  45.6863165  49.0898848
  38.9914036  46.7639923  49.1418743  37.9787803  45.1506281  48.4136534
  37.1474409  45.7664490  48.1037569  37.7722478  43.7509060  48.4502888
  36.3428831  44.4165993  45.3996420  35.9957600  45.5481291  45.2419472
  37.5088406  44.0267849  44.9726677  37.6243472  43.0246496  45.0225210
  38.6934471  44.8254824  44.3745041  39.1199398  45.5111456  45.1066732
  39.7691035  43.8475990  43.9313459  39.3268919  43.1573582  43.2129335
  40.6130171  44.4083548  43.5295200  40.3960514  43.0153561  45.0916624
  39.6106076  42.4927330  45.6375980  41.3257027  41.9886637  44.4344950
  41.8532085  42.4568415  43.6034346  42.0267439  41.5405798  45.1386738
  40.6468296  41.2785721  43.9622688  41.1924171  43.8957644  46.0858297
  40.6052399  44.4869375  46.7885637  41.8393898  43.2417202  46.6704321
  41.9019413  44.5012379  45.5218410  38.1900740  45.7347345  43.2144499
  38.6304259  46.9218969  43.1996870  37.3001480  45.2575874  42.3554945
  37.0784211  44.2751408  42.4312735  36.5364432  46.0807657  41.3662910
  37.2306991  46.5092278  40.6434250  35.6431818  45.2255535  40.4021168
  34.8497272  44.7266340  40.9585476  35.2189541  45.8529377  39.6182084
  36.5749621  44.2903614  39.6587825  37.2680593  44.7497892  38.5738754
  37.2384667  45.7812548  38.2551289  38.0028820  43.8073683  37.8190088
  38.6090589  44.1144133  36.9795609  37.8954768  42.4237156  38.0343580
  38.2224631  41.6015053  37.0402694  38.2684326  40.6952286  37.3535562
  37.2650671  41.8915653  39.1633368  37.0789123  40.8444452  39.3511844
  36.5715981  42.9153538  39.9386239  36.0515618  42.5519943  40.8126545
  35.7571483  47.2759342  41.9247150  36.0463762  48.4368849  41.5096521
  34.8800898  47.0772982  42.8784037  34.6526575  46.1440849  43.1906366
  34.0021205  48.2034302  43.3306932  33.8519096  48.8106441  42.4380398
  32.6389170  47.6583242  43.7540293  32.4921703  47.6658583  44.8340797
  31.8495297  48.2130527  43.2468271  32.3394489  46.2127399  43.5250044
  32.3294210  45.5501032  42.3042297  32.5842071  44.2307091  42.4903727
  32.5136828  43.4639406  41.7330790  32.5615239  43.9834929  43.8358736
  32.6367998  43.0218077  44.1351938  32.4672747  45.2330971  44.5132494
  32.6756549  45.4442310  45.5517101  34.5762658  49.1876984  44.3319845
  34.2028618  50.3762913  44.3345642  35.6910491  48.7630224  44.9536371
  35.8762026  47.7702332  44.9672842  36.6421008  49.6277618  45.6302881
  36.0011625  50.3852272  46.0814476  37.4250221  48.7125063  46.6318750
  38.3600116  49.1721821  46.9521761  36.8336749  48.5180616  47.5266409
  37.6135707  47.7555561  46.1452532  37.5990605  50.3704834  44.6744919
  38.1296206  51.3942957  45.1450777  37.6480460  49.9595451  43.4012079
  36.9186068  49.3432474  43.0722809  38.4846401  50.6266260  42.3614407
  38.1971693  50.2696800  41.3724756  38.2351160  52.1767998  42.3036909
  38.7318540  52.5922680  43.1804657  38.7436509  52.5596714  41.4188671
  36.7333078  52.6382542  42.1824026  36.2079978  52.4577427  43.1202555
  36.7201352  53.7273026  42.2259188  35.8607936  52.2811508  41.0084581
  36.3202238  52.8005409  40.1674747  35.7133269  51.2016869  40.9750652
  34.4027281  52.8343010  41.0274363  33.7840891  52.1568060  41.6159773
  34.2910480  53.7367821  41.6283989  33.8758230  53.0299997  39.6628523
  34.3897319  53.8186264  39.2966986  33.9875317  52.1342516  39.2098069
  32.8971481  53.2425833  39.7936392  40.0185061  50.2290726  42.3976517
  40.7198763  50.8707047  41.6785240  40.4220104  49.1637897  43.0708027
  39.7544074  48.7486839  43.7049103  41.8117094  48.6042166  43.0899429
  42.5109673  49.4357967  43.1772089  42.0289373  47.6245499  44.2544174
  41.2090492  46.9109106  44.1731596  42.9023647  46.9769573  44.1779041
  42.0269251  48.2262945  45.6585503  41.2392998  48.9786720  45.6175852
  41.8849850  47.0854139  46.7520380  42.6353407  46.3075781  46.6104889
  42.0089054  47.5345325  47.7374506  40.9047318  46.6488504  46.5606689
  43.3887291  48.9423466  45.8713961  44.1944790  48.3791494  45.4005766
  43.3152437  49.8933125  45.3437948  43.6823320  49.0175390  46.9184113
  42.1161032  47.9360867  41.7388439  43.2929087  47.5860596  41.5199089
  41.0995770  47.5598574  40.9189844  40.1674747  47.7875185  41.2343407
  41.3039446  47.0823383  39.5308089  42.3717308  47.0834208  39.3118429
  40.8423424  45.6089497  39.4469738  39.7593808  45.7320166  39.4346070
  41.1621189  45.1666880  38.5034466  41.1481094  44.7064018  40.6697273
  40.9121561  45.2726221  41.5707350  40.2369022  43.4354019  40.6224823
  39.1816115  43.7082863  40.6205559  40.4340076  42.9531956  39.6650243
  40.4583216  42.8022003  41.4816284  42.6045704  44.2693567  40.7769156
  42.7435875  43.7839079  41.7428875  42.7754354  43.4531164  40.0750160
  43.3491850  45.0639343  40.7289934  40.5338955  48.0080843  38.6053467
  39.4562554  48.5923338  38.9231658  40.9028387  47.9975271  37.3273873
  41.6469717  47.3442221  37.1284914  40.0412226  48.5059357  36.1723757
  38.9731407  48.6035013  36.3667488  40.4271507  49.9711037  35.9484243
  40.1448059  50.5369616  36.8362236  41.5032625  50.0845528  35.8172107
  39.7347784  50.7238197  34.8673773  40.0549078  51.9510937  34.7259808
  38.8143826  50.2366686  34.1677833  40.1779270  47.7271414  34.8776627
  41.1383390  47.9133081  34.1279554  39.2077708  46.9021702  34.4754004
  38.0751371  46.4940834  35.3769708  37.3408294  47.2960949  35.4523230
  38.3177805  46.1191654  36.3712859  37.4113703  45.3546333  34.5880914
  36.7001963  45.7763863  33.8778400  36.8991303  44.6371365  35.2291131
  38.5040402  44.7458982  33.7331796  38.1527281  44.2174482  32.8469419
  39.2088509  44.1531610  34.3162799  39.3168807  46.0110617  33.3391094
  40.3329229  45.6254053  33.2552457  38.9556503  46.6909409  32.0629406
  38.4240174  45.9665966  31.1444807  39.1744995  48.0184412  31.8677306
  39.5129490  48.5077763  32.6838827  38.8886905  48.7893772  30.6550431
  38.0527997  48.4222937  30.0595307  38.3823609  50.2297401  30.9277916
  39.1602612  50.9068203  31.2806797  38.0863380  50.6484032  29.9659204
  37.3272443  50.2538776  31.8937349  37.7652144  50.1657009  32.7434444
  40.0314856  48.7871981  29.6300793  39.9138880  49.3586969  28.5671973
  41.1142206  48.1026554  29.8952794  41.1232233  47.6556778  30.8009505
  42.0878124  47.5619745  28.9129090  41.5353107  47.6024580  27.9741883
  43.2663441  48.5550976  28.6721754  43.7600660  48.3041000  27.7333784
  42.9963779  50.0838137  28.5992265  42.4846411  50.3578663  27.6766586
  42.3613691  50.4777622  29.3927431  43.9393425  50.6299782  28.6242247
  44.2604113  48.3258438  29.6601105  43.8951635  48.7587690  30.4352021
  42.5450706  46.1572599  29.2153740  42.3680687  45.6318855  30.3441405
  43.2411003  45.5428648  28.2458043  43.2950306  45.8226156  26.7679214
  44.1599274  46.4664984  26.6083360  42.5271749  46.4230919  26.2801504
  43.4697866  44.4886589  26.0515809  44.0483427  44.6102190  25.1358318
  42.5121975  44.0229416  25.8187056  44.1692543  43.5922289  27.1004939
  45.2384520  43.7564659  26.9665217  43.8869238  42.5402737  27.0583725
  43.7743807  44.1589642  28.4039998  42.8578472  43.6569881  28.7139893
  44.9161816  43.9970255  29.4209051  45.0754404  42.9138041  29.9455523
  45.4808712  45.1627254  29.8543072  45.2770758  46.0354280  29.3885255
  46.5819979  45.1666927  30.8204222  47.3448515  44.4558764  30.5027819
  47.1442461  46.6076851  31.0480499  46.3763237  47.2708178  31.4463520
  48.2797480  46.6593742  32.0011544  47.9137373  46.5182686  33.0181289
  48.9123440  45.8213758  31.7084527  48.8657475  47.5766897  31.9442368
  47.6899385  47.0620489  29.6885300  46.9055414  47.4098778  29.0163398
  48.2811928  47.9676533  29.8241878  48.3580065  46.3084221  29.2715931
  46.1614847  44.6105814  32.1829534  46.9728613  43.9176321  32.8544974
  44.8548794  44.6075201  32.4769020  44.2607975  45.0536728  31.7927098
  44.1759825  44.0544987  33.6706495  44.4359255  44.6372700  34.5543385
  42.6142359  44.2646933  33.4793925  42.4152422  45.3363132  33.4908962
  42.4145794  43.8117027  32.5082874  41.8419170  43.5377073  34.5630789
  41.6376257  43.9662313  35.9319901  41.1641550  42.8727007  36.5585256
  40.7643175  42.9246616  37.5604391  40.8872223  41.9161081  35.6952262
  40.4286098  41.0324478  35.8652759  41.2937546  42.2943687  34.4497800
  41.1476326  41.7539215  33.5262179  44.5632935  42.5732231  33.8631511
  44.7368240  42.1405506  34.9719858  44.7863913  41.8570280  32.7283192
  44.7206259  42.2851324  31.8159032  45.2181721  40.4288912  32.7446413
  44.6261311  39.8048306  33.4140706  45.0639725  39.7932792  31.3559437
  45.6845713  40.3961754  30.6930137  45.7058907  38.3945036  31.2430930
  45.3999662  37.6958990  32.0218539  45.6436968  37.9185939  30.2644515
  46.7804956  38.4677744  31.4103031  43.6476088  39.7199059  30.7835698
  43.3044672  40.7212734  30.5235410  43.5960150  39.1215634  29.8739386
  42.6049709  39.1082454  31.7819691  42.6019907  39.6839929  32.7075005
  41.5991116  39.1684222  31.3663650  42.7629709  38.0474758  31.9766688
  46.5816498  40.2269077  33.3629274  46.7971897  39.2960906  34.1681314
  47.5268698  41.1111879  32.9768252  47.1932411  41.8059444  32.3240566
  48.8870192  41.1914539  33.5011387  49.2589474  40.1670074  33.4842229
  49.7970247  42.0848083  32.6287913  49.4884968  43.1192255  32.7800989
  50.8265686  41.9788122  32.9707146  49.8453045  41.7951870  31.1197329
  48.8557339  41.7940331  30.6627417  50.6257391  42.9189682  30.4632068
  50.0664282  43.8509989  30.5444765  51.5496111  43.1223822  31.0046673
  50.8684015  42.6297760  29.4406700  50.4557610  40.4632139  30.7774878
  50.4492521  40.3602695  29.6923804  51.5042305  40.4874325  31.0745120
  49.9249506  39.5937991  31.1653709  48.9243460  41.6398621  34.9668479
  49.6037865  41.0662603  35.7998586  48.0320263  42.5966549  35.3057075
  47.4636221  43.0551291  34.6079826  47.8589535  42.9989576  36.7523646
  48.8320780  43.2306719  37.1853137  47.0695877  44.3342161  36.9069099
  46.0291338  44.1545725  36.6361952  47.0652485  44.5478344  37.9757643
  47.6140356  45.5513477  36.0552216  48.6998034  45.6146002  35.9830475
  47.3082161  45.4608107  35.0129247  46.9826031  46.8779564  36.5320063
  47.4028683  47.7350855  36.0058761  45.9082079  46.7424345  36.4078450
  47.2790289  47.2316551  37.8884125  48.2782793  47.3414993  37.9860330
  46.5531301  47.2286749  38.9911556  45.2495241  46.8817616  39.0365672
  44.6897697  46.8234491  38.1978893  44.7306252  47.0704365  39.8822904
  47.1654701  47.3876572  40.1079512  48.1586599  47.5704861  40.1237726
  46.6497231  47.2547531  40.9661102  47.2173023  41.7983294  37.5790501
  47.6712751  41.5807629  38.7301850  46.3060999  41.0103130  37.0850253
  45.6802416  41.3550854  36.3712120  45.7481098  39.8852706  37.7597904
  45.3064060  40.3161955  38.6582923  44.5916033  39.2590356  36.9018412
  44.5010281  39.6800756  35.9005308  44.8446941  38.2082868  36.7604995
  43.1662607  39.4013119  37.5322938  43.1286573  38.9224458  38.5107493
  42.9193497  40.4609585  37.5977087  42.1048260  38.6989951  36.6839457
  41.0594559  39.2720270  36.5769124  42.3766899  37.5867343  36.1993814
  46.7759275  38.7915444  38.1715608  46.8411160  38.4081721  39.3326616
  47.7464867  38.4595060  37.2843003  47.8970814  39.0159440  36.4549637
  48.7434578  37.3717237  37.4322462  48.2179785  36.5825057  37.9699302
  49.2652512  36.8179750  36.0107708  49.6089840  37.6973224  35.4660749
  50.3557014  35.6740737  36.2299323  51.1000633  36.0142255  36.9498777
  49.8453188  34.8134351  36.6622663  50.8460903  35.1726961  35.3955173
  48.1581593  36.1615562  35.1216865  47.9262877  35.1463175  35.4435992
  47.2327757  36.7357326  35.0760031  48.7406874  35.9081554  33.6918139
  49.5338678  35.1674914  33.7936902  47.9245663  35.6055522  33.0356956
  49.2067194  36.8066239  33.2872534  49.9325323  37.9070306  38.3189082
  50.4578209  37.2329402  39.1514421  50.3959084  39.1681933  38.0515909
  50.0730658  39.6368170  37.2171664  51.5414095  39.7213268  38.8630033
  52.4097395  39.0773439  38.7237787  51.7349815  40.7297134  38.4972215
  51.2857103  39.8154259  40.3570557  52.2045803  39.7623253  41.1649132
  50.0000715  40.0657034  40.6952238  49.4644976  40.3252935  39.8792124
  49.4882488  40.1911545  42.0533800  50.2556324  40.5973005  42.7123737
  48.3442783  41.1442137  42.0515394  47.7411270  40.8682585  41.1865759
  47.7044821  41.1206484  42.9336977  48.7935305  42.6072550  41.9061661
  49.2821932  42.6832819  40.9348106  47.4623537  43.3978748  41.7867470
  46.7944002  43.2017708  42.6254797  47.6056433  44.4727230  41.6759634
  46.9960690  43.0832720  40.8530951  49.6253157  43.1942225  43.0286026
  49.0142345  43.4350586  43.8984776  50.4715872  42.6202774  43.4061050
  50.1125479  44.1148233  42.7073383  49.1592503  38.7587810  42.6714563
  48.8565683  38.6324883  43.8837719  49.1784859  37.7569675  41.8046522
  49.4807816  37.9969001  40.8712959  48.8047552  36.3431501  42.0147705
  49.2486286  35.8211732  41.1670589  49.5900249  35.6886005  43.1963873
  49.1206932  36.0418510  44.1145611  49.3961954  34.6160197  43.1862640
  51.1016417  35.9016752  43.0979443  51.6385984  35.4729986  42.2517681
  51.3190460  36.9343305  43.3708191  51.6851902  35.0635982  44.2836142
  51.7522192  33.9817905  44.1682863  52.7184105  35.4098248  44.3096638
  51.0811615  35.3489614  45.5827570  50.4100227  36.0916686  45.7171631
  51.4864254  34.9450183  46.7768478  52.3778534  34.0587401  46.9588137
  52.8760672  33.7211561  46.1476898  52.5748205  33.6591148  47.8652382
  50.8828831  35.3511190  47.9008579  50.1604128  36.0568523  47.8920364
  51.4139605  35.1928306  48.7452555  47.3415756  35.9658456  42.1228218
  46.9086981  34.9695873  42.6265287  46.5291977  36.8104267  41.5401077
  46.9840574  37.5787878  41.0680628  45.0138092  36.7206717  41.6560173
  44.8091173  36.5303493  42.7095747  44.3362284  38.0671048  41.2363815
  44.3355322  38.1390214  40.1487589  43.3077192  37.9582310  41.5804958
  44.9434519  39.4312406  41.8062449  45.9088039  39.6064925  41.3313913
  44.1686106  40.6972599  41.3596010  44.7688675  41.5914202  41.5277529
  43.8695335  40.5894566  40.3169918  43.2876015  40.7929230  41.9942427
  45.0929928  39.4265914  43.3475304  44.0978575  39.2457509  43.7538719
  45.7118559  38.6221290  43.7449598  45.4727602  40.4032087  43.6476946
  44.4048452  35.5293250  40.8835983  43.3353424  35.0074863  41.1686563
  45.1642227  35.0876617  39.8871565  45.8932304  35.7285857  39.6081114
  44.7567320  34.1300988  38.8950443  43.9285517  33.4647536  39.1390491
  44.2439222  34.7967982  37.6312637  44.9646759  35.5610371  37.3404765
  44.2158127  34.0012598  36.8866682  43.0001354  35.4490900  37.7647662
  42.9176712  36.2723708  37.2779322  45.9115839  33.2222557  38.5485935
  47.0376015  33.6310697  38.1797695  45.6468391  31.8666315  38.5128117
  44.7437477  31.6021037  38.8796234  46.6825485  30.8562040  38.4916162
  47.4609995  31.2865901  37.8616357  47.2899246  30.7311630  39.8906493
  48.1134367  30.0173354  39.9101758  47.6650000  31.7195201  40.1562929
  46.2533140  30.2639842  40.8760166  45.0211716  30.8258533  41.1567831
  44.4173908  30.0035501  42.0650148  43.3747053  30.1060677  42.3271084
  45.1467705  28.9476037  42.3398113  44.9706745  28.1622815  42.9500246
  46.3133669  29.1279387  41.6105509  47.0782423  28.3654761  41.6150093
  46.4632225  29.4254088  37.9795766  45.3169203  28.8807034  37.7990341
  47.6027012  28.7449741  37.7303934  48.4395599  29.3104482  37.7335405
  47.6605463  27.5021267  37.0311546  46.8568707  27.4678588  36.2956023
  49.0295839  27.4917412  36.3394403  49.8502827  27.6865244  37.0298147
  49.1394663  28.1274748  35.4608822  49.2871380  25.7787037  35.7155323
  47.5328016  26.3479471  38.0813098  48.3154154  26.2945747  39.0731072
  46.6478062  25.4019094  37.8842092  46.1308050  25.4153562  37.0166683
  46.4296865  24.2108369  38.7789011  46.3382721  24.5612288  39.8069906
  45.1149321  23.5072565  38.3417296  44.3832779  24.2676973  38.0687666
  45.3122520  22.8550720  37.4909496  44.6259594  22.7745509  39.4211364
  43.7573004  22.4785542  39.1393256  47.5414276  23.1715417  38.8096237
  47.6682520  22.5073934  39.8389006  48.4612703  23.1506729  37.8467131
  48.4921789  23.8731050  37.1415591  49.6526194  22.2620344  37.7533078
  49.4296122  21.2723732  38.1519794  50.1192760  21.9790483  36.3000727
  50.3251934  22.9256153  35.8003545  51.0925961  21.4905500  36.2540221
  49.2506170  21.1599350  35.3698850  49.4750404  19.8182178  35.0572443
  48.5067892  19.4759119  34.1927767  48.4059954  18.5211468  33.6981440
  47.7070522  20.5521417  33.9912510  46.9962883  20.4938793  33.2760406
  48.1546593  21.6397882  34.6821880  47.6931667  22.6135921  34.6105862
  50.8250523  22.9835558  38.5264802  51.3886833  22.3670220  39.3541360
  51.0536098  24.2077541  38.0539155  50.5497169  24.7839189  37.3949575
  52.2277689  24.8927689  38.6295605  53.0403996  24.1689467  38.6913180
  52.6005459  26.0430741  37.6525927  53.3341694  26.7083335  38.1079292
  51.7117453  26.5910125  37.3397040  53.2495022  25.3777361  36.1086082
  52.1801710  25.2771091  40.1036692  53.2644224  25.4987741  40.7473278
  51.0486174  25.7234740  40.6214285  50.3103542  25.5717230  39.9490905
  50.8342409  26.4129376  41.9317245  51.6829014  26.0589290  42.5170040
  51.0784435  27.9026747  41.8711948  50.9652758  28.3845615  42.8423166
  52.5031805  28.3547449  41.3641167  52.6984930  28.0111814  40.3482819
  52.7188969  29.4192958  41.4552116  53.2394218  27.7628088  41.9078636
  50.1329422  28.5505056  40.8098793  50.2487850  29.6087098  41.0441637
  50.3292942  28.1711268  39.8070741  49.0897179  28.3803535  41.0760450
  49.5030689  25.8424854  42.5717831  48.4624481  26.5188289  42.5756598
  49.5187759  24.5522118  42.9399633  50.7218409  23.7129116  43.2067537
  51.2360859  24.0933394  44.0893173  51.4990282  23.7418890  42.4430466
  50.1656771  22.3118448  43.4535694  49.9452353  22.1759152  44.5123577
  50.9337187  21.5872931  43.1829453  48.8482332  22.2262931  42.6548100
  48.1429625  21.4894271  43.0391645  49.0866137  22.0060062  41.6142607
  48.3072472  23.7099433  42.8065443  47.7306271  24.0097213  41.9314766
  47.4297380  23.8840961  44.0683365  46.4282513  23.1101894  44.1884708
  47.7138567  24.8050737  44.9693775  48.5809851  25.3200030  44.9142885
  46.8699074  25.1658797  46.0916805  45.8526468  25.2483439  45.7089329
  46.9331312  24.0972495  47.2158813  46.3882256  24.3296289  48.1308556
  46.5321350  23.1945348  46.7550039  48.3296061  23.7645674  47.7743292
  48.9444637  23.3294630  46.9864559  48.8241529  24.6682334  48.1305885
  48.3147764  22.8168178  48.9799309  47.9119444  23.2903290  49.8752546
  47.6733351  21.9901443  48.6745262  49.7458410  22.4576545  49.4157839
  50.3453398  22.0914125  48.5823774  50.2876520  23.3425951  49.7495890
  49.6864271  21.4351010  50.4654837  50.5902052  21.2109184  50.8566666
  49.1058397  21.8367457  51.1877728  49.2311096  20.5870581  50.1595211
  47.2162914  26.5707064  46.6864777  46.9370651  26.8349338  47.8732157
  47.9079771  27.4076295  45.8797216  48.1816959  27.0957351  44.9589014
  48.1694889  28.7897992  46.1352730  49.0327263  28.8080621  46.8005514
  48.6085176  29.4011283  44.7631788  49.5635605  28.9758921  44.4546795
  47.8332710  29.0689492  44.0727091  48.6265898  30.9193873  44.6254444
  47.5858212  31.2277365  44.7245407  49.5866394  31.6750813  45.5454874
  50.6328297  31.4644051  45.3236580  49.3421316  32.7343941  45.4669237
  49.4882774  31.3735843  46.5883303  49.0259933  31.3415241  43.1975937
  48.5968828  32.3381567  43.0942249  50.1101065  31.4445615  43.1508398
  48.7750864  30.6089354  42.4304819  47.0260668  29.5705581  46.7391968
  45.8336115  29.4067216  46.4042473  47.3299742  30.4796481  47.6604557
  48.3290100  30.5505872  47.7908182  46.4993429  31.1062241  48.6641979
  46.2913847  30.3409576  49.4120169  47.2672415  32.3163867  49.2867041
  47.5982618  33.0538774  48.5555172  46.6492701  32.6132369  50.1341057
  48.6089754  31.9598579  49.9820709  49.3860769  32.0348263  49.2214203
  48.8210964  32.7437520  50.7091284  48.5732365  30.5946398  50.6470156
  48.1453371  30.6153274  51.8071747  49.0372467  29.5439982  50.1341009
  45.0440502  31.6208887  48.2218552  44.8600435  32.2925806  47.1807098
  44.0395594  31.2457561  48.9553308  43.8890123  30.1601362  49.9054337
  44.6197987  30.1246428  50.7133961  43.7623501  29.1693187  49.4691563
  42.5419044  30.5288434  50.7162952  42.7802610  31.2727141  51.4765215
  42.1598673  29.6312046  51.2024927  41.7032480  30.9993696  49.5624208
  40.8283663  31.6205621  49.7542429  41.5428114  30.0711012  49.0140867
  42.7073050  31.7962289  48.6662102  42.3918438  31.6753531  47.6298809
  42.5987577  33.3513498  48.9584923  43.4602880  33.8997173  49.6435261
  41.6659451  34.0455532  48.2953501  40.9495878  33.5333371  47.8008080
  41.4426708  35.5023956  48.4211874  42.0324802  35.7900882  49.2915106
  41.9515038  36.3189411  47.1557236  41.4862061  35.9529853  46.2404728
  41.6543865  37.8437233  47.3373365  40.5873919  38.0633116  47.2997379
  41.9371367  38.2860947  48.2925653  42.1445465  38.3992219  46.5377951
  43.4678888  36.1384487  46.8321180  44.0778399  36.8521571  47.3859072
  43.7827110  35.1628470  47.2025108  43.6705875  36.3469529  45.2816868
  42.9212046  36.9994617  44.8336267  44.6844530  36.7227483  45.1439571
  43.5223579  35.3330636  44.9099922  39.9810982  35.7274127  48.7757349
  39.1678381  35.2306175  48.0350685  39.5944810  36.3024831  49.9165106
  40.4830551  36.8077374  50.9848309  40.8176088  37.7968645  50.6721020
  41.2899017  36.1223364  51.2443066  39.5116782  36.8343592  52.1985579
  39.7800779  37.5759935  52.9509115  39.3429804  35.8418918  52.6164675
  38.2216382  37.2891450  51.5896130  38.0724335  38.3608723  51.4583206
  37.3224831  37.0472431  52.1562719  38.2066989  36.5222216  50.2637053
  37.7124667  35.5772090  50.4890633  37.3404026  37.2143435  49.0921926
  37.8506541  38.1540394  48.4921074  36.1400270  36.8015003  48.8003492
  35.8068752  36.0204673  49.3472481  35.2805161  37.4174047  47.7827358
  36.0853457  37.6660848  47.0909929  34.3614888  36.3892031  47.1332979
  34.0292263  36.8840361  46.2206936  34.9340463  35.5191374  46.8119526
  33.1517100  35.9744072  48.0158997  32.8633213  36.7178011  48.7590694
  32.2804523  35.7372427  47.4053574  33.5039806  34.7102332  48.8565779
  32.9594946  33.6075950  48.6149263  34.2268157  34.7538090  49.9252415
  34.6248698  38.8045335  48.1656694  34.2503548  39.5479393  47.3020315
  34.6387339  39.1136956  49.4807816  34.9287081  38.3673215  50.0963688
  34.2125177  40.3767395  50.0777197  34.4494748  41.1720467  49.3710089
  32.6638603  40.3589344  50.3392458  32.1427250  39.9326372  49.4820452
  32.4696493  39.7231627  51.2030649  32.0221138  41.7285824  50.6321335
  31.7635942  42.2126341  51.8493176  32.1348286  41.7774200  52.7653837
  31.1683106  43.4467411  51.7716026  30.9805393  44.0192604  52.5821972
  30.8873606  43.7748289  50.4270077  30.1613021  44.8527384  49.7562647
  29.8419404  45.7331800  50.2940655  30.0296569  44.7861958  48.3761692
  29.4009519  45.5272675  47.9050541  30.6127310  43.7684393  47.6298428
  30.5091619  43.8519192  46.5580702  31.3258600  42.7606583  48.2845449
  31.8148065  42.0392704  47.6466322  31.4642119  42.7226591  49.7015667
  34.9882793  40.5565453  51.4181757  35.3861451  39.5903754  52.0740795
  35.3961086  41.7800045  51.8981457  35.1119566  43.0809736  51.2156820
  34.0479255  43.2809401  51.0893726  35.6362081  43.2932711  50.2839088
  35.6324005  44.0780973  52.2492266  34.8210406  44.1584682  52.9726458
  35.7685852  45.0725269  51.8241787  36.8786573  43.3877182  52.9013777
  37.0814753  43.8862419  53.8492441  37.6358509  43.5278177  52.1299314
  36.3271737  41.9928217  53.0269241  37.1358037  41.2684870  52.9291677
  35.5284762  41.7952919  54.3087769  34.3309021  42.1692753  54.3986082
  36.1793685  41.3279676  55.3651237  37.6241088  40.8848000  55.4957533
  38.3204055  41.6155148  55.0842571  37.7648139  39.8720217  55.1181459
  37.9401517  40.9256458  57.0068884  38.0042934  42.0082140  57.1165800
  38.7860847  40.3164434  57.3252773  36.5582347  40.4708481  57.5675774
  36.4696860  40.7731438  58.6110735  36.3615561  39.4007421  57.5020552
  35.5589485  41.1189842  56.6499090  34.7236228  40.4747295  56.3755608
  35.0323439  42.4433565  57.3443699  35.6412673  43.5035515  57.2269917
  33.8882232  42.4427032  58.0253172  33.4098530  41.5532827  58.0111980
  33.2346535  43.5957241  58.7057543  32.9857659  44.3581200  57.9675770
  31.8819213  43.1145191  59.3372297  32.0553827  42.4425697  60.1777601
  31.5734887  43.9892435  59.9097919  30.8491707  42.5389814  58.3931303
  31.0626388  41.6137695  57.8578568  29.6063972  42.2485018  59.2636681
  29.8792052  41.4423037  59.9446487  29.3645525  43.1147623  59.8794603
  28.7849569  41.8599033  58.6617231  30.4933739  43.6228228  57.3462868
  29.5675278  43.3874416  56.8214035  30.3066730  44.6293592  57.7206182
  31.3078642  43.6824751  56.6243696  34.1597056  44.3640900  59.6771431
  33.9748955  45.5885458  59.9061203  35.1857781  43.6652946  60.1784611
  35.1935959  42.7429962  59.7668743  36.2914729  44.1437149  61.0487509
  35.8208537  44.6174908  61.9102335  37.1164322  42.9923058  61.5937042
  36.4901304  42.1256113  61.8051004  37.9077315  42.5763798  60.9700441
  37.6397300  43.3500624  62.4804306  37.1554065  45.2441502  60.3765106
  37.7227354  46.0786438  61.0938263  37.1547604  45.3606176  59.0376663
  36.7404962  44.5247269  58.6506605  37.7687240  46.2828064  58.1261349
  38.3043408  47.0241833  58.7190771  38.7976217  45.4291677  57.3754787
  39.4067717  44.9955130  58.1685591  38.3256269  44.6231985  56.8135834
  39.5494223  46.2002850  56.4571524  39.0411758  46.9780827  56.2156630
  36.8219614  46.9902658  57.1799994  37.2630811  47.6026297  56.2065458
  35.5020428  46.8749285  57.3262310  35.1504230  46.2458992  58.0338955
  34.5034909  47.1668053  56.2470055  34.8816752  48.0345154  55.7064772
  34.4992375  46.1220694  55.1999950  35.4821229  46.0753250  54.7311068
  34.2821717  45.1278448  55.5905056  33.2393479  46.5631294  53.9366102
  32.2299051  45.9115696  54.5209026  33.0678439  47.4329710  56.8256330
  32.4400282  46.5425634  57.3452616  32.5029731  48.6288738  56.6654301
  33.0387783  49.2865705  56.1172962  31.2519479  49.1910744  57.2268724
  31.2308455  48.8074017  58.2468987  31.3552451  50.2710915  57.3317337
  30.0365353  48.8365173  56.3734818  28.9755225  49.4114923  56.5903091
  30.1182652  47.7913380  55.5891991  30.9512138  47.2201204  55.5919552
  29.2041206  47.4179220  54.4743061  28.1976271  47.7465820  54.7332621
  29.5905781  48.0271864  53.0973053  30.3407383  47.4270868  52.5822973
  28.4046125  48.0486107  52.0951557  27.8255939  47.1296072  52.0041847
  27.7312088  48.8123989  52.4840689  28.8430977  48.4205294  51.1691380
  30.1429415  49.3962812  53.2466364  30.9483671  49.3739700  53.9807320
  30.6196451  49.6392202  52.2969913  29.3548083  50.1003504  53.5135508
  29.1092181  45.8589029  54.3763447  30.1657748  45.2246094  54.1814804
  27.9503250  45.2158165  54.4274807  26.6393113  45.6930447  54.8616838
  26.1241055  46.0115576  53.9554739  26.7341924  46.5067720  55.5806684
  25.9744072  44.4196939  55.4524279  24.8868728  44.4918442  55.4395914
  26.3310289  44.3815136  56.4817286  26.5742207  43.2262373  54.6470594
  25.8247018  43.0562210  53.8741302  26.7728734  42.3617649  55.2805567
  27.8380370  43.8188028  54.0517902  28.5922050  43.1803608  54.5119190
  27.7766037  43.5612059  52.5171089  27.5230241  44.4525528  51.7216301
  27.9234552  42.2771025  52.0711565  28.3822894  41.1217880  52.8036785
  27.5420928  40.6678391  53.3291292  29.1858721  41.4061928  53.4829950
  28.9990807  40.1437807  51.7964411  28.9281464  39.1353512  52.2040367
  30.0512290  40.3778505  51.6342783  28.1471038  40.4076719  50.5937099
  27.2008562  39.8694420  50.6487083  28.7215233  40.2144146  49.6877337
  27.9582357  41.9846058  50.6301737  28.9279270  42.2199202  50.1915121
  26.8121243  42.4730968  49.6982098  25.6616497  42.0733213  49.9163771
  27.0954871  43.3822870  48.7752819  28.0590820  43.6842775  48.7556219
  26.1232948  44.0866566  47.9859304  26.6737056  44.9313116  47.5715590
  25.8697605  43.2398224  46.7629910  25.3735423  42.2921944  46.9724560
  25.1348186  43.7187719  46.1160231  27.1266890  43.0354548  45.9447193
  27.6605844  44.0332413  45.0606537  27.3070431  45.0530100  45.0222015
  28.6994553  43.6510563  44.1465569  29.1555572  44.3948507  43.5100460
  29.2165756  42.3353052  44.1204786  29.9723148  42.0132351  43.4193897
  28.6891413  41.3366079  44.9199629  29.0791869  40.3295135  44.9148369
  27.6165390  41.7055130  45.7720947  27.0903993  41.0008192  46.3989782
  24.8572707  44.5305109  48.6419439  23.7455440  44.1302872  48.2117462
  24.9003267  45.3896952  49.6723032  25.8112907  45.6089067  50.0493908
  23.7987185  45.7821846  50.6075907  22.8470230  45.7623816  50.0765657
  23.7168717  44.7966909  51.7608452  23.6265564  43.7915230  51.3490486
  24.6350098  44.8865604  52.3414040  22.5678110  45.1091766  52.7907133
  22.8919721  44.5614195  53.6755753  22.5676751  46.1349344  53.1593943
  21.2786484  44.4028854  52.3813295  21.1707091  43.4637690  51.5687275
  20.1115108  44.8238468  52.8259611  19.2941773  44.3428946  52.4784660
  20.0803328  45.6399536  53.4201765  24.0697885  47.1962118  51.0875940
  25.2875352  47.5228024  51.1454821  23.0543447  48.0418873  51.3792562
  22.1785784  47.7540207  50.9666109  23.2789063  49.4289160  51.8367529
  23.9275432  49.9313736  51.1191797  21.9410229  50.1734161  52.0950699
  21.5496898  50.4995728  51.1314392  21.2140322  49.5112419  52.5652981
  21.8961859  51.4765358  52.9627562  22.4466372  51.2459230  53.8748550
  22.1111703  52.3456097  52.3409939  20.4062104  51.7296028  53.3272982
  19.8303580  51.6810274  52.4031019  20.0892258  50.9342670  54.0018749
  20.1440883  53.1289530  53.9451694  20.8397865  53.3906221  54.7424316
  20.2970076  53.8673830  53.1581211  18.8129830  53.2887220  54.5180273
  18.7331021  54.2626047  54.7735214  18.1243265  53.0595922  53.8156366
  18.7401092  52.6095676  55.2620316  24.1716027  49.2891169  53.1081581
  24.1133809  48.3151293  53.8902044  25.0586724  50.3186131  53.4162569
  25.2043390  51.4882183  52.6051044  24.3104529  51.9852829  52.2282839
  25.9623575  51.3289309  51.8382072  25.7313228  52.4915266  53.6328745
  24.8218226  52.7464819  54.1768456  26.2997866  53.2617426  53.1116056
  26.6656303  51.6394329  54.4789600  26.8667889  52.1025515  55.4449558
  27.5958943  51.4536667  53.9421177  25.9309483  50.3403616  54.6300077
  26.6089153  49.4883251  54.5800447  25.2103138  50.1592207  55.9397364
  24.0233779  50.3125620  56.0539103  26.0157323  49.8274183  56.9644117
  26.9984818  49.7349215  56.7505121  25.5545568  49.5760870  58.2914686
  24.8261380  48.7725115  58.1829739  26.6648006  48.9470673  59.1297388
  27.4553943  49.6959639  59.1768169  26.1984396  48.8551235  60.1106358
  27.3287058  47.6122475  58.6082172  27.6492572  47.7285576  57.5729322
  28.5486841  47.3440838  59.4615602  28.9603853  46.4260054  59.0423536
  29.2933774  48.1370783  59.3930101  28.3287048  47.2022438  60.5196667
  26.4142060  46.4375591  58.7216997  26.9807363  45.5234718  58.5439730
  26.0200357  46.3578701  59.7348070  25.6380486  46.3784218  57.9586935
  24.7961116  50.7418108  58.9541960  23.7007594  50.5724096  59.5424986
  25.3794909  51.9889832  58.8617134  26.2035513  52.2067690  58.3198690
  24.8454928  53.1024408  59.6278954  23.7695360  53.1898880  59.4769907
  25.2231121  52.8208017  61.1441803  24.8084450  51.8480492  61.4085674
  26.6713071  52.7998352  61.4095640  27.1069789  53.6821985  60.9408188
  27.0066977  52.8590202  62.4449921  27.0001745  51.8433714  61.0032034
  24.6751618  53.8098001  61.9787073  23.7261987  53.8008165  61.8338203
  25.3145361  54.3860483  58.9837027  25.9571075  54.4331121  57.9115295
  24.8606277  55.5170441  59.5126152  24.4245195  55.4770088  60.4227352
  25.0652790  56.8384838  58.9247084  24.5712161  56.8988657  57.9549885
  24.2673469  57.8896999  59.7258329  24.2669368  58.7849045  59.1039753
  23.2107210  57.7124166  59.9263668  24.8275328  58.1727362  60.9714317
  24.1709304  58.7690401  61.3387060  26.5499663  57.1461105  58.7888002
  27.3289347  56.7376518  59.6803713  26.9904947  58.0672741  57.8819752
  26.2619400  58.5731030  56.7948723  25.4959750  59.2841434  57.1044254
  25.6829810  57.8618431  56.2057972  27.2506714  59.2246056  55.8399868
  26.8415737  60.1141834  55.3610373  27.7900887  58.5055828  55.2234316
  28.3004117  59.7329330  56.8454504  27.8302908  60.5803585  57.3444080
  29.1959691  60.1011562  56.3449621  28.3987498  58.5463285  57.8002024
  28.9801240  57.7439642  57.3459816  29.0588379  59.0279388  59.1519547
  30.2165413  58.7751913  59.4457340  28.2610106  59.6960974  60.0305557
  27.2906208  59.8561001  59.8006868  28.7781477  60.1344872  61.3408518
  29.8134542  60.4694414  61.2772226  27.9248762  61.2995625  61.8814802
  27.9246306  62.1691656  61.2242985  26.9161725  60.8956003  61.9676828
  28.2710958  61.6856289  63.2166004  27.5799203  62.2427797  63.5819197
  28.8715792  58.9675570  62.2791624  29.8450637  58.8247108  63.0465794
  27.9474235  58.0648613  62.2669935  27.2262049  58.0584908  61.5599537
  27.8533149  56.8841171  63.1371737  28.2555532  57.2070312  64.0973997
  26.5068316  56.2435532  63.0732250  26.1456490  56.2369156  62.0448208
  26.5623260  55.2287436  63.4671545  25.6540203  57.0471954  64.0662527
  26.0655713  57.0692921  65.0753307  25.6034064  58.0684376  63.6886263
  24.2199016  56.3709736  63.9929056  23.8958716  56.4008808  62.9526138
  24.2583632  55.3111458  64.2446613  23.2985997  56.9356680  65.0464725
  23.7291217  57.4882507  65.7740784  22.0327902  57.1700859  64.9259281
  21.3822412  56.8723249  63.8406324  21.8527007  56.3773727  63.0964613
  20.3979421  57.0585632  63.7119007  21.4583015  57.7744341  65.8913517
  22.0040989  57.9145527  66.7295456  20.5279636  58.1675816  65.8912277
  28.8093257  55.8282709  62.6386738  29.2986441  55.1621056  63.5602951
  29.1039634  55.6639576  61.3550329  28.4903097  56.0961866  60.6792307
  30.2961373  55.1101542  60.7487440  30.3528619  54.0329027  60.9049797
  30.1264572  55.1761150  59.2075348  29.8662829  56.1225891  58.7336206
  31.1067605  55.0139904  58.7594032  29.1702414  54.1382027  58.6076975
  28.1953692  54.3484402  59.0476179  29.0079498  54.3591213  57.1255493
  29.8860335  54.1175890  56.5266085  28.1307578  53.7871504  56.8230867
  28.6840963  55.3806353  56.9262218  29.3650293  52.6601267  58.7732267
  30.2477670  52.3730087  58.2018805  29.4914913  52.5012589  59.8441458
  28.4638357  52.1192598  58.4844065  31.6634512  55.6730127  61.1038017
  32.4935555  54.8949194  61.5385437  31.8950129  56.9472218  60.9096861
  31.2515020  57.5628185  60.4332018  33.1188798  57.6011276  61.3278341
  33.8551283  57.0694685  60.7250214  33.0454707  59.0897751  61.0214043
  33.1981277  59.2066383  59.9484921  32.1179724  59.5100260  61.4102936
  34.1704154  59.6999741  61.6412830  33.8661218  60.5634642  61.9300461
  33.3922052  57.3043394  62.8306913  34.5262027  56.9289589  63.1301069
  32.3763251  57.1491194  63.7225103  31.4202309  57.2767401  63.4230137
  32.5443125  56.9059038  65.1746702  33.1225228  57.7077007  65.6338978
  31.1443615  56.9185209  65.7839203  30.6998467  57.9135990  65.8018637
  30.4033947  56.3763237  65.1964712  30.8698940  56.4938498  67.2381306
  31.5478492  55.6660414  67.4459934  31.1872625  57.3313189  67.8594398
  29.4311500  56.0169172  67.4761724  29.2598128  55.9058380  68.5468817
  28.7247086  56.7185974  67.0326757  29.1239834  54.7394848  66.8733120
  29.8886156  54.1013145  66.7054462  27.8991723  54.3083763  66.4753723
  26.8034983  54.9421692  66.9151354  26.8275928  55.7481384  67.5233507
  25.9128356  54.4661951  66.8985844  27.8161120  53.2213449  65.8468246
  28.6443496  52.7438211  65.5211020  26.8818402  52.9620218  65.5640221
  33.2653952  55.5697632  65.4461527  34.1077709  55.5477333  66.3320589
  32.8901863  54.4914532  64.7153997  32.1441364  54.6687841  64.0580845
  33.3783078  53.1156778  64.8834276  33.6664939  52.9257250  65.9173346
  32.2135639  52.2018337  64.5202494  31.9805050  52.3336506  63.4636450
  32.6175189  51.1952734  64.6286726  30.9414887  52.2526407  65.3325891
  29.9350166  51.7315674  64.8468256  30.9126210  52.6360655  66.5899420
  34.6222305  52.8843594  64.0600014  35.5648875  52.2275066  64.4660091
  34.7357583  53.5338783  62.8994608  33.9275265  54.0448284  62.5742054
  35.9755206  53.6315489  62.0960140  36.2720728  52.5923300  61.9539404
  35.7006717  54.2776871  60.7217836  35.1915550  55.2129507  60.9545755
  36.6453648  54.4318581  60.2003574  34.8041821  53.6292124  59.7433901
  34.4109130  54.0745544  58.5399818  33.3018827  53.3937979  58.1483507
  32.7496767  53.5546684  57.2342443  33.0775023  52.4791098  59.0751934
  32.2599387  51.8861103  59.0818167  33.9697433  52.6196194  60.1087189
  33.8900805  52.1060658  61.0554647  37.0773649  54.3339300  62.9228449
  38.2004905  53.9538622  62.8922081  36.7172265  55.3313494  63.7735987
  35.7931733  55.7376051  63.7391186  37.6177287  55.9173870  64.7563553
  38.4728742  56.0634851  64.0964413  37.0620775  57.2601414  65.2117348
  36.0962391  56.9766760  65.6299400  37.6499915  57.7425480  65.9925938
  37.0122123  57.9560995  64.3743277  38.1219745  54.9349308  65.8930111
  39.1263843  55.3008986  66.5374947  37.4335432  53.7529850  66.1349916
  36.5838408  53.5017347  65.6502390  37.9072475  52.8561640  67.0790482
  38.3488631  53.4788704  67.8570700  36.8630171  52.0722580  67.8323460
  37.3296237  51.5470171  68.6657143  35.7182503  52.9030085  68.3454466
  35.1522589  53.2803392  67.4937534  35.1457381  52.2527504  69.0068817
  36.0696840  53.7275839  68.9656639  36.3362670  50.9985352  67.0098972
  35.9746408  51.4133120  66.2232637  39.0789461  51.9599056  66.5499258
  39.7641087  51.4014387  67.3816252  39.2190623  51.8824720  65.2163887
  38.5956287  52.4409103  64.6510792  40.2798891  51.1487675  64.5213842
  40.2902031  50.1690912  64.9991131  39.8516202  50.9660673  63.1016731
  39.7953558  51.8865013  62.5205183  40.5238104  50.2552652  62.6210260
  38.4168601  50.4092407  63.0688667  37.7968264  51.2776232  63.2915020
  37.9494476  50.0659704  61.6653919  38.0561876  51.0169601  61.1435461
  38.6730504  49.3463612  61.2824202  36.9013715  49.7699165  61.6207647
  38.1307340  49.2235422  64.0140486  38.4610391  49.4735050  65.0222778
  37.0595002  49.0282202  63.9648867  38.6920381  48.3462286  63.6925507
  41.6265583  51.8483305  64.6114922  41.6426420  53.1247425  64.7218895
  42.7332544  51.1207151  64.4933462  42.6429033  50.1187420  64.4040012
  44.1065121  51.6448927  64.3114758  44.2667103  52.2476101  65.2054358
  45.2472687  50.5721474  64.4190741  46.2337112  51.0335112  64.3724203
  45.1896906  50.0231409  65.3589582  45.1569700  49.5238256  63.3023834
  45.5968571  49.7619247  62.1887350  44.5378780  48.3620071  63.4757042
  44.5242882  47.5846386  62.8310251  43.9356899  48.2723045  64.2815733
  44.2574167  52.5227261  63.0219316  43.4862471  52.3116350  62.0729971
  45.2158499  53.4600544  63.0353689  45.8827066  53.4892607  63.7933588
  45.4057169  54.5359468  62.0081758  44.5798588  55.2368307  62.1299553
  46.2925863  55.1687717  62.0412207  45.3784609  53.9642286  60.5121374
  44.5814133  54.4673872  59.6567202  46.2502193  52.9747486  60.2644157
  46.9222450  52.7494717  60.9839535  46.3325596  52.2935581  58.9995909
  46.4217567  53.0413246  58.2115602  47.3968935  51.2966347  58.9427280
  47.4842119  50.9355450  57.9179907  48.3703518  51.7025185  59.2179251
  47.2051096  50.4433012  59.5932245  45.0205088  51.5736008  58.5965443
  44.5157290  51.8020535  57.4690723  44.4583035  50.8493233  59.5350075
  44.8266792  50.8498526  60.4754353  43.2043314  50.0273848  59.3276739
  43.2945299  49.5303965  58.3617687  43.0150843  48.9912271  60.4272175
  43.8994360  48.3678198  60.2953911  43.0708218  49.5532560  61.3594866
  41.7291260  48.2275963  60.3456402  40.8831596  48.9147139  60.3632832
  41.6992521  47.2230530  59.1890907  42.5213099  46.5104198  59.2558861
  40.7401705  46.7083502  59.2469168  41.6529942  47.7483320  58.2351303
  41.5424919  47.4048615  61.6170502  41.6494131  48.0362225  62.4991226
  40.5877209  46.8835115  61.6856527  42.2221661  46.5557194  61.6884851
  42.0065641  50.8905363  59.2099524  41.0780859  50.6476355  58.4447384
  41.9530487  52.0121527  59.8840809  42.6553059  52.2199869  60.5795956
  41.0441971  53.1184721  59.7752714  40.0352812  52.7641487  59.9865675
  41.3927650  54.1453838  60.8086920  41.4547443  53.6452770  61.7752075
  42.3397112  54.6039963  60.5239534  40.4068470  55.2738476  60.8949661
  40.3585243  55.7920647  59.9372530  39.4186568  54.8493242  61.0720634
  40.6945467  56.3414955  61.9528246  41.7723894  56.4590454  62.5464296
  39.7607064  57.2694731  62.1272755  40.0613642  58.0780888  62.6524830
  38.8178086  57.1369076  61.7904234  41.0876703  53.7696075  58.3327007
  40.0722694  54.0325403  57.6876163  42.3419571  54.0251398  57.7758217
  43.1563807  54.0103388  58.3729839  42.4410439  54.4065428  56.3595152
  41.8659210  55.3312874  56.3127613  43.8768435  54.7306442  55.9104967
  44.3211460  55.4061460  56.6415119  44.5030403  53.8460112  55.7947063
  44.0657425  55.3461075  54.5607090  43.9657879  54.5592070  53.4069395
  43.7486887  53.5017109  53.4381008  44.0140200  55.1995230  52.1506119
  43.9154434  54.5836496  51.2689209  44.3361998  56.6011763  52.0609522
  44.3518877  57.1266127  51.1175156  44.5513773  57.3444319  53.2137728
  44.7843266  58.3917284  53.0900288  44.4415760  56.7074776  54.4782972
  44.6546936  57.2469950  55.3892851  41.7291355  53.4000349  55.4448748
  40.7861853  53.7527561  54.7108507  42.1862745  52.1551800  55.4510117
  43.0001450  51.9471121  56.0117531  41.6028643  51.0751486  54.6603441
  41.7747211  51.3122511  53.6104155  42.2460747  49.7132397  55.0051594
  41.9386387  48.9364815  54.3049955  43.2978106  49.9711990  54.8810196
  41.9626427  49.4479799  56.0236931  40.0721836  50.9432745  54.8718786
  39.3398118  50.9267950  53.8408327  39.5250607  51.0304260  56.0326290
  40.1567173  51.1464548  56.8121433  38.1020975  50.8100271  56.3824511
  37.6768899  49.9433994  55.8762360  37.9098582  50.5985928  57.8673744
  38.2008576  51.4976835  58.4105730  36.4024663  50.3238153  58.2547617
  35.7478905  51.1547184  57.9916573  35.9243417  49.4756794  57.7646971
  36.3355279  50.3086138  59.3425989  38.6870408  49.5025921  58.3047342
  39.6294546  49.6820688  58.2694340  37.2366881  51.9015312  55.8348894
  36.1877990  51.6458511  55.2062750  37.6446080  53.1622601  55.9519386
  38.4788966  53.3504009  56.4892101  36.8884492  54.3238497  55.4540920
  35.8543587  54.3272591  55.7986927  37.4980593  55.6132984  56.0517073
  38.5771608  55.5830383  55.9009600  37.1035385  56.4447069  55.4675770
  37.2725320  55.8128357  57.4922895  36.1966777  55.9226942  57.6285648
  37.6348686  54.9585199  58.0640888  37.9710078  56.9505835  58.1720161
  38.0957103  56.8046284  59.2449808  38.9316940  56.9772196  57.6577473
  37.2250509  58.2712317  57.8978443  37.8920746  59.1151714  58.0737400
  36.9819021  58.3576202  56.8388271  36.0100746  58.4888792  58.7231159
  35.6578231  59.4155550  58.5300064  35.1695776  57.9334021  58.6516476
  36.1552382  58.5242748  59.7220039  36.8835616  54.3769121  53.9212799
  35.9374738  54.8538876  53.2850599  37.9774857  53.9758968  53.2324886
  38.6921215  53.3925438  53.6436987  37.9862237  53.9061832  51.7531252
  37.5484920  54.8108816  51.3312054  39.4846463  53.7740231  51.3161421
  39.9733925  54.7398996  51.4438534  40.0374317  53.0482101  51.9125652
  39.6135259  53.4799910  49.8012304  39.3414068  52.4273157  49.7242594
  38.9261699  54.1532183  49.2889738  40.9994507  53.5663033  49.2417240
  41.9964695  53.4340620  49.9320984  41.1205769  53.7321424  47.9289579
  42.0648479  53.8141108  47.5800657  40.3908157  53.8538456  47.2413969
  37.0877790  52.7712536  51.1732721  36.1125278  52.9592085  50.3890753
  37.2471881  51.5399742  51.6799498  37.9624748  51.4210272  52.3830271
  36.3231802  50.3826761  51.3870239  36.3393617  50.1728296  50.3175354
  36.7891598  49.1445303  52.1929646  37.2758484  49.5512581  53.0794239
  35.8750129  48.6824703  52.5657129  37.7959228  48.1446886  51.5402365
  37.1684051  47.6569366  50.7943010  39.0195775  48.7597084  50.8702850
  39.5589280  49.4814968  51.4836597  39.7369075  48.0813789  50.4083157
  38.7167645  49.3443871  50.0016260  38.2718301  47.2018814  52.5611925
  38.8727283  46.3662100  52.2024870  39.0113258  47.7111626  53.1791592
  37.4063110  46.9303942  53.1655741  34.9209499  50.9057856  51.7115307
  34.0469074  50.8153534  50.8976173  34.6781659  51.4635515  52.9115438
  35.4480624  51.4878702  53.5648203  33.3782244  51.8863344  53.3403015
  32.6671457  51.0671139  53.2337856  33.2926702  52.3327589  54.7462988
  33.7760472  53.2958698  54.9102163  32.2350526  52.5301695  54.9211597
  33.6496186  51.3425398  55.7384872  34.5700693  51.4496183  55.9893036
  32.8108263  52.9334021  52.3845768  31.6631556  52.7604246  51.8957663
  33.5381079  53.9568329  52.0168400  34.4443345  54.0628004  52.4499941
  33.0408907  54.9872541  51.0398483  32.0581746  55.3000259  51.3927603
  34.0230989  56.1357737  51.0346794  35.0237870  55.7201195  50.9165621
  33.8533688  56.7810726  50.1727724  33.9050174  57.0128107  52.2628498
  32.9431677  57.5018406  52.4171114  33.9204144  56.2879133  53.0767202
  35.1126504  57.8238630  52.5177574  36.0120869  57.2351122  52.6980066
  35.2406430  58.4468651  51.6325569  34.9169707  58.7997913  53.6435366
  33.9624286  58.8030434  53.9735937  35.8071303  59.4031906  54.3616247
  37.0526218  59.0296412  54.4850349  37.5054216  58.5766697  53.7040806
  37.6512575  59.6501160  55.0111008  35.4667234  60.4296637  55.0893211
  34.4915175  60.6871653  55.1419067  36.0302496  60.8398056  55.8202934
  32.7670407  54.5284939  49.5808268  32.2177792  55.2470446  48.7733078
  33.2298207  53.3179092  49.1974497  33.7198806  52.7738476  49.8931074
  33.1697035  52.8369427  47.7732468  32.6918840  53.5889959  47.1453857
  34.5826721  52.5431395  47.3141193  34.4184804  52.0150757  46.3748169
  35.2435851  53.8681889  47.1281290  35.5533910  54.3846941  48.0366182
  36.1596560  53.7739086  46.5450144  34.6074176  54.5583105  46.5739441
  35.3521085  51.6533995  48.1553555  35.7124901  52.2738981  48.7930918
  32.2949529  51.6212463  47.6071453  31.5259504  51.4646339  46.6062498
  32.3475695  50.5990744  48.4800577  33.1154561  50.5702209  49.1355133
  31.5507221  49.3649006  48.4551382  31.6015267  49.0289688  47.4194384
  32.1317697  48.2437658  49.3834782  32.1416569  48.6409664  50.3984833
  31.4794850  47.3788643  49.2627478  33.6185527  47.9099894  48.9797115
  34.2054486  48.8264704  48.9187002  34.2478180  47.0549822  50.1058340
  35.1882315  46.5815163  49.8237848  34.4086409  47.7577972  50.9233236
  33.4339404  46.3493347  50.2724838  33.8014150  47.1689701  47.6259041
  33.7166762  47.7990150  46.7404842  34.8442745  46.8534231  47.5947285
  33.2466960  46.2307453  47.6147032  30.0485611  49.6741772  48.6711454
  29.2319298  48.9588118  48.1592512  29.6704102  50.7609844  49.3551731
  30.4227901  51.2443876  49.8245859  28.3174253  51.3791513  49.2794180
  27.6330829  50.6281424  49.6740818  28.1566834  52.6702976  50.1751995
  27.0994163  52.8445959  50.3749657  28.5117841  52.4310970  51.1775923
  28.9350772  53.7106037  49.6520472  28.3159900  54.2100286  49.1145468
  27.8672528  51.5748167  47.8325701  26.6967106  51.3969707  47.6416969
  28.7090063  51.9399500  46.8337059  29.6823668  52.1026182  47.0486641
  28.2598782  52.1473885  45.4592514  27.1717715  52.1917057  45.4126787
  28.8966417  53.3981991  44.8524284  29.9668837  53.2224703  44.7437954
  28.5627270  53.4960508  43.8194609  28.4750366  54.6817684  45.5978775
  27.4054933  54.6526241  45.8060408  29.0172648  54.6721315  46.5433884
  28.6139131  56.0373545  44.9324799  29.4751477  56.0770464  44.2655468
  27.7813125  56.1167622  44.2335033  28.6912394  57.1801519  45.8595753
  27.8226686  57.5600100  46.2079859  29.7936010  57.6170063  46.4745188
  30.9615397  57.0307112  46.2785673  30.9627533  56.1303139  45.8209848
  31.8248796  57.4230909  46.6261053  29.7309947  58.5922766  47.2882414
  28.8231659  58.9001894  47.6062632  30.5644774  58.8827562  47.7791834
  28.5217333  50.8653402  44.4975662  28.4061861  50.9136057  43.2717276
  28.9365363  49.6882391  45.0817680  29.1011143  49.6333647  46.0767555
  29.1092706  48.5191631  44.2994833  29.7901273  48.7657881  43.4847975
  29.5963097  47.3463297  45.1988649  28.8299203  47.0395565  45.9106493
  29.7832203  46.5768957  44.4497728  30.4301977  47.7239370  45.7905912
  27.7448606  48.0478144  43.7261629  26.6877270  47.9620647  44.4207096
  27.7522469  47.5905037  42.4685192  28.6256528  47.6575851  41.9657612
  26.6932511  47.0561361  41.6241455  25.7626820  46.9564486  42.1828985
  26.4835596  47.8750753  40.3914976  25.5329609  47.5526094  39.9666667
  26.2431908  49.4098186  40.6769466  27.2144318  49.8815060  40.8262587
  25.8371687  49.9064445  39.7956920  25.5470681  49.4719315  41.5134001
  27.5742340  47.8797960  39.4128466  27.3501325  47.1080589  38.8876796
  27.0946527  45.6064939  41.2117243  28.1616807  45.3559589  40.6771326
  26.3156986  44.5439005  41.4949989  25.2244401  44.6586895  42.3713493
  24.4540286  45.2477932  41.8738317  25.4981804  45.1181650  43.3211136
  24.5764041  43.2401609  42.5770617  23.8300467  43.1579638  41.7869377
  24.2607260  43.0051899  43.5935450  25.7972717  42.4154091  42.2769356
  25.4379487  41.4522457  41.9145727  26.3446784  42.1961880  43.1936646
  26.7289639  43.1581211  41.3359118  27.7697062  42.9574966  41.5902805
  26.3975120  42.7838612  39.8464680  25.5665684  43.3807325  39.1249132
  27.1477032  41.8506575  39.3057227  27.7673244  41.4389896  39.9888754
  27.1779037  41.3015079  37.9111362  26.4937449  41.8964243  37.3060632
  28.6498857  41.3966417  37.4195361  29.3219209  40.8769560  38.1024694
  28.7694073  40.6573296  36.0823202  28.7449670  39.5733881  36.1944509
  27.9984045  40.9420061  35.3663468  29.6939683  40.8576012  35.5408621
  29.1308975  42.8208733  37.3422670  28.7842464  43.3743620  36.4695787
  28.7387729  43.3723259  38.1968069  30.6517696  43.0173063  37.5040960
  31.0012841  44.0481758  37.5610948  30.8306098  42.6740170  38.5230494
  31.2653780  42.3494005  36.8995357  26.6609645  39.7976041  37.9280949
  27.1058583  39.0100074  38.7686968  25.6527495  39.4374394  37.1234107
  24.9676323  40.1697254  36.0958028  25.5766749  40.7944393  35.4424262
  24.3263125  40.8619881  36.6413164  24.2430353  39.1007447  35.2469802
  24.9399805  38.6663198  34.5302916  23.3502150  39.4683075  34.7411489
  23.7229967  38.1293368  36.3312888  23.5152531  37.1609068  35.8762240
  22.8072095  38.5597587  36.7364669  24.9793816  38.1319261  37.1966743
  24.5824790  37.9801941  38.2004404  25.9594655  36.9957519  36.8136072
  26.8770814  37.2156930  36.0285926  25.8131409  35.8505034  37.4814630
  25.2600288  35.8111620  38.3256316  26.8132401  34.7627425  37.3623180
  27.7880645  35.1574063  37.6487756  26.3992715  33.5837364  38.2320499
  26.3228297  33.9778352  39.2454338  25.3920770  33.2423496  37.9930592
  27.3709917  32.3519087  38.2255316  27.1023893  31.5970492  38.9645433
  27.3297119  31.9191074  37.2259927  28.7856793  32.6307321  38.6528540
  28.9294624  33.5518837  39.4904661  29.7320867  31.9055390  38.2894683
  26.9838428  34.2046618  35.9163046  26.0724616  33.6742067  35.2687907
  28.1673670  34.3007755  35.3644967  28.9125633  34.6127987  35.9706593
  28.4697628  33.8780379  33.9507294  27.6879811  34.2653108  33.2973170
  29.8571444  34.4078445  33.5329986  29.7959065  35.4933333  33.4551048
  30.6553316  34.1621089  34.2334342  30.4336953  33.9602160  32.1821213
  29.6281838  34.1880631  31.0839653  28.5767484  34.4300675  31.1321044
  30.0447297  33.9271879  29.7823596  29.3775368  33.9920020  28.9355683
  31.3830495  33.5164046  29.6007943  31.8171406  33.3572388  28.3050847
  31.1919785  33.7310004  27.6797223  32.2934389  33.4530425  30.6950426
  33.2540679  33.0067301  30.4843307  31.7724061  33.5599422  32.0329762
  32.4176764  33.5390425  32.8987670  28.5156322  32.3364830  33.8337922
  29.3227243  31.6960645  34.4763470  27.7232718  31.8061519  32.9206944
  27.0742369  32.4729395  32.5279546  27.6998711  30.3536081  32.6855993
  27.2591710  29.9574947  33.6004639  26.7254066  30.2001905  31.5083694
  25.7711506  30.6207991  31.8255258  27.1213675  30.6309605  30.5887198
  26.4779758  28.7562609  31.1584878  27.4617910  28.3116078  31.0085034
  25.8192658  27.9972935  32.3621535  25.0286531  27.2919631  32.1061254
  26.6596723  27.4098611  32.7319384  25.4349113  28.6528039  33.1436133
  25.6087518  28.7926412  29.8900747  24.6529484  29.2362976  30.1688361
  26.1230922  29.2806244  29.0621686  25.3624439  27.8557014  29.3904972
  29.0245509  29.6992254  32.3062325  29.4159436  28.6953688  32.8793383
  29.7210026  30.3162122  31.2993932  29.3888497  31.2243485  31.0077310
  30.7671189  29.6563482  30.4562068  30.6005144  28.5793662  30.4349875
  30.7437277  30.1266956  29.0183187  31.1697340  31.1299968  29.0203452
  31.5345621  29.5710635  28.5143781  29.4646645  30.1301432  28.2484412
  28.9606094  29.1639876  28.2724023  28.8085651  30.9012437  28.6522198
  29.7593641  30.5049205  26.7990708  30.6423664  31.1395574  26.7239332
  29.9129295  29.5784807  26.2456918  28.5609388  31.1823130  26.1696815
  27.9162407  30.3597832  25.8599925  28.1945848  31.8637538  26.9374847
  29.0153790  32.0694160  25.0831580  29.7599649  32.7259517  25.2692986
  29.4685960  31.6084933  24.3071103  28.1671548  32.4878049  24.7288013
  32.1848464  29.9018669  31.0342979  33.0997944  30.0541377  30.2351522
  32.2981453  30.0790477  32.3741364  31.4395976  30.1789403  32.8966451
  33.5775328  30.2023983  33.0772018  34.0308690  31.1153960  32.6911569
  33.2327437  30.2681875  34.6108818  32.6868773  31.1573434  34.9263668
  32.5899410  29.4358468  34.8974442  34.4637132  30.3720689  35.4863358
  34.2206287  30.4315662  36.5472174  35.0262427  29.4406557  35.4219604
  35.3424597  31.5756941  35.2039361  36.0619068  31.5028334  34.2151046
  35.1392865  32.7352595  35.8602333  35.8997631  33.3973646  35.8019495
  34.3877912  32.8386378  36.5270638  34.5037913  28.9895582  32.7831793
  34.0720844  27.8796935  32.4507689  35.8374619  29.1275883  32.9814672
  36.1536789  29.9074674  33.5399461  36.8984222  28.2085967  32.7197289
  36.7068648  27.8809929  31.6979218  38.2790422  28.9780927  32.7667022
  38.3629870  29.3761086  33.7779617  39.5451951  28.0481267  32.7206969
  39.5459962  27.2617483  33.4754920  39.5467639  27.5582814  31.7469668
  40.4342937  28.6757278  32.7817440  38.3423948  30.0522470  31.7683768
  38.3572960  29.4734740  30.8448505  37.3424101  30.4818416  31.7085671
  39.5447922  31.0557008  31.8536782  40.4298830  30.5455589  31.4735794
  39.3457961  31.8448329  31.1285782  39.7441578  31.4986539  32.8294587
  36.8799734  26.9643950  33.6991930  36.6833162  27.1082568  34.9607563
  37.1629095  25.7529330  33.2296419  37.1815419  25.2873158  31.8648171
  38.2368088  25.1405168  31.6346836  36.6159344  25.8623576  31.1316586
  36.4176989  23.9319396  32.0212531  36.5745735  23.2780027  31.1634302
  35.3614831  24.1329479  32.2004271  36.9899750  23.3200240  33.3126616
  37.9510331  22.8464699  33.1121325  36.3475633  22.4950051  33.6204767
  37.0853877  24.5896435  34.1572022  36.2911344  24.7220087  34.8918748
  38.4082031  24.5432210  34.9375534  39.5134091  24.7325611  34.4506454
  38.3077669  24.1428876  36.1875916  37.4158120  23.7535548  36.4576578
  39.3149781  24.3141031  37.2381878  39.7168350  25.3268433  37.2068715
  38.5899258  24.0891886  38.5884523  37.8824401  24.9160361  38.6507893
  37.9426789  23.2122016  38.5804987  39.4801879  24.0118766  39.7578287
  40.0387716  22.9744267  40.1190948  39.5713735  25.0514674  40.5633545
  39.9425077  24.8180413  41.4732313  38.8890815  25.7925224  40.4897690
  40.5258656  23.3966112  37.1325588  41.5693569  23.7781310  37.6643014
  40.3166199  22.1933508  36.6179419  39.5210409  21.9494557  36.0455155
  41.4035177  21.2032819  36.6219306  42.3043251  21.7206979  36.2918925
  41.6305017  20.5851674  37.9882026  40.8445978  19.9841917  38.4456825
  42.4170065  19.8619068  37.7728009  42.1854448  21.4854789  38.9304709
  41.5664625  22.0389247  39.4123101  41.1303473  20.0865483  35.6481671
  40.0231934  19.5459974  35.5823946  42.2020340  19.6837211  34.9732304
  43.0313778  20.2490711  35.0857806  42.2115040  18.4898996  34.0675640
  41.5684986  17.7155733  34.4859838  41.5502644  18.9127731  32.6975346
  40.5845261  19.3789697  32.8927469  42.1696138  19.7109365  32.2883248
  41.3592863  17.6117527  31.5452647  40.4800129  18.2350504  30.7557821
  43.6807728  17.9701388  33.8938189  44.6380615  18.4692717  34.4768620
  43.8277817  16.8456316  33.0772424  43.0102253  16.3096201  32.8234863
  45.0689602  16.1456263  32.6810908  45.5838728  16.1226487  33.6415315
  44.9229527  14.6698642  32.2844219  45.8912611  14.2938149  31.9541764
  44.3472910  13.7719107  33.3883214  43.3157778  14.0624213  33.5875487
  44.3242216  12.7493739  33.0115080  45.1160431  13.8074076  34.1602445
  43.9619112  14.4938827  31.1401105  44.2879820  15.1741016  30.3532934
  43.9414597  13.4501851  30.8264542  42.9056740  14.6091282  31.3833904
  45.8320141  16.7950296  31.5488076  47.0300817  16.5032518  31.4793396
  45.1186132  17.6287854  30.7431722  44.1207552  17.7228332  30.8678222
  45.7591534  18.4383786  29.7058487  46.2594652  17.8564286  28.9318204
  44.7387171  19.3729854  28.9870334  44.2457390  19.9200630  29.7906399
  45.2417755  19.9259698  28.1937861  43.7776661  18.5238159  28.4708309
  42.9416752  18.9957380  28.4732175  46.9701004  19.3130791  30.2574182
  46.9324875  19.7582185  31.4224958  48.0160761  19.5420122  29.4968748
  48.0192041  19.0925801  28.5923839  49.1587877  20.3339171  29.8655820
  49.5489550  19.9891829  30.8231974  49.9515724  20.1669025  29.1363955
  48.9070225  21.8072653  29.9252129  48.0996275  22.2574162  29.0936875
  49.5056915  22.5854254  30.8739495  50.2802324  22.2547221  31.4314651
  49.2100477  23.9821267  31.0303807  48.1503725  24.2362356  31.0055017
  49.6126747  24.3680334  32.5107193  49.1966152  23.6118960  33.1764936
  49.0386868  25.2328801  32.8433943  51.4246321  24.6799707  32.6892138
  49.8286533  24.7864032  29.9570823  50.4676390  24.3140507  28.9530301
  49.7848606  26.1412406  30.0938582  49.4234180  26.4833426  30.9727383
  50.2626944  27.1433187  29.1096473  50.6248617  26.6895747  28.1871223
  49.0701246  28.1047893  28.8475585  49.3906450  28.8662219  28.1365108
  48.1794786  27.5878596  28.4903026  48.5805511  28.8315797  30.4470682
  49.7516394  29.3631363  30.8088732  51.5588140  27.9181647  29.6613336
  52.0205021  28.7937880  28.8692069  52.0044279  27.7406669  30.9002805
  51.5165520  27.1237779  31.5339422  53.0333138  28.5824633  31.4603400
  52.6135254  29.5878768  31.4924002  53.1553745  28.2535553  32.9401159
  53.8095093  28.9851856  33.4143758  53.5767889  27.2536755  33.0438161
  51.6081715  28.3296084  33.7700796  54.4075012  28.4985018  30.7365012
  55.1372242  29.4917750  30.6430411  54.7670794  27.3635435  30.1668525
  54.1758728  26.5550351  30.2968311  55.9996653  27.2367263  29.3737340
  56.7875624  27.2063947  30.1263285  55.9864807  26.2435746  28.9247561
  56.1517906  28.3236170  28.2615852  57.0532656  29.1778302  28.2243252
  55.1967812  28.1992531  27.3367095  54.6039629  27.4052000  27.5320220
  54.8607445  28.9354205  26.1593986  55.6791449  28.9483309  25.4395604
  53.5667610  28.4027719  25.4968905  53.5183096  27.3148489  25.5435181
  52.7142525  28.8415337  26.0153770  53.3278751  28.6677957  24.0366817
  53.8493681  27.9143143  23.0092764  54.4023800  26.9877887  23.0554438
  53.6603737  28.6232543  21.8109822  53.9217567  28.2063651  20.9289479
  52.9427147  29.7865081  21.9733429  52.5007629  30.8153772  21.1237717
  52.5983763  30.7365274  20.0510812  51.7409420  31.8937588  21.6208887
  51.4721107  32.6338601  20.8817124  51.6083097  31.9944477  23.0273247
  51.1380053  32.8539634  23.4816885  52.0816898  31.0148168  23.8897562
  51.8353987  31.0996509  24.9378705  52.8085518  29.8399186  23.3895874
  54.5782042  30.4010344  26.4486408  55.0181150  31.2711167  25.6920290
  53.7941599  30.6735063  27.5379109  53.3532000  29.9688387  28.1115818
  53.4597063  32.1351147  27.8590012  53.3266020  32.5785160  26.8721986
  52.3082161  32.2233224  28.8179374  52.5313044  31.7429185  29.7705865
  52.3242807  33.2496071  29.1847873  50.9251404  31.9552588  28.2555246
  51.0115290  30.9579277  27.8242826  49.8504400  31.9538569  29.3276238
  49.3593550  32.8914070  29.5882559  49.0574694  31.3076210  28.9512277
  50.2745008  31.4819717  30.2139640  50.5646992  33.0147886  27.1141219
  49.4974852  32.8647232  26.9508767  50.8139753  34.0299869  27.4228859
  51.0479689  32.7330112  26.1786270  54.6381140  32.8519535  28.3597112
  54.9602842  33.9463210  27.8390312  55.3549099  32.2025561  29.3142629
  54.9920845  31.3282299  29.6664166  56.6686726  32.7074289  29.7647762
  56.4616632  33.6799335  30.2114129  57.2709990  31.8655086  30.8504963
  57.6332283  30.9464264  30.3898692  58.3878469  32.4832940  31.5957928
  58.3544254  32.3016191  32.6700234  59.3707705  32.1111608  31.3068628
  58.2832670  33.5592031  31.4558673  56.2699747  31.5955377  31.7459035
  55.7778120  30.8312464  31.4372993  57.6023006  32.9336238  28.6950684
  58.1909132  33.9785600  28.6649776  57.7815580  31.9642901  27.7782154
  57.2952271  31.0833621  27.8651047  58.7523460  32.0225692  26.6834450
  59.7572374  32.1717548  27.0784521  58.6488676  30.7127190  25.8643150
  58.9286661  29.8163915  26.4178610  57.6152945  30.5037189  25.5883527
  59.5008755  30.8391833  24.6098304  59.3564081  30.0364137  23.8867855
  59.2740440  31.7048550  23.9875293  61.0138893  30.9476709  24.9827123
  61.0894394  31.9427085  25.4212236  61.2349176  30.2719045  25.8089042
  61.9084883  30.6923509  23.7997127  61.6206455  31.1792660  22.8679562
  62.8716993  31.0388970  24.1741896  61.9637060  29.2280293  23.6588001
  62.8168726  28.9843488  23.1762815  62.1236038  28.7430668  24.5302033
  61.0644293  28.8880610  23.3492351  58.4530497  33.3194184  25.8266997
  59.3338203  34.1325879  25.5138588  57.2225380  33.4616876  25.4010320
  56.5907764  32.7314353  25.6971836  56.6549778  34.5993400  24.6643782
  57.1804619  34.8155761  23.7342143  55.2112436  34.3785286  24.2833567
  54.6526814  34.0838218  25.1717567  54.5047283  35.6024766  23.6461210
  54.7081041  36.4252305  24.3315530  54.9131823  35.7972741  22.6544905
  53.4334326  35.4014182  23.6460376  55.1143408  33.2375455  23.4810257
  54.9727392  32.4764752  24.0487599  56.8059778  35.9317446  25.4747844
  57.3617077  36.8779635  24.8926854  56.4883137  35.9307528  26.7759275
  56.1176300  35.0485873  27.0991564  56.6626978  37.1463013  27.5883341
  56.1962080  37.9728198  27.0522809  55.8948326  36.8699360  28.8921475
  56.2484503  35.9344697  29.3256903  56.0675144  38.0287266  29.9777365
  55.6461382  38.8796186  29.4424558  55.4644585  37.8216553  30.8617902
  57.0981693  38.0031824  30.3315639  54.3684816  36.7964482  28.5891032
  54.1297388  36.2888169  27.6545405  53.9039421  36.2721658  29.4242263
  54.0430641  37.8260684  28.4404850  58.1232500  37.6096535  27.7148581
  58.4714603  38.7771654  27.6881623  59.0120459  36.6394496  27.8506207
  58.5227394  35.7571626  27.8980374  60.4601336  36.6823030  27.5849986
  60.8248329  37.5288415  28.1667757  61.0631800  35.3792858  28.0990410
  60.6401968  34.4288874  27.7735662  62.1118164  35.3350925  27.8049302
  61.0454416  35.1954246  29.6461701  61.6087198  36.0248446  30.0738168
  60.0341511  35.4315615  29.9772716  61.4686346  33.8496470  30.2350235
  60.6197453  33.1805944  30.0941110  62.2811890  33.4370971  29.6369696
  61.9052505  33.9385581  31.7027521  61.2734270  34.6969676  32.1650457
  61.6195345  33.0054307  32.1882868  63.3000612  34.3446136  31.7889428
  63.7321663  34.4901156  32.6901698  63.8552237  33.6701488  31.2820029
  63.4122324  35.2558398  31.3680124  60.8447886  37.1880651  26.2224960
  61.5318966  38.1727004  26.1649108  60.3488255  36.6492486  25.1416779
  59.8175621  35.8210492  25.3695869  60.5726624  37.1359730  23.7991858
  61.6206551  36.9933438  23.5356164  59.7488403  36.3643479  22.7600551
  59.7903061  35.2845669  22.9030871  58.7353754  36.7395806  22.9021382
  60.1307917  36.6332626  21.3051319  59.3103838  36.2386537  20.7057095
  60.0702333  37.6817918  21.0135436  61.4946079  35.9855533  20.9296036
  62.5687647  36.5513158  21.2640047  61.6107178  34.9167109  20.2795362
  60.1963186  38.6359334  23.6481833  60.8719826  39.4050336  22.9744339
  59.0716457  39.0500474  24.2136049  58.4771013  38.3022285  24.5412993
  58.5212421  40.4346657  24.1846347  58.6916828  40.7972097  23.1709218
  57.0211792  40.4035950  24.5899510  56.7929602  40.4734707  25.6535006
  56.4339161  41.6514111  23.9014769  56.6617060  42.5309944  24.5036006
  56.9161367  41.7776442  22.9321313  55.3567648  41.5066099  23.8185811
  56.3440132  39.3183541  23.9803410  56.5929127  38.4670091  24.3475771
  59.3284702  41.4088917  25.0968122  59.3173122  42.6148319  24.8352456
  60.0900745  40.8700752  26.0813594  60.1286650  39.8852038  26.3018894
  61.0285330  41.5646458  26.9416881  60.6940746  42.5967360  27.0466971
  61.0326052  41.0111856  28.3933663  61.5026951  40.0277853  28.3871531
  61.7388821  41.7779541  29.4509530  62.8108168  41.8464851  29.2655683
  61.4209890  42.7988577  29.6626163  61.7250204  41.1972523  30.3732848
  59.7038269  40.9176874  28.8738728  59.2558861  40.3899574  28.2086968
  62.4700403  41.5584993  26.3295817  62.8871870  42.5562429  25.6964946
  63.2205486  40.4771566  26.4874983  62.7082300  39.7920775  27.0244336
  64.7119474  40.3112698  26.3827991  65.1116276  40.9843493  25.6242943
  65.4715776  40.6187439  27.7168894  64.8921919  40.0823069  28.4683180
  66.5094757  40.2904606  27.7725387  65.4232168  42.1390820  28.0390668
  65.9119987  42.7801037  27.3053861  64.3757439  42.4183798  28.1526303
  66.1525345  42.3255205  29.3630004  65.7530880  41.5878725  30.0589967
  67.1915817  42.0903587  29.1323900  66.0841370  43.7054920  29.9319839
  65.1991653  44.1674137  30.0854754  67.0010519  44.5636606  29.8844695
  68.2735872  44.3430138  29.8018813  68.6825228  43.4304380  29.6601582
  68.8598204  45.1635933  29.7462964  66.6345596  45.8214712  29.8138285
  65.6285429  45.9093952  29.8311496  67.2310686  46.4560795  29.3024087
  65.2273846  38.9830565  25.7855082  66.4184570  38.7766385  25.7474589
  64.3225479  38.0427337  25.5429649  63.3246708  38.1585622  25.6475019
  64.6452904  36.8184638  24.8511028  63.7184143  36.2688875  24.6868610
  65.1936579  37.0938802  23.4216928  66.0441923  37.7684069  23.5201979
  65.7435131  35.9075880  22.6509190  65.9059668  36.2124968  21.6171217
  66.7092133  35.6687236  23.0964279  65.0745440  35.0474787  22.6790500
  64.3224764  37.8690791  22.6420045  63.6909962  37.2569680  22.2571015
  65.3878736  35.7718253  25.6570530  66.3241482  36.0218215  26.4282131
  64.9066496  34.5273376  25.5345893  64.0301895  34.3664598  25.0591588
  65.5943108  33.3495736  26.1328411  66.5454578  33.7384510  26.4964437
  64.7701931  33.0070162  27.4015355  64.5834017  33.9041710  27.9917264
  63.8163376  32.5619197  27.1184397  65.5265570  32.0725894  28.3520532
  65.1877499  31.0410881  28.2555294  66.5597773  32.1306515  28.0097270
  65.4281855  32.3755693  29.8394060  66.2827253  33.1482100  30.3745770
  64.4873190  31.9618869  30.4898000  65.7251120  32.1690655  25.2219534
  64.8953152  31.2070179  25.2866888  66.7115641  32.1209741  24.3904734
  67.7629280  33.0868554  24.3276167  68.2033825  33.1440854  25.3230166
  67.3331118  34.0756798  24.1676545  68.7686825  32.5875306  23.3334994
  69.4926023  31.9761515  23.8722515  69.2109919  33.4204364  22.7869296
  67.8301191  31.7375207  22.4089098  68.4168148  31.0213876  21.8335462
  67.3219776  32.5004697  21.8191648  66.9548941  31.0736108  23.3768392
  66.0175848  30.8361793  22.8736711  67.5575256  29.6753049  23.8382649
  68.5117626  29.1399360  23.2640862  67.1937180  29.2200994  25.0208497
  66.3777494  29.7107220  25.3578758  67.8794289  28.2925177  25.8952260
  68.4605789  27.5755000  25.3153563  68.9009953  28.9950752  26.8628097
  69.2223120  28.2246637  27.5637531  70.1274729  29.4682240  26.1103654
  70.8873415  29.8076749  26.8142629  70.4727173  28.5629702  25.6109452
  69.9071980  30.2282786  25.3607678  68.2065248  30.0425029  27.7124405
  68.2330036  31.0123110  27.2155809  67.1567345  29.7504044  27.7393794
  68.7727261  30.0999880  29.1552424  68.2364082  30.8356667  29.7546172
  68.4933805  29.1657472  29.6423364  69.8449898  30.2931738  29.1872478
  66.8473196  27.3904347  26.7473173  67.3173952  26.4774013  27.3583531
  65.5239296  27.5983167  26.5235496  65.2184725  28.2706714  25.8345366
  64.4519567  26.8757606  27.2910094  64.5934200  25.7950473  27.2790074
  64.5237970  27.4909449  28.7705207  65.5395746  27.3076057  29.1207957
  64.2517424  28.5370708  28.6301422  63.4744978  26.7622042  29.6230721
  63.2987833  25.5705237  29.4995308  62.7799749  27.3437905  30.5879641
  62.1871948  26.8355513  31.2285972  62.9439116  28.3022690  30.8610010
  63.0317163  27.2461891  26.7419863  62.7230930  28.2801747  26.1647320
  62.0531034  26.3920045  27.0015979  62.2849655  25.5913210  27.5718999
  60.5471134  26.6539216  26.8399358  60.3467941  27.7253556  26.8379569
  60.1173210  26.0945749  25.5111003  60.2104235  25.0115299  25.4308152
  58.6229563  26.4853787  25.1611638  57.9741096  25.6747031  25.4926777
  58.2872963  27.3438716  25.7429099  58.4378004  26.6615701  24.1015553
  60.8995390  26.6224813  24.4767642  61.7312956  26.1622548  24.6108270
  59.7899055  25.9262633  28.0069256  58.5452271  25.7972217  27.9984069
  60.5263662  25.4398274  29.0432262  61.5333271  25.5146408  29.0201879
  59.9213648  24.6654224  30.1992440  58.8666582  24.4335341  30.0511932
  60.6352377  23.3323932  30.4802561  61.5911913  23.6381102  30.9054494
  59.6793365  22.5226903  31.3439608  60.0827551  21.5111136  31.2985229
  59.8091412  22.8831458  32.3644185  58.6412954  22.5790811  31.0162497
  60.9000206  22.5324297  29.2836189  61.3854122  23.1198025  28.6996770
  59.9624491  25.5021191  31.4857197  61.0149431  25.6781507  32.0825505
  58.8271093  26.1760592  31.8629169  58.0523539  26.0073543  31.2373042
  58.7032795  27.0781422  32.9572034  59.6320963  27.1037602  33.5270667
  58.4806347  28.4499884  32.3507166  57.6376915  28.3556056  31.6661382
  58.1401157  29.0775895  33.1742859  59.6289349  29.0622401  31.5502620
  60.6005287  29.8839927  32.0837998  60.4789066  30.1555467  33.1220055
  61.5351582  30.5206871  31.2959123  62.2260857  31.2009478  31.7715907
  61.5211201  30.3281188  29.9212813  62.4386120  30.8381009  29.1375637
  63.1007051  31.2100863  29.7248101  60.6839371  29.3945456  29.3293095
  60.7266426  29.3353319  28.2517791  59.6971178  28.8055062  30.1192403
  58.9253092  28.2611537  29.5954227  57.5574684  26.7823529  33.9543295
  56.5544844  26.3325739  33.4623742  57.6953983  27.1975946  35.1965857
  58.4803963  27.7987003  35.4028797  56.5822411  27.1509480  36.1518764
  55.9679508  26.2696528  35.9673142  57.0479393  26.9970489  37.5957990
  56.1955595  26.7107201  38.2118869  57.7443838  26.1610603  37.6605320
  57.7619839  28.1581187  38.0521274  58.5070515  28.2774830  37.4586391
  55.8451796  28.4613132  36.0578918  56.2806940  29.4608378  35.4630566
  54.5609713  28.4795308  36.5954995  54.1583872  27.5956798  36.8726921
  53.8197994  29.7440195  36.8514442  53.7129450  30.2592731  35.8968759
  52.4294186  29.3953514  37.2681952  51.8991280  28.9856911  36.4085007
  52.4435711  28.6579919  38.0708218  51.6845274  30.5197954  37.8980446
  50.5620575  31.0520816  37.1644449  50.2815294  30.6252289  36.2128687
  49.7926664  32.1866322  37.6392722  48.9999485  32.5941610  37.0294189
  50.1718664  32.7502608  38.9173603  49.4681263  33.8252878  39.4334245
  48.6597586  33.9749694  38.9377046  51.2578440  32.2095108  39.6447086
  51.5656996  32.6828766  40.5653334  51.9937277  31.0889673  39.1680527
  52.8229094  30.7028890  39.7423363  54.5668745  30.7875800  37.6942444
  54.3558741  31.9225955  37.4055624  55.3108311  30.3511786  38.6547351
  55.5501986  29.3845606  38.8234186  56.0484600  31.4057517  39.3701887
  55.3491831  32.2051883  39.6151781  56.5537596  30.8334231  40.7236719
  57.3785448  30.1305175  40.6064034  57.1640873  31.8536568  41.6949844
  56.4129162  32.6373410  41.7933750  57.2795486  31.4372158  42.6956606
  58.0960989  32.2924185  41.3386822  55.5662727  30.1179314  41.4321470
  55.5833340  29.1989779  41.1549473  57.0869446  32.1421456  38.5333610
  57.4406719  33.2970643  38.9009261  57.4785042  31.5818954  37.3818445
  56.9894648  30.7227635  37.1748877  58.4000301  32.2655654  36.4169598
  59.0591192  33.0058050  36.8705559  59.0842295  31.2507701  35.5936456
  58.3964205  30.7571054  34.9071240  59.7671032  31.7135143  34.8811507
  59.8839140  30.1887441  36.3340235  59.6194696  28.9493299  36.2549853
  60.8634138  30.6953692  36.9778252  57.5433397  33.1360984  35.4799604
  57.9353952  34.2590308  35.2169108  56.3223267  32.7195621  35.1522374
  56.1091089  31.7333889  35.1980877  55.3355837  33.5491157  34.4484735
  55.7765007  33.8627696  33.5022593  54.0379333  32.6788688  34.1472888
  54.3519163  31.7417693  33.6875463  53.6457300  32.4704671  35.1426983
  52.9136086  33.2358789  33.3143640  53.1700468  34.3577313  32.5228977
  54.1361523  34.8350477  32.5950599  52.2528601  34.7315550  31.5510273
  52.5537920  35.4683375  30.8209634  50.9755039  34.1198564  31.5339088
  50.1770258  34.4827414  30.9037113  50.6373835  33.0782628  32.4105000
  49.6579313  32.6340294  32.3118639  51.6028261  32.6235747  33.3439493
  51.4908743  31.7403579  33.9553356  55.0480652  34.8604155  35.1635432
  55.3946877  35.8899117  34.6229768  54.6739244  34.7611642  36.4635921
  54.6404505  33.8076806  36.7950249  54.3621445  35.8370852  37.4530053
  53.3844566  36.2619257  37.2255349  54.2050934  35.1611876  38.7422347
  53.2799816  34.5925760  38.6476183  55.0586557  34.5188522  38.9588857
  54.0908575  36.0383034  40.0129223  54.7455168  36.9096494  39.9964190
  53.0933809  36.4629102  40.1262856  54.4938850  35.2806211  41.3299131
  54.0474129  34.1537786  41.5937185  55.2440548  35.8752871  42.2130251
  55.3862047  35.2809477  43.0171728  55.5648756  36.8219781  42.0682859
  55.4572248  36.8504620  37.4739623  55.2649689  38.0882144  37.3671436
  56.6642046  36.3953972  37.6084590  56.7055988  35.4140019  37.8435206
  57.8499699  37.2064996  37.6465940  57.7459002  38.0572367  38.3200336
  59.1045046  36.4199448  38.1034541  59.1504288  35.5444837  37.4557209
  59.9435139  37.0636964  37.8393507  59.1491985  36.0636473  39.6752763
  59.3438196  36.9766474  40.2379942  58.1041002  35.7978535  39.8340845
  60.1314831  34.9151278  39.9209929  59.9447107  34.0694427  39.2591524
  61.1042786  35.3120661  39.6307921  60.0944185  34.3797493  41.3937759
  60.2876949  35.2217817  42.0584011  59.0933275  34.0582395  41.6810942
  61.1861086  33.4319186  41.6727114  61.2420464  32.7597809  40.9209156
  61.9796610  34.0536714  41.7343473  60.9069824  32.9531288  42.5170755
  58.1335926  37.8888035  36.2971497  58.2036781  39.0864849  36.2623787
  58.0817413  37.1913075  35.1576209  58.0414629  36.1873245  35.2600741
  58.2877636  37.7871394  33.8107109  59.2409849  38.3040762  33.9213824
  58.4754992  36.5733123  32.8391862  59.2727709  35.9203053  33.1941915
  57.5403118  36.0156608  32.7887321  58.6940622  36.9633579  31.8451095
  57.2339773  38.8075709  33.3995867  57.5763655  39.8183465  32.7651453
  55.9776735  38.5599113  33.7362266  55.7830667  37.8244209  34.4005179
  54.9262857  39.5046353  33.5882282  54.9372435  39.7645593  32.5297308
  53.5539436  38.8411522  34.0697622  53.7112474  38.3486080  35.0293207
  52.3616409  39.7941065  34.2574120  52.0917320  40.3912210  33.3863783
  51.5229416  39.1426039  34.5028353  52.5032520  40.3992319  35.1528835
  53.1139851  37.8498459  32.9935360  53.3183479  36.8671107  33.4184742
  52.0982409  37.9798484  32.6200867  53.6906815  37.9411912  32.0731091
  55.1502752  40.7709551  34.4178677  55.0370598  41.8593836  33.8559055
  55.4300117  40.6558084  35.7455301  55.3545141  39.7507405  36.1874032
  55.7099628  41.8571854  36.5734005  54.8041153  42.4571419  36.6605401
  55.9898472  41.3670588  37.9394746  56.5089464  40.4086065  37.9387164
  56.6630411  42.0496798  38.4580660  54.8061371  41.2242222  38.9210939
  54.0220881  42.0890808  39.0842533  54.7318697  40.0428772  39.4674850
  53.9443064  39.8853183  40.0798750  55.3672886  39.3319702  39.1343951
  56.8811941  42.6364756  36.0217404  56.7459154  43.8614368  35.8823562
  57.9225540  41.9543076  35.6223369  57.8530979  40.9561014  35.7596922
  59.1250038  42.6173353  35.0926709  59.5101309  43.3529043  35.7988667
  60.2330065  41.6243315  34.8968768  59.8296547  40.7287645  34.4242573
  61.0419798  42.0153666  34.2798233  60.8917427  41.0926533  36.2221789
  61.1508322  41.9091225  36.8962359  60.1417351  40.5455923  36.7934227
  62.0788431  40.1310205  36.0295749  61.7615986  39.1602921  35.6485987
  62.7156401  40.4873466  35.2198720  62.8025532  40.0967884  37.3917341
  62.9814100  41.0683203  37.8524208  62.0680428  39.5904088  38.0179739
  64.0338707  39.3006730  37.3193145  64.4509220  39.1976905  38.2334065
  63.8584518  38.3416295  37.0555687  64.6159554  39.7236800  36.6105509
  58.7668896  43.4054565  33.8641787  58.9510727  44.5899057  33.8851786
  58.0189657  42.7238274  33.0125952  57.7497244  41.7886114  33.2827544
  57.6462555  43.2671118  31.7495823  58.6354971  43.3920097  31.3092303
  56.8621016  42.2790098  30.8881760  57.5340366  41.4861870  30.5594897
  56.0510683  41.9547892  31.5402532  56.1915636  42.8084803  29.5975971
  55.4567480  43.5968256  29.7609162  57.2789431  43.4828758  28.7596512
  56.6926527  43.7382698  27.8769612  57.6069355  44.4022655  29.2446756
  58.0676126  42.7917624  28.4622288  55.5343723  41.6370106  28.7974334
  54.6261549  41.3905621  29.3474436  55.2988005  41.9626045  27.7842164
  56.2503815  40.8151674  28.7970400  56.9058800  44.5781660  31.9391894
  57.4136353  45.6154203  31.5050316  55.7802296  44.5230722  32.6901221
  55.5401134  43.7111902  33.2408404  54.8991108  45.5964947  32.9885554
  54.6361971  46.0869980  32.0513320  53.6546469  44.9314594  33.6377764
  53.2725143  44.0891552  33.0610514  53.8148117  44.6102333  34.6669793
  52.4909735  45.9807253  33.6451292  52.7879524  46.8067694  34.2913127
  52.0517302  46.5837812  32.2762609  52.7523518  47.2869539  31.8259525
  51.9250917  45.7736397  31.5581131  51.1278915  47.1307707  32.4644876
  51.1901617  45.4199982  34.2733121  50.5378723  44.8846292  33.5833836
  51.3716030  44.7329712  35.0998497  50.5978155  46.2385082  34.6823025
  55.5878830  46.7192221  33.8247752  55.2922440  47.8582144  33.4853053
  56.5393591  46.4418602  34.7543430  56.6238546  45.4605198  34.9777961
  57.4327850  47.4239874  35.4143405  56.8695307  48.1267738  36.0282850
  58.3602428  46.8266296  36.4841247  59.0371943  46.1189127  36.0056162
  59.3101788  47.8599501  37.1237183  60.0838614  47.6474094  37.8615212
  59.9263811  48.2117462  36.2962914  58.6841106  48.6693430  37.4992490
  57.5707293  46.1612844  37.5224829  57.0212412  45.5233002  37.0613527
  58.2109070  48.2794571  34.4161248  58.1664467  49.4959211  34.4083929
  58.8564157  47.6469517  33.4270978  58.7752867  46.6452408  33.3266282
  59.6979904  48.3084726  32.4029040  60.1029730  49.2148066  32.8530765
  60.8178997  47.3841143  31.9900370  61.5075159  47.8664589  31.2973118
  61.4925766  47.1412468  32.8109670  60.5082035  46.4212608  31.5837145
  58.8033676  48.7821054  31.1817932  59.3983555  49.3130016  30.2437162
  57.5455093  48.5011959  31.0714364  57.1912718  47.7744675  31.6768122
  56.8087101  49.0325928  29.9062347  57.3834801  48.9532995  28.9834905
  55.6225634  48.1484604  29.6602774  55.8996010  47.0967770  29.5873618
  54.8773956  48.2209349  30.4524755  55.1017332  48.4844828  28.4091020
  55.7923174  48.2109594  27.8009295  56.3539553  50.5351686  29.9257541
  55.5093193  50.9502029  30.6665659  56.9320059  51.3316107  28.9594436
  57.5281096  50.8436251  28.3062744  56.7957783  52.7546263  28.7377739
  56.8926716  53.1936789  29.7307205  57.9404831  53.0995512  27.8011441
  58.8633490  52.6906490  28.2125115  57.7143478  52.7665138  26.7882037
  58.0459976  54.6514750  27.6523328  57.0722866  55.1108313  27.4821115
  58.6141109  55.1508474  28.9747596  58.8576889  56.1943960  28.7753320
  57.8446531  55.1783466  29.7463036  59.4412518  54.5414352  29.3388414
  59.0171480  55.0201845  26.5522385  59.8925447  54.3707705  26.5454245
  58.6112213  54.7669601  25.5728507  59.2106724  56.0883284  26.6508245
  55.3674030  53.2330799  28.2383418  54.9097252  54.3133450  28.7610388
  54.7702217  52.5927496  27.3705363  51.4465904  26.0431933  34.5669270
  32.1363759  59.9531078  55.1308107  69.3005610  32.7811360  39.9010634
  31.8212628  33.6822844  15.0024271  79.1028166   7.6429522  69.9839687
  21.6864014  54.3082571  61.4145994   6.7979670  79.3089151  46.7340946
  74.1165638  54.7330475  15.5255842  30.3212476  12.4343836  26.7298913
  30.3072166  12.7795529  27.6225805  29.8818874  13.1049490  26.2068820
  25.4573846  32.0534039  10.2689230  25.1446319  32.6900005  10.9117007
  26.3779616  31.9184852  10.4937959  72.5740242  24.3985844  44.5137072
  73.1044006  23.6101389  44.3984222  71.8088722  24.2561269  43.9565039
  17.9932415  14.9357390  64.1958618  17.1966076  15.2571952  64.6180820
  17.8636134  15.1225567  63.2660627  49.3571615  80.5677128  55.0544643
  49.9227190  80.4098034  54.2985249  49.8186731  81.2338448  55.5638742
  65.8561087  28.7146401  11.1362457  65.3945398  28.7858820  11.9717753
  66.6478968  29.2393470  11.2545216  12.0087540  12.2254026  44.0508270
  11.8978500  11.6805637  44.8299837  11.1183250  12.3691177  43.7303400
  71.2971163  21.0245633  45.5566120  70.7000303  21.7399168  45.3375435
  71.1494589  20.3713822  44.8726654  61.8245697  62.9621649   8.2119256
  61.4028978  63.2814741   9.0097135  61.2463951  62.2673178   7.8970677
  82.7594566  44.7880030  43.4361458  83.1473827  45.2102375  42.6696825
  83.5095692  44.4927454  43.9522648   7.5587058  60.5358505  33.2778621
   8.4876603  60.7534409  33.2008600   7.4758071  60.1437569  34.1471291
  12.9008830  75.0822353  16.5469956  12.6814878  75.7533360  15.9006774
  12.1443057  74.4958782  16.5496993  79.8418474  78.2407713  22.2829318
  80.0527382  77.8758144  21.4235377  79.0522623  77.7728415  22.5546527
  15.3660023  73.8507175  15.2641892  15.6574547  74.6343565  14.7981465
  14.5668769  74.1234779  15.7150030  33.4211254   2.1673697   3.4266204
  33.4410334   3.0583146   3.0772600  33.5191417   2.2786649   4.3722621
  72.2507954  60.8347940  17.5630653  71.9176340  60.0500154  17.1279144
  71.6100264  61.0179663  18.2501590  27.9777622  69.8634195  29.8775172
  28.7922192  69.4026756  30.0790334  27.3122478  69.4114351  30.3962040
  64.8935080  50.0170994  24.6426296  64.3944454  49.2003298  24.6352959
  64.2287970  50.7034254  24.7004962  54.0973711  12.2682393  16.6739583
  55.0395727  12.1243072  16.7620802  53.8387728  12.6746750  17.5011027
  17.5490093  16.3088107   0.5950392  17.4358809  16.5719092   1.5083919
  17.7559459  17.1224642   0.1352812  76.8651295  81.5925503   8.9267588
  76.4095926  81.5085888   9.7644162  76.9700098  80.6919765   8.6198324
  15.9156919  76.0952520  13.5456955  15.3076518  76.5464830  12.9601097
  16.7255259  76.6021490  13.4869123  20.4723167  45.1689434  21.6174912
  19.6433330  45.5587387  21.3398671  20.7916164  45.7509804  22.3070669
  30.8607340  77.4127722  26.2325764  30.8509111  76.5778732  26.7006350
  30.9630656  77.1702337  25.3122854   6.3986331  59.8401737  30.3185558
   7.3253691  59.6029997  30.2847815   6.0737866  59.6632147  29.4357228
  52.4186563  10.4725730  62.5733805  52.1694708   9.6635592  62.1265793
  52.8503561  10.1797414  63.3759499   2.1608000   0.3773990  13.8053715
   2.0225087  -0.1908705  13.0476272   1.5191886   1.0796253  13.6983907
  16.2828624  49.4877768  40.6648302  16.4241660  49.9457550  41.4933968
  16.1133254  50.1852274  40.0315428  84.2882925   2.6535350   0.4016476
  84.4809394   3.5791427   0.2520781  84.6153098   2.2112065  -0.3817005
  12.7062440  45.4523754  20.2019262  13.6099267  45.7675982  20.1869965
  12.1949530  46.1734533  19.8346961  38.8724470  10.2204359  53.5842752
  38.8289022   9.4007313  54.0766335  38.0291414  10.6428897  53.7473774
  30.5906153  81.9290733  29.4254112  30.0518322  81.3881874  30.0028038
  31.0542727  82.5221634  30.0165987  22.3629999  35.1354003  19.3344581
  21.4741850  35.4781342  19.2408061  22.5651550  34.7569275  18.4788144
  33.0673528   1.1655766  23.5875988  32.7670979   2.0387906  23.3354568
  34.0109658   1.1813066  23.4276605  23.7905121  81.5619755  40.1747465
  24.0923643  80.7332230  40.5465984  23.6266971  81.3651180  39.2524433
  78.1016064  59.0211678  22.4177003  77.7960682  59.4718266  21.6304374
  78.9416313  59.4335794  22.6189733  68.1182003  73.7586451  32.9197335
  68.4520149  73.1336832  33.5633373  68.4599972  74.6049738  33.2080579
  31.7696095   7.2016644  23.1995702  32.1585894   6.6952628  23.9126492
  32.4597096   7.2532582  22.5382590  61.4388514  28.6830592  11.5771365
  62.2133541  28.3720040  11.1084926  61.4869642  29.6368814  11.5127611
  84.2715740  66.6493082  60.9724522  84.3184662  65.7245636  61.2150955
  83.3361244  66.8519974  60.9808254  40.7011652   3.1556952  12.2058558
  40.6866360   4.0066653  12.6438868  40.7887840   2.5214988  12.9174387
  32.5653362  28.8584733  46.9919682  32.5156760  28.7879229  47.9452705
  32.5025678  29.7975826  46.8177080  71.0161209  57.4296427  65.0208187
  70.7778835  58.2367516  64.5646906  71.7028046  57.0417356  64.4783926
  39.8209739  33.0757737  68.1297016  39.3092775  33.6678839  67.5785208
  39.8776698  32.2657609  67.6228523  65.0838995  74.4977999  11.7403221
  64.6510744  73.7492418  11.3297677  64.6427774  75.2622890  11.3699114
  63.8267660  70.2897120  20.9761739  64.1517687  69.4436646  20.6682587
  64.6118975  70.7606173  21.2555480  62.5339699  53.3509493  64.0506697
  62.6027918  52.5359154  64.5478868  63.3932686  53.7620735  64.1445637
  80.5714512  57.0932674  46.4169931  81.2725163  57.7224302  46.2470055
  79.8788643  57.6113939  46.8270063  35.5604029  77.6210642  32.2544622
  36.1882377  76.9599771  31.9628787  36.0509276  78.1599665  32.8751063
  58.8237047  39.5699692  70.6672812  58.6282015  39.4667816  71.5986013
  59.7614622  39.3909264  70.5981255  68.9709616  58.7394714  63.0356216
  69.5367146  59.0255260  62.3184538  68.4818220  59.5243502  63.2824850
   8.0258715  34.5836186  40.1353168   7.3036867  34.5533419  39.5078135
   8.6704361  35.1642752  39.7308373  76.0268354  49.4655895  65.3627014
  76.8954659  49.6739817  65.0187731  75.7491207  48.6979961  64.8627996
  71.9157839  79.6458864  49.5658970  72.5261402  80.3487206  49.7888565
  71.7781115  79.7383070  48.6231709  62.3914003  44.5699263  69.3914652
  61.6914701  43.9267969  69.2786932  63.1613064  44.1570950  69.0002584
  19.1379619  21.5614557  34.6084809  19.7014940  21.2841129  35.3307986
  19.2934322  22.5027800  34.5312238  31.9666624   9.6139258   9.1318661
  31.1985350   9.0446848   9.1785157  32.5472617   9.2896372   9.8203224
  21.8856406  59.1727591   6.3986045  22.6133728  58.6976576   6.7997479
  21.1920762  58.5189152   6.3109154  33.4110069  16.8153286  20.5915880
  33.4428358  17.2690177  21.4338374  32.5329161  16.4358687  20.5569744
   8.5263520  27.5271130  29.7536659   9.0569866  27.0357513  29.1265917
   7.6538587  27.1395206  29.6846700  15.4422987  14.1487670  38.1528044
  15.9375560  14.4345260  38.9204574  14.8956442  14.9012840  37.9267073
  58.0200768  74.5549107  65.3477716  58.1430101  75.2105093  66.0342979
  57.0775270  74.3881893  65.3418159  41.7157793  14.2536521  43.7786770
  41.9665527  14.6620715  42.9501009  41.9026279  13.3232725  43.6533213
  84.2149629  66.3976234  71.6081504  83.4209146  66.4931196  72.1340804
  84.1718473  67.1157450  70.9767445  60.2477169  34.6905231  65.4728508
  59.3799305  34.5651841  65.0888348  60.3722525  33.9276481  66.0374260
  85.0482368  68.1589508  43.3833218  85.7072544  68.8452339  43.2787657
  85.0535297  67.6924610  42.5475025  46.3222027  34.7176981   4.1560805
  47.0605946  34.3630815   4.6513134  46.3694954  34.2774987   3.3074233
  77.1318245  59.0785265  61.9149446  76.5823412  58.5531473  62.4965572
  77.9693413  59.1464901  62.3733997  33.7672377  74.6235132  15.2287161
  33.3769321  75.4916954  15.3294492  34.6553898  74.7950459  14.9156761
  70.6739378  69.1142035  28.5179567  70.8883333  68.1891108  28.6382627
  71.2295341  69.5727587  29.1482544  36.9895267  23.3145189  19.2734349
  37.7592230  23.0548406  19.7797608  37.2684050  24.0971422  18.7980843
  64.3593216   7.5726420  69.0109777  63.9676714   8.4130776  69.2486954
  65.1251554   7.8052366  68.4859705  41.0881948  74.1881943  32.6222682
  41.2856388  74.6233177  33.4516764  41.1669970  73.2543373  32.8170133
  77.9960966  74.7780228  27.7247834  78.2085037  75.4961491  28.3209491
  77.2645807  74.3260431  28.1452966  27.6409841  21.3146067  63.5546303
  27.1873045  20.5427694  63.8932610  26.9706392  21.9976401  63.5363436
  82.0301247   5.2257150  60.7094336  82.2697258   4.3500340  61.0127544
  81.5835381   5.0766480  59.8760271  40.0033998  19.2094815  19.0530109
  40.8216524  18.8589454  19.4048977  39.7882652  19.9415267  19.6309876
  27.7827549  47.7783108  11.1778545  27.9668570  47.0607662  10.5716634
  27.6305962  47.3479843  12.0192206  62.8738213  47.7081347  35.8836460
  63.2371998  46.9420147  35.4395199  63.4731197  47.8691483  36.6124439
  39.4069982   0.9214920  13.7044084  38.8689542   1.4037113  14.3322635
  40.2888632   0.9464864  14.0757835  52.3149586  21.2408423  51.7991304
  53.1824350  21.6436934  51.7613983  52.4874878  20.2993655  51.7899370
  81.9229031  16.2831378  12.9971993  82.6469517  15.7990241  13.3942056
  81.1459160  15.9796417  13.4666884  25.5269480   2.6985124  34.9771523
  25.2222705   3.4458169  34.4624305  24.8613429   2.0247626  34.8383594
  83.8538837  62.6710701  12.7842033  83.3032703  63.1069279  12.1337509
  84.4497776  62.1279478  12.2683001  82.3969173  55.2523184  41.7938519
  81.9954109  55.8564234  42.4184179  82.5482273  54.4525766  42.2975922
  39.7936225   9.5275885   9.5461106  39.4714069  10.3977919   9.7809625
  39.1203165   8.9280301   9.8677033  66.1769772  55.9206963  18.9753973
  66.3187122  55.1308155  19.4971585  65.8918238  55.5956697  18.1214190
   4.5633018  64.0335417  48.9971066   5.3959632  63.7668610  48.6075020
   4.4760734  64.9583435  48.7661076  49.5343399  52.6992559  55.5453062
  48.6695910  52.6281548  55.9495211  50.0416756  53.2324791  56.1572838
  57.4989700  63.8114834  20.6289935  58.1824541  64.1389036  21.2136936
  57.9710436  63.3019495  19.9703944  60.1677895  73.3552456  21.8004704
  60.7042408  74.1099310  22.0431614  60.7555866  72.7975082  21.2908983
  29.3216729   1.9118321  66.5928555  29.4495368   1.6354658  65.6853819
  29.3263102   2.8682667  66.5548706  67.8818798  59.8051214  42.7840519
  67.7936983  60.4251337  43.5079575  66.9882154  59.6818781  42.4640512
  62.5244665  54.6649551  16.6000903  62.3073769  53.7358475  16.5234673
  62.2778225  54.8954678  17.4957824  46.1413574  60.2101612  56.5388966
  46.7226362  59.6792364  55.9944057  45.5017614  60.5712223  55.9250689
  32.0633292   2.5919354  68.5518551  32.1740413   1.9087654  69.2131042
  31.4105773   2.2374043  67.9481506   9.4123822  53.8908672   1.0930376
   8.7946212  53.4082222   1.6422708   9.7705793  54.5648050   1.6707365
  15.2653694  73.7843513  54.1577244  15.3387773  73.2745409  54.9645281
  16.0951829  73.6359310  53.7042761  83.6591625  51.3527966  29.4011831
  83.0646420  51.8020487  28.8003945  84.4703484  51.2503767  28.9034700
  31.2213945  13.1566048  45.5360842  30.8279490  12.3494911  45.8677483
  30.5129194  13.5907412  45.0608730  70.9284639  36.2104082   1.8955001
  70.1669455  36.7566180   1.7006236  70.8729458  36.0493350   2.8374156
  71.7560482  13.8101494  49.3551064  70.8188677  13.7388372  49.5363379
  71.8772364  14.7169518  49.0735865   2.6372185  47.6539421   3.1852275
   3.2919246  47.6368570   3.8832963   2.0413113  48.3608627   3.4329987
  26.1659956   6.3857347  69.6623516  25.7274270   7.0191115  70.2304411
  26.6555858   6.9220841  69.0387630  68.3016729  31.7391610  69.7611570
  67.8967857  31.8196392  68.8975477  68.2385921  32.6168013  70.1379871
   8.4784740  27.7913880   2.6628870   8.3769697  27.1066713   3.3240157
   8.1822479  28.5906410   3.0984050  83.8475132  66.1404800  24.3678069
  84.7698498  66.3669586  24.2485595  83.3841515  66.6762972  23.7240458
  74.0178108  80.3068256  45.8416319  73.3063221  80.0762844  45.2442503
  74.0424633  81.2635994  45.8268023  11.3779891  69.2690802  64.5420408
  12.1133387  69.3042850  65.1538038  11.4558673  70.0724173  64.0274429
  73.2089806  75.9327745  34.1277909  72.9853392  76.2436867  35.0050306
  73.4969521  76.7176580  33.6616802  75.3417206  56.3794279  27.2686076
  74.5263386  56.0429430  27.6403046  75.0964117  57.2140026  26.8691874
  49.6381474  75.6517458  16.3631392  48.9885950  75.1921225  15.8311069
  49.8196173  75.0542927  17.0886385  49.7542906  66.1970663   7.8522265
  50.4221106  65.8316517   7.2719491  49.4438553  65.4483986   8.3615005
  67.0247841  10.8933735  56.5679073  67.6747751  10.2045894  56.7068911
  67.2680950  11.2867379  55.7298803   6.6372675  68.9430857   0.6043259
   7.0392370  68.7352610  -0.2391554   6.7375606  69.8911238   0.6903364
   6.1715579  56.1039543   8.6970252   7.0430505  56.3306141   9.0216124
   6.3361430  55.5208206   7.9560143  67.1144247  72.0170355  53.9097595
  67.8262901  72.6011992  53.6485481  67.0366716  71.3956261  53.1858540
   7.0106089  82.4879646  68.6083221   7.9220659  82.7577114  68.7210894
   6.5753376  82.7729225  69.4117975  69.6949720  44.0748405   9.0966868
  69.4471025  44.5976400   8.3341420  69.3598080  43.1988144   8.9056855
  58.3527613  39.5160651   0.5973436  57.4621248  39.3385077   0.8997842
  58.2503796  39.7490597  -0.3254040  70.1419258  42.5089455  28.3293128
  69.4647217  42.8427267  27.7409101  70.8204126  43.1840897  28.3210564
   2.2474907  34.9065709   3.0540463   1.6537997  34.1825056   3.2527754
   2.2735900  34.9393368   2.0977633  37.8179383  22.5527382  62.0971107
  37.5200272  21.8084168  61.5741682  37.9145885  22.2004628  62.9818630
  23.3362508  68.2672024  68.4164476  23.0281997  68.1755352  67.5148201
  22.7834105  68.9536428  68.7898111  32.5797677  15.8176899  28.6950636
  32.2391367  15.2343464  29.3732333  31.8108797  16.2921131  28.3788919
  32.0565557  51.9364738  68.8248205  31.7908382  52.0780182  67.9161978
  32.4220562  51.0518360  68.8324451  11.5180051  77.7984428  60.5038595
  11.6524935  78.6312866  60.9560966  11.4506769  78.0361938  59.5791006
  67.3869038  46.0438204  24.8549056  67.2364140  46.9296646  24.5249605
  66.5458918  45.6005716  24.7432852  49.6021175  47.9792547   7.8440487
  50.2865934  47.5120974   8.3231050  48.9512968  48.1997633   8.5104084
  53.0702639  42.9706097  53.6605024  52.9703188  42.3331738  52.9534531
  53.9780474  43.2659435  53.5901737  42.9013968  37.4850106  55.5191994
  43.4236193  37.1095514  54.8102951  43.4839153  37.4719596  56.2786293
  58.2453203   3.4825197  59.6316195  57.3861122   3.0967933  59.4607115
  58.8593102   2.7557200  59.5266771  32.0003295   6.5568346  25.8945942
  32.1060348   6.3402331  26.8209553  31.3848996   7.2899401  25.8887482
  63.8886929  49.1973114  51.7686701  64.1278076  49.7836733  51.0508728
  64.7258902  48.9240217  52.1437073  20.4453468  59.3675232  21.6038036
  21.2572551  59.1961527  22.0809484  19.9538898  59.9602509  22.1724653
  41.3437319   5.9746134  65.9662390  41.1576605   5.6750482  65.0763655
  40.4927921   5.9665960  66.4045000  68.9925861  22.4491954  21.2602806
  69.5146608  22.2923493  20.4734707  69.5547771  22.9875278  21.8173838
  75.6392956  71.8922520  15.8797622  75.8831358  70.9841537  15.7005167
  74.6846771  71.8749380  15.9478855  70.1788712  51.1512709  59.4644976
  69.7356939  50.3592348  59.1603565  70.4391146  51.6033077  58.6618948
  47.8639078  78.4420252  58.6576605  47.1289539  79.0501404  58.5784769
  48.0346632  78.1546068  57.7607393  49.6532011  77.9972458  43.9548635
  50.0723696  77.4725199  43.2728148  50.3573370  78.1932735  44.5729256
  65.3954411  56.3403273  66.2289286  66.3242817  56.5669537  66.1828327
  64.9685955  56.9572115  65.6343842  34.6485853  24.4460964  58.6368036
  34.6553493  24.5114636  59.5917463  33.7533307  24.6753120  58.3873796
  16.0894477  82.3992729  60.8860111  16.3701141  81.4952278  60.7440186
  16.8190205  82.9296875  60.5656672  10.8451843  71.5658712  60.9551764
  10.2213848  72.2277689  61.2535048  10.3721285  70.7375956  61.0352230
   7.0399320  51.8976116   1.5649523   7.2982186  52.0345592   0.6534888
   6.1435324  51.5660048   1.5126418  32.1023798  36.7601991  32.2296500
  31.4405704  36.8384790  32.9167557  31.5985227  36.6525745  31.4229441
  32.7730680  47.5280285  11.1007047  33.0330324  48.4146786  10.8507025
  33.3696747  46.9578075  10.6157935  13.7014318   6.4634705  16.0096419
  13.6630523   7.3881322  16.2541008  13.3340466   6.4338291  15.1262498
  80.5703640  71.4966917  23.0605769  80.4116440  70.5615616  23.1892848
  80.7896614  71.8246698  23.9326859  79.3550205  71.3473606  16.3943863
  78.4777308  71.5664959  16.7083502  79.2896175  71.4050293  15.4411674
   2.5821185  69.1196918  22.5588489   2.8177631  68.5393715  23.2826805
   1.9555181  68.6143351  22.0409489  56.5663052  41.5548277   4.1836232
  57.1654224  41.1705875   4.8236620  57.1379852  41.9944477   3.5542208
  42.4960804   9.7247058  60.1631546  42.3708391  10.5542529  60.6240177
  43.3728266   9.4384271  60.4192495  11.5368724  65.6455278  52.6196003
  11.4333427  65.2826643  51.7399168  10.6777418  65.5349970  53.0269241
  82.5936794  13.7190020  35.1439667  83.3955002  13.9047003  34.6552682
  82.1597576  13.0308199  34.6396399  72.6390076  27.5210619  40.1723051
  73.4211588  26.9701266  40.1416111  72.9297352  28.3686829  39.8357868
  10.6142735  49.5463037  33.5015416  10.5450165  50.3404760  34.0313745
  11.5448272  49.4821501  33.2866359  67.3897314  46.4303780  70.2636385
  68.2171822  46.6331339  69.8272419  67.3915100  46.9796562  71.0475540
  20.0594234  27.4061465   2.6741722  20.0815988  27.4526024   1.7183575
  20.0781584  28.3198333   2.9588762  83.1397152  58.2182789   8.0861694
  83.0926037  59.1419744   8.3327335  83.5509872  58.2217741   7.2218317
  60.9515047  29.1509271  68.5146141  60.7196808  28.7734723  67.6660728
  60.3833914  29.9166250  68.5994005  75.2581930  28.0782461  59.0294504
  75.0904655  27.4327707  59.7160816  75.7832527  27.6080441  58.3817959
  31.6139412  82.4016094   5.4866600  32.0444012  81.6824532   5.9489840
  32.1944380  83.1515026   5.6167632   3.8957354   8.1953633  34.7968292
   4.4146734   7.5568891  34.3076611   2.9919428   8.0211830  34.5340514
  62.0114136  55.2422762  29.4109893  61.4326143  55.2177143  28.6490059
  61.9682837  54.3572807  29.7731495  58.7659931  10.1051879  66.1516428
  58.8366127  10.8789694  66.7106676  58.6732006  10.4569995  65.2662897
  13.2303286  49.1074800  14.6217668  13.9877689  48.6291838  14.9590325
  13.3406210  49.0911055  13.6710835  72.6051235  43.9679623  28.7667108
  72.8419304  44.8390579  28.4483671  72.7070332  44.0242815  29.7168016
  23.9169860  50.0007391   8.6050618  23.7427759  50.5849886   9.3429875
  23.1437635  49.4385624   8.5569352  64.7588873  13.8924050  65.9153652
  65.5128956  13.4597921  66.3160515  64.0018702  13.5270202  66.3732481
  72.5156689  31.7530489  62.9317951  71.7785406  32.3315501  62.7363300
  73.2061768  32.3404217  63.2390881  66.6306829  75.2519274  16.6174793
  67.5503397  75.5160379  16.6441357  66.4353418  75.1581907  15.6851244
  24.9249578   6.8172807  28.9024091  24.4136715   6.7906338  29.7111773
  25.6164193   6.1687326  29.0347004   7.5745422  10.3092206  34.6926618
   8.3524746   9.7522873  34.6630263   7.1307343  10.0578511  35.5026507
   5.0354844   4.1854480   3.3252403   4.7833931   3.6008179   4.0400055
   5.9243155   4.4639656   3.5457820  50.8611917  53.8825560  34.7538972
  50.8603954  54.8168182  34.9621916  51.7741585  53.6146307  34.8584628
  36.4430547  21.1389971  66.8922853  36.2577748  20.3843904  66.3332939
  35.5809140  21.4938402  67.1091604  41.5844488  11.0870111  64.5899582
  42.2813749  10.5233288  64.2541170  40.9907579  10.4891098  65.0441360
  52.1910954  58.7499571  40.7817602  52.3736191  57.8673792  40.4593134
  51.3649559  58.9918089  40.3631449  31.4880896  62.4908972  12.2278583
  32.3474216  62.7441645  11.8907583  31.3956094  61.5707445  11.9808841
  15.8145595  66.2948656  31.1002350  16.2048697  67.1667957  31.1604953
  15.6704319  66.1611938  30.1634359  81.6033173  30.3860831  54.2221498
  81.4660072  29.4634295  54.0074682  80.7261944  30.7222939  54.4061279
  84.8465729  82.2352028  16.6076767  85.1375866  82.9057980  17.2256160
  85.4915524  81.5332985  16.6946411  65.2283478  40.9704971  64.8972034
  64.2805243  40.9570789  65.0301790  65.5148935  40.0864029  65.1263332
  81.4516640  75.1185322   0.4264416  82.3257923  74.7635317   0.5880129
  81.5769958  76.0674143   0.4142817  16.1654091  54.6789122  27.9623580
  15.2463281  54.4309807  28.0626082  16.2955761  54.7383928  27.0159173
  55.8024454  58.2977009  30.0756621  55.2825165  59.1011763  30.0939989
  55.2079678  57.6203203  30.3981233  70.8062267  52.5714254  39.1143441
  71.7537594  52.6135540  38.9853430  70.4797506  53.4003115  38.7642145
  60.3791618  28.1236911  66.0194302  60.5339527  28.9548159  65.5705404
  61.0752583  27.5475883  65.7035303  32.9041529  67.6905203  57.5940895
  32.6454329  67.8580379  58.5003090  32.2986722  68.2159853  57.0711088
  80.1289749  26.5080667  38.3624601  80.5643082  26.3495755  39.2000723
  79.7598124  27.3871613  38.4469604  83.2743359  77.4832439  46.1567545
  83.0292511  77.3783970  47.0760870  82.5613785  77.9958487  45.7757711
  50.0941563  17.7155769  44.4134521  49.6270847  16.8809903  44.4527054
  49.4982529  18.3018434  43.9471674  21.4345121  50.0998354  45.3366184
  21.4987373  50.0353956  46.2894821  21.9278407  49.3465948  45.0118256
  39.2424393  39.7166276  62.9023361  39.2161679  39.4342828  63.8165712
  40.1623058  39.6314311  62.6516914  85.0127125  47.9448843  56.3118553
  85.6282139  47.5259495  56.9134235  85.1829338  47.5287867  55.4668045
  71.9465637  61.1198902   9.3320137  72.3254299  60.2546549   9.1769081
  71.5194035  61.3459349   8.5057735  35.4973078  37.2112656  58.2810020
  36.3936329  37.3524952  57.9762268  35.2515244  36.3610339  57.9164076
  69.0932369  59.0798950  17.2278631  68.9187479  59.9288893  16.8216717
  69.7624588  58.6812496  16.6715765  59.5258522   3.2747096  62.3233747
  60.1803064   3.9655590  62.4265623  58.9276743   3.6093238  61.6552067
  10.3177226  67.3828602  37.3168945   9.3861216  67.3905325  37.5366521
  10.4590404  68.2030630  36.8441010  76.9311953  18.4423435  69.1133785
  77.1552896  17.5511348  69.3812609  76.2351513  18.7055409  69.7154427
  12.5753999  69.5976925  28.8831091  12.1858144  69.0034962  28.2417130
  11.8974972  70.2539587  29.0443397  52.6560783  27.8589988  55.3652716
  51.8693352  27.3228550  55.4643583  53.1966019  27.3776674  54.7388601
   9.6700811  78.6500168  12.9575861   9.9568760  79.3488407  13.5454869
   9.5085573  79.0902519  12.1231198  83.9363194  39.8035598  48.7120962
  83.7452698  40.7412100  48.6888695  84.7241783  39.7063375  48.1772566
  63.6135912  19.0503883  61.5844631  64.3874407  19.5994818  61.4584064
  63.6403131  18.4283054  60.8574581   2.1524681  41.0546875   7.7697951
   2.7600762  40.4283047   8.1631017   2.6738849  41.8474865   7.6439792
  83.4490395  32.3030305  69.2511034  82.6660824  32.5189996  68.7445784
  83.5698891  31.3631272  69.1161633  10.4201615  43.9846611  11.8148422
  10.0098062  44.8196268  11.5897322  10.9052277  43.7363195  11.0279059
  14.2923820  56.6140556  11.2200034  14.3309569  57.5392532  10.9776103
  13.9891636  56.1712503  10.4274046  80.1659966  21.3077950  20.0915504
  80.1440334  20.4787421  20.5694818  80.5310345  21.0815167  19.2361104
  70.5991125  33.1950498  64.8834896  70.5065393  34.1474199  64.8579836
  71.3492775  33.0426288  65.4581642  34.8495221  81.9161510  26.4023209
  35.1119018  81.4057064  27.1683693  35.6421089  81.9715691  25.8684993
   1.1148305  42.0866156  22.5885916   0.9640048  41.2025213  22.2541332
   1.9298992  42.3648930  22.1709132  36.7444229  15.7916474  54.9472809
  37.0734262  15.7760334  55.8460283  37.5315452  15.7603419  54.4035053
  53.6826992  29.1012001   0.6580368  53.5796452  29.8545170   1.2395187
  54.6067524  29.1157103   0.4087386  27.0304155  59.2075539  52.4828768
  27.8727603  58.9955902  52.8850651  26.4197016  58.5727024  52.8573418
  24.7594881  56.6199827   5.6004596  24.3162417  57.2039080   4.9849954
  25.6068492  56.4409399   5.1928389  82.2410107  31.4342427  26.8091011
  82.6521492  30.7313871  26.3059235  81.6811180  30.9814286  27.4397469
  25.1388669  79.6480608  33.6148357  25.1328611  80.5688858  33.8761425
  24.4046950  79.2593527  34.0903664  56.9357967  52.2087812  32.5088501
  56.1343527  52.4070978  32.9931951  56.6406584  51.6934013  31.7581773
  12.8771031   3.0352312   8.3049148  12.6958025   3.4668666   7.4700177
  12.4386668   2.1871209   8.2362539  67.1778059  52.1013308  67.3258257
  68.0981779  51.8568277  67.2290373  66.7181492  51.5641546  66.6805458
  74.1357708   9.9964857  14.4407248  75.0126505  10.3513861  14.2945766
  74.2037678   9.5242023  15.2705181  17.7383912   9.5127809  40.3876257
  18.6726284   9.6563852  40.5386591  17.6583326   8.5669547  40.2641916
  50.2546406  70.6065369  37.1338654  49.5925951  70.0894260  36.6750383
  50.0595093  71.5124464  36.8941069  84.1574097  69.3555927  55.7237339
  84.7551060  68.7121677  56.1045265  83.6265087  68.8530445  55.1058197
  40.4349089  13.9164603  23.6269569  39.7660136  14.3093812  23.0662227
  40.6882095  13.1137562  23.1711769  32.5414109  52.6785946   4.5317277
  32.8363752  52.3663759   5.3871512  32.1099663  51.9212627   4.1360766
  77.5869560  64.0466785  11.3596559  76.9661999  63.3416319  11.5435183
  78.2978439  63.9092207  11.9857335  85.9633636  59.1130495  13.3707964
  85.6759071  59.8181868  12.7908099  85.4208946  59.2104769  14.1533959
  26.3432765  82.6620960  29.1887879  26.8287563  81.9886684  28.7123156
  26.9075823  83.4344578  29.1532898  58.5514450  28.9510131  58.5368776
  58.6489773  28.3140755  57.8290415  57.7291155  28.7106371  58.9637566
  18.2991374  10.8598614  50.4981136  17.7537978  10.1751411  50.1108265
  17.7109659  11.3279378  51.0907269   2.3836145   2.5629756  10.8270693
   1.8243155   3.2117712  10.3998923   3.0340853   2.3334049  10.1634300
  16.1458158  10.2252650  12.6744986  16.8814588   9.9701101  13.2312369
  15.6976068   9.4026446  12.4779344  13.2175112  20.9666705   6.9903427
  12.8233719  21.0309362   6.1204255  12.8728497  21.7225170   7.4658811
  47.9890394   9.9148804  70.3913927  48.7888336   9.4638854  70.1209021
  47.4077463   9.2145604  70.6878376   5.9895027  78.5298109   6.7693669
   6.4847869  77.8831577   7.2721201   5.0888890  78.4358025   7.0796716
  73.7923717   6.7039561  51.8797874  74.5248461   7.2689945  52.1256351
  73.0153990   7.1731913  52.1836996  39.7370553   3.4712073  41.5244484
  40.0756979   2.9430944  42.2473955  40.1377678   4.3316448  41.6481781
  73.4926891  63.5487318  11.7060232  74.2921448  63.0428267  11.5605533
  73.0359983  63.0794525  12.4041951  46.3397074  35.0701284  59.9732733
  46.0178185  34.2365003  60.3163195  47.2929955  34.9875355  59.9987507
  82.7263355  60.0459146  13.6957550  83.1567287  60.8200645  13.3328688
  81.9017029  59.9823618  13.2139063  19.6139252  61.4765787  22.9943490
  20.0962257  62.3023033  23.0367565  19.3160093  61.3268614  23.8916016
  72.8833914  52.8863573  44.7976494  72.0978165  52.7075148  44.2808104
  73.0762768  52.0570564  45.2350092  58.6502171  29.7060037  62.9734230
  59.3427515  29.7974420  63.6278391  57.8656435  29.5010090  63.4820080
  19.8229694  42.5736332  21.0524082  20.0410199  42.4853849  20.1245618
  20.0590920  43.4755611  21.2692046  15.4146481  59.2857981   8.9189893
  16.0074389  59.4687223   9.6479404  15.9049213  58.6865616   8.3561593
  71.7429972  68.3479500  20.9373546  71.6250181  69.1959238  21.3654375
  72.6454544  68.1010962  21.1395025  70.3207588  15.3408921  70.3701115
  70.8207273  14.7380042  70.9203768  69.5912027  14.8158181  70.0410557
  43.9340687   7.7740020   8.4563839  44.7098732   7.4444866   8.0027521
  43.3085823   7.9608703   7.7563268  65.0824499  67.1144104  26.6148663
  64.3949270  67.7802992  26.6033697  65.6997108  67.4189186  27.2800708
   3.0081046  58.5905123  14.5704341   2.4830242  57.7902842  14.5828044
   2.3680843  59.2954445  14.4720399  18.8264203  54.6989346  36.8908381
  18.9261794  53.7630892  36.7162871  18.1165385  54.7488403  37.5310040
  67.2200155  40.6951427  55.6436586  67.3938322  39.8201942  55.9907579
  67.3248577  41.2767220  56.3966560  80.5124950  64.6916580   4.9880156
  80.8043766  65.2630138   4.2776707  80.1135254  65.2851963   5.6242251
   4.2149389  78.5190392  11.8555057   3.8488951  79.0944910  12.5271451
   3.8717157  77.6516771  12.0702481  31.5394759  76.4191151  37.3122573
  31.0131955  75.6202555  37.2793841  30.9507608  77.1067429  37.0011044
  85.0035763  72.0569468   2.9396889  84.3817711  71.4000034   3.2527581
  85.6825924  72.0844841   3.6137933  76.1063719  46.7357922  51.7480516
  75.3557825  46.8515348  52.3306704  76.2735081  47.6101351  51.3961744
  47.1121502  14.2083120  59.8928452  47.0490980  14.3554533  58.9491224
  46.2040377  14.2012990  60.1953554  18.3467782  79.3698120  32.3914456
  17.5256479  79.7748280  32.1122670  18.7386298  79.0406227  31.5825462
  36.5032411  55.4362249   8.2324290  36.6915107  56.3704014   8.3224463
  35.5679154  55.3610897   8.4215206  85.8898067  22.7893543  64.0313768
  85.3183842  23.5521889  64.1196346  86.3943386  22.9587936  63.2357788
  41.3497114  12.6591945  62.3883247  42.2760296  12.7622509  62.1702766
  41.3507938  12.1895266  63.2223749  83.0197525  69.2393875  20.4312992
  83.0527306  68.3423090  20.0990534  82.7090836  69.7583103  19.6893835
  17.3145378   6.8250722   6.4903241  16.4481306   6.5872294   6.1601710
  17.3492885   6.4443034   7.3678434  10.0823998  76.6085148  19.0245926
   9.9434721  77.4778223  19.4004059  10.1861370  76.7669964  18.0863202
  12.7368665  30.4224372   6.6898704  11.9019639  30.0169992   6.9239414
  13.2358551  29.7198224   6.2732470  63.0303955  23.2206535  67.1088123
  63.0778646  22.3540425  67.5125027  63.0239439  23.0464172  66.1676264
  77.0512486  22.8285027  30.3759766  77.8809404  22.7684069  29.9024415
  77.0018101  23.7420106  30.6575632  50.4944229  37.5929308  70.2884007
  50.9470463  38.3589315  69.9354029  50.3759289  37.7916741  71.2172079
  50.7454157  21.2475991  11.2466240  50.0784159  21.3379049  10.5660427
  51.5503216  21.5642905  10.8366656  37.6271677  34.3531322  13.1103981
  36.6968322  34.2563319  13.3137119  37.6509476  34.5105433  12.1665287
   9.1732067  64.4033289  27.5552917   9.5412636  64.8739004  28.3031726
   9.0626353  63.5054684  27.8681040  45.1787186   4.5885772  55.8592081
  45.9870100   4.2905813  55.4419613  44.5623016   4.6994695  55.1353550
  84.2271805  31.4699531  22.4610281  84.5713139  31.8571615  21.6561246
  84.9309063  30.9010696  22.7730727  84.7435284  54.5310783  26.5396953
  85.3296661  54.0153217  25.9859085  83.8641834  54.2745113  26.2619185
   7.9087138  81.0490513   4.1013369   8.4815753  81.6480350   3.6225098
   7.1752238  80.8923912   3.5066244  86.7233562  51.5767002  35.0920153
  86.2155247  50.8426142  34.7463942  86.0671520  52.2341013  35.3232241
  77.9008293  48.7156534  62.5033951  78.1453037  49.3566847  61.8359041
  77.8403378  47.8867054  62.0286179  39.0149522   0.1307417   8.8166612
  39.7977614   0.6634865   8.6765665  39.2718196  -0.7493664   8.5415953
  76.1702585  72.3364258   4.6329051  75.5665970  72.3666716   3.8906723
  76.8783903  71.7616129   4.3424347  38.6200547  75.6659746   6.1892998
  39.0189409  76.2307501   6.8512297  38.7103081  74.7812748   6.5434051
   9.0642750  61.1303425   3.9969021   8.1583595  60.9346628   3.7576130
   9.3207550  61.8378687   3.4054193   5.4344982  36.3692236   8.6144871
   5.6218737  36.2670851   7.6813793   4.4902650  36.2293720   8.6858815
  80.7399368  50.4421473  24.0306950  80.6871891  51.3943195  23.9481282
  79.9941349  50.1163626  23.5268331  33.0362105  64.5117378  47.2956562
  32.9633522  65.1489496  46.5851021  32.2367907  64.6320629  47.8081799
  67.0785713  57.7878284  56.6173458  67.8904819  57.7001333  57.1166849
  67.3475313  57.6907921  55.7038498  45.1669502  63.5399389   4.7452027
  45.7191944  62.8858280   4.3169519  44.3025589  63.4176683   4.3526334
   8.9963615  48.1657839  19.9075234   9.4683528  47.4499989  19.4819546
   9.5426697  48.4002876  20.6577134  55.4548883  20.8080459  54.1290903
  54.5973206  20.4704714  54.3876457  55.5015278  21.6759062  54.5301819
  16.3498628  52.3163843  34.7065330  15.7611156  52.9462337  34.2907262
  17.2235084  52.5757599  34.4137883  19.5930600   7.2764927  22.4105883
  20.0586128   7.0451915  23.2143235  18.8810396   7.8461468  22.7017093
  20.9679270  24.4933701  21.0104322  21.3835025  24.8080444  20.2076197
  21.3335872  23.6186695  21.1424375  40.7853842  30.1865029   4.2550609
  40.2665710  30.8529115   4.7055793  41.6703081  30.5503106   4.2271021
  28.8519883  82.2545433  14.0877211  27.9435873  82.0274734  14.2864120
  28.8230491  82.5988483  13.1950581  82.2228909  54.3732882  64.2563963
  83.1359577  54.5469856  64.0275478  81.7259026  54.6530485  63.4876490
  16.7355072  19.8582852  70.6948757  17.5091648  19.3225896  70.5196142
  16.3473129  19.4692218  71.4785624  45.4444504   5.1294428  23.4946275
  44.6498203   5.5376577  23.8383627  46.1398029   5.7579744  23.6887074
  77.6725101  47.9093504  68.7250900  78.0786228  47.4346066  67.9998875
  78.3611870  47.9701090  69.3871069  38.6426377  25.4936314   5.7667595
  38.8341165  25.8917809   4.9176162  39.3966842  25.7180309   6.3120031
  14.6501791  38.5120130  10.0484812  15.5723834  38.7531328  10.1358521
  14.6568918  37.7411008   9.4811350  70.6060457  59.8727942  61.1160946
  70.9071732  59.9034929  60.2080154  71.3443899  59.5040035  61.6009378
  27.6724482   6.4664304  64.3254519  27.5025058   5.8269799  63.6337519
  28.2252574   7.1279675  63.9095163  64.9257755  82.4415970  14.7289515
  64.7269249  82.1646023  15.6233597  64.1475105  82.9232979  14.4487739
  17.7631474  21.5603805   7.4536037  17.0626569  21.3153505   8.0581748
  18.5315013  21.0871553   7.7728540  54.8302889  30.3694081  56.8788719
  53.9755964  30.7165909  57.1342182  55.3495741  31.1445951  56.6651917
  67.4142027  39.2310905  68.1953669  66.5671110  39.4081688  67.7863359
  67.3629761  39.6620512  69.0485287  52.7463341   6.9270146   8.4602416
  53.0406809   6.0318285   8.2922113  51.8510818   6.8279457   8.7841868
  44.0568686  20.3162718  68.0934429  44.8839712  20.0042319  67.7263355
  43.3836412  19.8970819  67.5574589  84.7305870  47.1902370  49.0713596
  85.0446701  46.8543100  49.9108458  85.5266953  47.3517513  48.5650396
  70.0430822  61.3984203  44.2230558  69.9533033  62.1635199  43.6549044
  70.9797907  61.2016439  44.2135620  84.0526485  62.8034973  44.3721390
  84.1233921  63.0520105  43.4504700  83.4291267  63.4287453  44.7416162
  68.5873747  63.0258799  40.4869604  69.2881775  62.6627207  39.9454618
  68.0061865  62.2842455  40.6555557  23.4954667  32.9694223  64.2593908
  23.5632563  32.1481991  64.7464514  22.6426315  33.3257747  64.5082188
  39.8311377  68.6140060  54.1045904  40.4492903  68.3342981  53.4293985
  40.3730202  68.7588978  54.8802185  18.2420135  80.8149052   8.4043825
  17.6711047  80.0846767   8.6432636  19.0591526  80.6430912   8.8723528
  72.5242662   1.8042545  57.7247238  71.7642260   2.2075959  58.1441116
  72.1558189   1.1111394  57.1769381  66.1035824  80.3708363  59.8699522
  65.8324766  81.2193489  60.2203321  66.0991573  79.7862530  60.6278896
  73.8722992  45.9436893   3.6626309  73.2123423  46.4404726   4.1462612
  73.3975506  45.5783081   2.9160753  20.2258968  10.9040320  23.9864683
  19.5409620  10.3341055  24.3361592  20.7775760  10.3223753  23.4634399
  57.9769802  65.5443430  70.0180149  57.0585966  65.7974625  69.9245453
  58.4663439  66.2735319  69.6371698  33.1112766  41.3332796  20.7623291
  33.9491630  41.0445786  21.1240363  32.4682140  40.7322168  21.1383963
  43.8799191  26.2181139  69.0490723  43.8066769  26.7129397  69.8651695
  43.0971479  26.4573765  68.5528278  63.5361242  12.3713338   2.9609007
  64.1610003  12.6494658   2.2912681  62.6856375  12.6592112   2.6291972
  22.8873348   9.1708082  25.1780558  22.4684930   9.1190487  24.3189144
  23.6647367   8.6179388  25.0992179  39.8436761  17.2411215  21.3899088
  39.0381789  17.7417362  21.2603331  39.5691466  16.4697981  21.8858171
  68.9637709  44.4771767  65.4276657  69.7835922  44.7896719  65.8103848
  68.3977938  44.3063831  66.1804819  83.0539894  63.1934881  65.1789236
  83.1594658  64.1423702  65.2477074  82.6637173  62.9347420  66.0137653
  18.9105582  67.2345352  30.0639534  19.7619665  67.4195862  30.4603004
  18.2876480  67.7370977  30.5889726  60.2345085  46.7382050  57.0628691
  59.9174976  45.9418917  56.6366959  60.6700802  46.4278603  57.8567123
   1.2486928  72.6822901  17.3769093   1.5963033  73.1460762  16.6151357
   0.3010520  72.6767731  17.2420824  32.9319119  13.3167505  11.2017465
  32.6653504  13.3095360  10.2824402  33.8830614  13.2123947  11.1761546
   1.2092794  63.7353373  49.0167856   2.1382588  63.6805344  48.7926722
   0.9305336  64.5854521  48.6764383  33.5259938   5.3061450  14.6091187
  33.4775662   4.5590028  15.2054954  33.4681249   4.9193761  13.7354517
  86.3960361  76.3795614  11.0937977  85.7151127  75.7232618  10.9460342
  86.7763901  76.5291405  10.2282381  60.5947447  79.9720955   5.6050640
  60.5324411  79.9956036   4.6501830  60.3498554  79.0768337   5.8390921
  73.9986992  80.3569508  11.9799745  73.5763931  81.2096882  11.8763673
  74.8425579  80.4523468  11.5383506   8.1150258  35.8717060  45.4266882
   7.3838812  36.4510965  45.6410837   8.1885332  35.9214449  44.4736099
  11.6786611  61.1310291  24.0736461  11.6444528  61.5610838  24.9281144
  10.7616735  61.0386181  23.8151383  42.1636391  41.2289143  56.4898300
  41.8631506  40.7205486  57.2431564  42.2445059  42.1232510  56.8212748
  41.7903757  29.8175383  13.8224542  41.4018393  30.3898335  13.1608260
  42.7334738  29.8845577  13.6731100  82.8379345  22.8997183  69.2310381
  83.5610676  22.2726560  69.2416859  82.2004032  22.5198555  68.6264849
  70.2185869  21.5327883  61.7256021  70.0166178  21.5287757  60.7899618
  71.1701012  21.4366484  61.7656517  11.1982310  52.3886395  14.2446947
  11.1459601  53.2494974  13.8294554  12.1148062  52.1307182  14.1467249
  73.4690952  53.9653349  70.7576656  73.6672640  53.1159306  70.3633547
  72.7274513  53.7929344  71.3377380  13.5721743  12.8175986  47.5814581
  12.9068565  12.5529075  46.9462252  13.7791836  12.0148849  48.0600309
  15.1724946  79.8169661  17.7588820  15.9447813  79.5292425  18.2457292
  15.4466689  79.7982359  16.8419802  80.7813072  72.4113035   6.4583623
  80.0417233  72.7946091   6.9298697  80.5697823  72.5420761   5.5340320
  42.9447556  38.2205725  64.5842743  43.2759619  37.3459411  64.3804264
  42.2860479  38.3902168  63.9108038  38.4305477  17.1638787   7.2407609
  38.6430955  17.7369380   6.5041077  38.1547403  17.7605510   7.9365659
   6.5199780  52.1336126  59.8915815   6.7801023  51.5250826  60.5831432
   6.5352875  52.9937935  60.3112125  52.6540232   3.7305218  70.2326584
  52.4719810   4.5774555  70.6398392  53.6033201   3.6300096  70.3030825
   1.1227113  71.3801575  23.8510418   1.2688854  70.6875944  23.2066655
   1.8627581  71.3066816  24.4536734  37.3943281  75.9914255  11.5592098
  37.8794098  76.7157412  11.9545555  37.9870844  75.6407738  10.8944428
  18.3690012  33.1913948  19.6023846  17.6244688  32.9485917  19.0519762
  18.0055130  33.2468271  20.4861474  25.7082605  24.3242860  38.8514352
  25.8062744  24.7902489  38.0210710  25.7379413  23.3981633  38.6113358
  81.8360329  72.6021051  25.6034565  81.5933323  73.3497763  25.0572705
  81.0047150  72.2804642  25.9523058  80.5555630  48.7909365  38.6026025
  80.5755424  49.7166204  38.3598185  79.9416161  48.7488174  39.3357682
  12.2870016  62.1553755   2.6953804  11.6079402  62.5234985   3.2607055
  12.0054698  61.2540531   2.5385851  63.2845926  17.5177503  64.9807358
  62.6225853  18.0237913  64.5096684  64.0801477  18.0462170  64.9171066
  56.6554213  61.2375927  22.4513078  56.8187332  62.0101023  21.9102049
  56.5177107  61.5867186  23.3318639   7.8186446  82.6717091  15.6295145
   8.5893923  82.6071262  16.1934376   7.1263045  82.2267151  16.1182666
  68.9120054  71.1695051  44.1488266  68.3622694  70.6866312  43.5316896
  68.8138247  70.6984901  44.9763155  24.5392323  46.1651611   6.1112195
  24.9494863  46.5374470   6.8918145  25.1204872  46.4149475   5.3929019
   3.3758867  68.9839888  17.9790854   3.4413126  68.0346918  17.8752339
   3.0704898  69.1061068  18.8780034  16.0295093   9.1966498  71.2040186
  15.8607054   9.0927970  72.1404791  16.7377877   9.8388845  71.1580992
  86.7437172  72.7414989  15.5128181  86.1106586  73.3955574  15.2166998
  86.2070274  72.0230246  15.8474576  10.9546709  22.1456409  17.3087156
  11.2146974  22.4356771  16.4343596  10.1173663  21.7016029  17.1746182
  75.6305885  44.4510889  33.5811496  75.2867556  43.8790417  34.2672753
  75.8467674  43.8584471  32.8612375  72.1819592  78.9222765  13.8197970
  72.8305864  79.1982889  13.1722391  71.6180325  78.3095360  13.3478093
  31.5435314  17.3153269  37.3770475  30.9306574  17.5148630  38.0847216
  30.9898424  17.0016801  36.6620040   5.9631974  74.1102791  42.7041864
   6.1955190  73.2515526  43.0575228   6.3984358  74.1445065  41.8523502
   9.7353625  16.9266021   3.1958467  10.6040871  17.2244060   2.9259160
   9.3009228  17.7162671   3.5182178  34.9564862  25.5949616  36.9581342
  34.4047022  25.7277393  37.7289391  35.1797771  26.4794421  36.6681886
  60.7822037  32.6677656  63.0251741  61.0514736  32.9679346  62.1570635
  60.4169655  33.4464717  63.4452343  14.4798946   1.1302131   0.8563623
  14.1004109   0.3400325   0.4718649  15.1006937   0.8049697   1.5083262
  56.6893625  52.1367884  45.0264359  56.7245865  52.9336262  45.5556250
  55.9389019  52.2672224  44.4467545  19.9309838   3.8663337   2.9943553
  20.5339146   4.4833472   2.5796261  19.8265934   4.1965711   3.8866991
  12.3843229  14.6923685  33.6291647  13.0702507  15.0178540  33.0462456
  12.0716190  13.8919330  33.2075596  86.3584328  57.0129871  46.1016130
  86.0251045  56.2156200  46.5131044  85.6202221  57.3456764  45.5911398
  69.1299295  70.0397062  69.5109510  68.8481283  69.1257191  69.5489931
  69.9164772  70.0707006  70.0555706  35.0437546  40.8948851  18.0930007
  35.0666356  40.2534151  18.8030910  35.8486485  40.7353830  17.6001167
  57.7597857  25.2128625  63.4034491  57.0558691  24.5786262  63.5393715
  58.5564327  24.6832085  63.3710051  15.0253785  46.9810438  20.4625392
  15.5001009  47.5183201  19.8283446  15.6911135  46.7145014  21.0965610
  49.7462749   0.6098224   6.5963197  48.8481188   0.9258519   6.4979678
  50.2909946   1.3747486   6.4108431  10.3944135  74.3581963  29.4021225
   9.7243732  74.9126005  29.0022373  10.3974319  74.6136808  30.3245926
   9.4652140   3.4344655  31.0365725   9.4625682   2.5582302  31.4218473
  10.3748834   3.7240523  31.1063719  75.8821297  61.8833160  50.9083033
  75.6058455  62.7934122  51.0160923  75.0664806  61.3824844  50.9193802
  18.2333040   6.2148213   2.3653044  18.4579003   5.4626954   2.9131138
  18.1571400   5.8536428   1.4821392  52.1351528   6.3591379  17.5293493
  53.0844784   6.3085943  17.6409543  51.8323421   6.8680924  18.2813489
  15.4656744  81.3702583  13.0350673  14.5393908  81.4568520  12.8098321
  15.6009173  82.0033360  13.7401593   8.6845744  30.7885838  37.9808617
   8.8259196  30.8431554  38.9259958   7.7687210  30.5253911  37.8904557
  24.2177558  11.2526643  37.1988535  24.9032640  11.8710184  37.4517345
  24.6413636  10.3953063  37.2403932  15.0180471  29.2464757  68.0669975
  15.2524257  28.8654518  67.2207594  15.2973342  28.5938549  68.7091160
  68.2277060   8.3616972  42.0215988  67.5019455   7.8487140  41.6661406
  68.7677240   7.7225184  42.4864244  55.1706076  35.6669688  51.3169098
  55.2213478  36.4573622  51.8544388  55.3602028  35.9688759  50.4285765
  21.6545820  15.5091560   7.9750967  20.8926606  15.5692363   7.3988146
  22.3410130  15.1304543   7.4258900  76.0951567  66.6801119  27.1989775
  76.6098690  67.4865198  27.1671510  76.6438341  66.0283852  26.7625928
  46.5452370  82.6159758  61.4994621  45.7396779  82.9676053  61.8784904
  46.3980708  82.6458357  60.5541182  81.4063358  54.3849945  47.2806787
  80.6515408  53.8267803  47.4675179  81.0573006  55.0815296  46.7245817
  74.0027809  36.8204618  71.2539196  74.5357609  37.4917769  71.6799450
  73.1817722  36.8184733  71.7460299  70.2010632  46.7488909  69.5233250
  70.4390049  47.6635647  69.6749401  70.7433081  46.4801073  68.7817335
  73.8535643  19.5914817  36.3419247  74.0106916  18.6575615  36.4809799
  73.4679413  19.8944771  37.1639466  47.5492525  41.0848284  14.5916891
  46.8047142  41.6154814  14.8750699  48.3070660  41.4918184  15.0115836
  34.8292446  61.5539312   1.4351703  34.4872689  61.6636181   0.5478974
  35.7603765  61.3694859   1.3118766  80.7472897  14.3710840  27.4846077
  81.6090393  14.7617936  27.6293850  80.1352119  15.1017642  27.5723910
  76.2330484  23.1572151  49.0632772  76.4477682  23.1224537  48.1311178
  76.9644547  22.7149534  49.4941854  87.3162460  -0.0987825  43.9669085
  86.8894672   0.6468509  43.5448694  88.2174015  -0.0725110  43.6452579
  74.4119501  30.3078842  61.2576818  73.9772892  30.0313950  60.4509258
  73.7499142  30.8187532  61.7234659  66.7922974   8.8649839   6.1608618
  66.9594860   9.5208877   5.4840529  66.3861847   9.3560129   6.8751413
  30.4337859  21.5336895  64.0278769  30.6422067  22.4518418  63.8552761
  29.5184040  21.4420772  63.7634563  23.1048322  54.5410013  27.0475698
  22.2420168  54.2998123  26.7105126  23.0020738  54.5292997  27.9991674
  50.2953577  29.8109174  60.1770830  50.8654785  29.4009852  59.5265818
  49.7958231  30.4604936  59.6823597  79.2178774   3.0796522   2.3894143
  79.8451662   3.5835549   1.8709327  79.5787334   3.0876577   3.2759535
  77.4037266  68.6168098  48.8385439  77.2368670  67.8230810  49.3468571
  77.8138351  69.2177725  49.4605446   6.4063287  71.8902969  44.2951488
   7.0117438  72.2131109  44.9626017   5.5501866  71.9009066  44.7230959
  41.7545938  78.2901382  36.4143705  42.4464178  78.8263941  36.0270214
  41.9709635  78.2565451  37.3461890  73.8947725  36.7016792  35.1662755
  73.6534262  36.5923786  34.2464709  74.8291779  36.9083238  35.1457930
  78.8009405   9.3439549  55.9274912  79.5446873   9.4168621  56.5256214
  78.4500551   8.4678417  56.0872936  28.5233712  76.8206787  39.2572498
  28.4205914  77.7689171  39.3379474  28.3000922  76.4809513  40.1238298
  84.1665745  81.0717583  30.6059718  83.9976025  81.7552280  29.9574757
  84.4924736  80.3313637  30.0942636  76.2060213   4.5665252  61.8436623
  75.2502918   4.5996696  61.8022490  76.4082527   3.6395890  61.9706345
  16.0027587  44.2382097  17.9801106  16.8764353  44.5064402  18.2646656
  16.1176586  43.3407879  17.6675928  39.8038101  17.3110151  65.1910162
  39.3536806  16.7296362  65.8038902  39.1364431  17.5402737  64.5442629
  76.9089556  53.8615084  27.8361320  76.1547852  53.6151648  28.3716464
  76.7946339  54.7986269  27.6781011  60.5874872  43.1451273  44.6571541
  60.6489706  42.2801352  44.2518902  60.7227612  42.9824162  45.5906725
  73.0378437  66.1979914  17.0027316  72.8203487  65.3818750  17.4531543
  72.1994543  66.6500473  16.9079876  53.6664677  31.7617393  45.3300953
  53.4814882  30.8577132  45.5845594  53.5960913  31.7610383  44.3754864
  68.1201649  62.5603056  71.0887766  67.4658775  61.8648291  71.0220623
  67.7179909  63.2133770  71.6614723   2.6551011  51.7819786  67.6786757
   3.1669664  51.2512493  68.2890511   2.9722184  52.6749849  67.8136110
  10.6062388  35.0926089  30.5802798  10.5648375  34.7217274  31.4617372
   9.7851598  35.5752301  30.4846883  38.2604885  23.5005927   8.3026266
  38.7370539  24.2340922   7.9139155  38.4725571  22.7536273   7.7428961
   8.3711731  15.7060838   5.5135322   8.9060253  15.8360374   4.7304121
   7.5527465  16.1646295   5.3234124  53.9726210  44.2327881  64.5991611
  54.5093966  44.8438454  64.0944719  54.5061255  44.0217876  65.3653765
  63.2748079   0.7695291  68.1132364  62.4975443   1.1375044  67.6928997
  63.3886766  -0.0859442  67.6991940  12.9107141  39.2867589  52.8975439
  12.5097799  40.1421070  53.0520248  13.4201217  39.1144872  53.6894131
  79.6418524  51.2848091  62.3047781  78.9440155  51.7735910  61.8684864
  80.4322338  51.5035868  61.8111515  31.6982555  63.9786339   8.0614191
  31.8660522  63.0513620   8.2294720  32.0225072  64.1234541   7.1725327
   2.1771432  40.4083872   2.4418929   1.8100232  39.5543861   2.2135508
   2.5469261  40.2841616   3.3159983  27.3821402  18.1725633   6.1191988
  26.5046048  18.4679973   5.8765405  27.6322865  18.7390661   6.8490839
   3.2947847  76.7105389  23.3113217   3.9464474  77.3483467  23.0201697
   3.3558580  75.9981728  22.6748991   3.1736052  73.4326410  43.1038857
   2.7387035  72.6344919  42.8038025   4.0801293  73.3355522  42.8123045
  63.5703707  21.0002041  54.5001602  63.1966400  21.6990709  53.9633703
  64.2940140  20.6566739  53.9761734  60.2067518  49.5082235   6.0876882
  60.0760794  48.6966133   6.5780383  60.9767151  49.3387651   5.5448502
  36.5081358  77.7717161  36.3406014  35.5888891  77.5048542  36.3417339
  36.7314243  77.8656006  37.2666478  54.6558046  24.6076894  32.8717542
  55.1533031  25.3084445  33.2932663  53.7419891  24.8065853  33.0757380
  32.4567676  69.9288654  27.7223587  32.2503304  69.5868683  28.5922194
  32.9280400  70.7446814  27.8913927  78.2195044  34.8997211  67.8011131
  77.5221157  34.2449808  67.8356886  77.8318739  35.6833386  68.1908798
  46.8841457  12.9019392   3.0291685  46.7223501  13.6989200   2.5243154
  46.6715336  13.1423628   3.9309588  15.7825100  13.2762110   9.2109150
  16.3688064  12.6337218   9.6105349  14.9039614  12.9338014   9.3756580
  30.4912686  55.1917410  28.9840078  31.3237500  55.6514406  29.0929985
  30.4486609  54.5933437  29.7298884  30.1749063  77.7397442  68.4309769
  31.0105419  77.9010868  68.8690567  29.5447826  77.6434946  69.1450596
  80.0899982  22.1680546  15.3978181  80.5302811  21.6907573  14.6945596
  80.7496643  22.2405291  16.0876155  29.3715453  74.8047161  10.0643969
  30.1695490  75.1819801   9.6941340  28.9813352  75.5180883  10.5694425
   4.1600311  28.6229873  59.0002012   4.9119246  28.8238573  58.4429407
   4.1240731  29.3478084  59.6243572  74.4827366  65.0919676  69.4969845
  74.9223900  65.3890848  70.2936411  73.5879755  64.8971128  69.7756767
  35.0283694  38.9518952   1.3975073  35.7891393  38.5110831   1.0191579
  35.0112462  38.6601019   2.3089874   6.6575885  51.1352873  65.5166483
   5.7464546  51.3534546  65.3205109   6.8429846  51.5949202  66.3355494
  72.1692896  43.8845730  57.8420830  71.3070822  43.6374807  57.5077438
  72.2091818  44.8335695  57.7235746  74.2381954  62.5674009  31.9076300
  74.9399471  63.1223249  32.2479749  74.6599293  62.0342493  31.2337422
  47.8512049  17.6208460  15.0454831  46.9859457  17.5796998  14.6382213
  48.0788755  16.7070794  15.2170324  72.8968430  36.4714146  16.0461664
  72.6765347  36.9247031  15.2323949  73.6817598  36.9176698  16.3639688
  43.1796551  35.4217911  63.2719612  43.7619543  35.3307724  64.0261984
  42.8882408  34.5293427  63.0852842  49.8519230  19.3470514  24.5350647
  49.0054512  19.4956303  24.1135883  50.0725651  20.1892900  24.9327850
  56.8610668  30.7377815  14.8296213  57.0913792  31.3371658  15.5394995
  56.1044025  31.1452436  14.4081163  29.4954300  66.9262075  13.8574064
  29.8112559  67.2048759  14.7169578  29.9342084  67.5112391  13.2397950
  49.1623926  24.4551086   9.9451530  48.4403563  24.0220261  10.4004967
  49.5636272  23.7629795   9.4196033  75.0965357  51.0436773  63.4044933
  75.0909615  51.7249441  64.0768576  75.0740671  50.2223396  63.8955402
  52.5130320  21.4692307  14.7843909  53.1080627  22.2122622  14.8847508
  52.9992485  20.8438993  14.2470026  60.9848928  49.8587894  61.3392782
  61.0914612  49.2100811  62.0350170  60.2646875  49.5221376  60.8061743
  81.5167904  64.7248220  70.9472036  81.8740082  65.0181341  70.1089907
  82.0468140  65.1758194  71.6044044  45.8155298  57.5834131  19.7348738
  45.9389734  58.1072474  20.5264497  45.5625868  58.2182217  19.0645993
  63.1838274  41.0836363  58.2976818  62.4858761  41.5440512  58.7636375
  63.7533903  40.7483721  58.9900875  10.1116621  12.0758557   9.2025405
  10.1745021  11.7435670  10.0980115   9.3260866  12.6227558   9.2045885
  59.9672174  60.0897026  61.2142134  59.4448090  59.3991518  61.6222143
  60.8473301  59.9658632  61.5696049  58.0208111  26.3758445  13.3084023
  57.8231430  25.4731488  13.5579991  58.7874603  26.3046956  12.7397001
  16.6744149  55.3352547  11.8846953  15.7594156  55.4146624  11.6150582
  17.1457195  55.1338243  11.0762846  72.0356941  33.3271813  44.4887161
  71.2043667  33.7820959  44.3538857  72.0801592  32.6925063  43.7735653
   6.3899082  53.6518383  51.4242983   7.1561265  54.1904783  51.6218138
   6.6059566  52.7891064  51.7782021  29.5892119  10.3734624   0.4054299
  29.2076969  10.5312610   1.2690140  29.2792153   9.5010656   0.1624126
  27.5110531   8.9157432   8.3778024  28.2143760   9.3261188   7.8746516
  27.9056883   8.7237042   9.2284584  59.9805117   7.0182282   7.3506081
  59.2972136   6.4554024   7.7146983  60.7654285   6.4703929   7.3471397
  73.8921499   9.1122752  68.1331348  74.5319510   9.2155612  67.4287081
  73.3574343   8.3655620  67.8634501   0.6104431  56.8176031  28.2801795
   0.0398365  56.0588789  28.4025693   1.3214558  56.6862249  28.9074230
  68.6961699   0.5669591  19.1674745  68.2884455   1.4324483  19.1370857
  69.3703032   0.5958065  18.4885478  68.9696169  50.9374666  63.5811138
  69.8076820  51.1325169  63.1617832  69.1131067  50.1022291  64.0261126
  43.0811071  73.8153172  56.9050026  42.4481153  74.1373253  57.5467682
  42.9834890  72.8634167  56.9291019  30.2599216  63.1033373  59.4114923
  29.4861579  62.5438595  59.3443680  30.2784443  63.3774853  60.3284073
   6.7523694  13.5157156  14.8568511   7.5566584  13.8297796  15.2700281
   7.0023543  12.6893520  14.4434941  76.6370440  49.2683649   0.6842607
  76.3589859  48.3532286   0.6462662  77.0687819  49.3524075   1.5344205
  87.7822304  59.1466856  22.4165821  87.7254295  58.6485529  23.2319760
  87.1229076  59.8343468  22.5095820  67.9357290  31.0975718  44.9624491
  67.8367472  30.6224823  45.7875061  68.5733318  30.5847383  44.4657612
  76.0003281  24.2159986  10.6708610  76.3201904  24.5046520   9.8161113
  75.0822973  24.4865561  10.6869042  22.4563050   3.6091369  34.7871208
  22.6763844   3.8939798  33.9001822  21.7071486   3.0245519  34.6719742
  80.8864784  38.6139154  13.6449027  80.7773113  38.2158732  12.7812612
  81.5750217  39.2674255  13.5221303  19.0328717  28.9725566  11.1793435
  18.2042003  28.9498663  11.6579032  19.2497027  28.0519414  11.0320926
  64.7687244  32.2707176  69.9493170  63.8924074  31.9730449  69.7050095
  65.3466034  31.8753219  69.2966700  22.9221559  62.2395754   6.1911243
  23.6355376  62.5170040   5.6163627  22.8921485  61.2878513   6.0933739
  58.9345741  68.0329561  57.3042583  58.0643415  68.3917809  57.4779654
  59.5311403  68.6100721  57.7809954  33.2369637  74.4615793  66.3638353
  32.4215078  74.0662432  66.0556555  33.7996793  73.7164879  66.5745974
  47.3734856  12.9127669  41.4527845  47.8011179  13.7487245  41.6386271
  47.8097391  12.5907075  40.6639910  85.3472424  23.7596798  18.3964574
  85.1070118  23.8824630  19.3148506  86.0411072  23.1006074  18.4164345
  61.1337709  30.9190011  13.9727414  61.5642643  31.7452908  13.7533104
  60.2504444  31.0066390  13.6145687  55.2556705   3.0800614  69.2872572
  55.5189419   2.1735722  69.1285181  56.0726404   3.5772488  69.2472458
  40.9729338  33.1243777  19.8467636  41.2028646  33.8507724  19.2673552
  40.3994513  32.5690222  19.3186259  31.6270304  72.1630335  51.2993526
  31.5383768  73.0050421  50.8528233  30.7354331  71.8168068  51.3369226
   3.4878856  61.2717628  49.1463947   3.8726619  61.0095501  49.9827099
   3.4991926  62.2286701  49.1670847  72.4786329  55.6673956  22.0204878
  71.7343330  56.0181427  21.5313768  72.4505091  54.7248363  21.8560958
  11.6202152  40.4126358  21.2932801  11.8826365  40.3675270  20.3738594
  10.7808816  39.9536085  21.3255930  72.7584362  21.0228515  61.3002920
  73.0241632  20.1589060  60.9852982  73.5248089  21.5773344  61.1538219
   8.6267591  35.5393648   0.6675864   9.4032967  36.0886860   0.5604991
   8.9580888  34.6429968   0.6130232  33.8088560  82.3208332  46.6660786
  33.2749534  83.0992985  46.8246937  33.6241484  82.0848751  45.7569885
   9.7083515  11.4492619   1.9348234   9.3304741  12.2774529   1.6389550
   9.3259454  11.3073134   2.8007609  21.6271758  75.4447651  21.2062454
  22.2393584  75.5682516  21.9316530  20.8178401  75.8613777  21.5022945
  54.3683386  80.6140614  13.4762919  55.1660204  80.5123425  13.9955091
  54.5891142  80.2416420  12.6225972  69.2236662  13.5577428  39.2426562
  69.6385288  14.2928350  39.6940541  68.9895391  12.9482007  39.9425673
   1.4546122  51.4648438  25.3751612   1.7529586  50.6838989  25.8413649
   1.2199172  51.1480522  24.5029283  63.1899357  27.2977090  57.7008247
  63.7200260  27.6324129  56.9774961  62.6961184  28.0580926  58.0077362
  81.5203857  49.3072891  20.9367561  80.7498169  48.8338375  21.2502885
  81.2313366  50.2173090  20.8693385  38.6527300  33.4438062  63.4819603
  38.3972430  33.5578394  62.5665617  39.6047902  33.3485270  63.4548187
  56.2094164  14.6783829  62.9384565  55.6136370  14.8016906  62.1994877
  56.4803505  15.5645967  63.1781435  20.2452707  31.4522576  24.6529245
  19.9820173  30.5325246  24.6848917  20.0682521  31.7208600  23.7513995
  59.0846205  75.2813864  70.5957651  59.3017006  74.4461727  70.1816130
  59.5544481  75.2645493  71.4295578  35.4677057  16.4352357  50.9561539
  35.7346106  15.5451941  50.7263279  34.6198750  16.3272798  51.3871527
  82.9887486  53.4380341  24.6083045  83.5814953  53.4093571  23.8572669
  82.1169281  53.3243132  24.2298341  44.1118002  58.0217600  14.9865878
  43.4894371  57.6352024  14.3705761  44.7543335  58.4642076  14.4319546
  24.3118978  70.5059767  54.2316151  23.8716888  70.2403784  53.4242105
  23.7075710  70.2512407  54.9288464  44.3942785  11.9494605  25.9778333
  43.7874365  11.3723981  26.4414883  43.9072371  12.7651894  25.8611727
   3.9486706   6.9428414   4.9817494   4.2673415   6.1057520   5.3193313
   4.7336179   7.3852700   4.6587217  22.7630234  80.6863403  64.3674183
  23.6911201  80.9194088  64.3440580  22.7185082  79.8360872  63.9300108
  78.6695433  57.4808407  30.5739641  79.2833948  56.7751980  30.3702664
  79.1751432  58.2831287  30.4438376  62.5961256  79.9102020  71.1149931
  61.8395233  80.3972626  71.4414215  63.2528400  79.9965239  71.8060112
  53.2239723  55.5759144  10.8506906  53.9981747  55.2165890  11.2839687
  53.2532072  55.2106524   9.9664044  32.1262884  74.2538786  42.5960779
  31.3939381  74.5178270  42.0391035  32.8255987  74.0298986  41.9820499
  54.7462654  12.3820806  44.4276524  54.5292711  12.6403534  43.5318613
  54.4010401  13.0901921  44.9713707  52.8186798   2.5736463  50.1507092
  53.2566595   1.8548527  49.6949244  52.7770376   3.2776311  49.5034838
  26.7180395   3.5121152   3.1468228  26.6689372   2.8495058   3.8358581
  26.1783814   4.2337793   3.4696245  38.0479860  15.0123453  10.8079815
  37.9079390  15.9492409  10.9452617  38.3830237  14.9487770   9.9135870
  34.0225530  62.2458267  50.8033037  34.5991230  62.6563454  51.4477205
  34.4204307  62.4550867  49.9582434  13.1943679  63.1649446  28.1390524
  14.0297723  63.5740423  28.3648205  12.6461148  63.2972956  28.9124417
  42.3383236  26.8369436  44.5461941  41.9982004  27.6632595  44.8893452
  41.5576458  26.3143325  44.3627548   2.3247235  25.2122712  49.0790176
   3.1509802  25.5803514  48.7658882   2.0136380  25.8414268  49.7298813
  77.8343964  27.8331161  52.2555637  78.6859417  28.2702637  52.2537661
  77.5565195  27.8461957  51.3396788  27.5134254  61.0030508  23.7002039
  26.7401481  61.1410904  24.2472148  27.6618648  60.0578833  23.7294388
  28.2875466  72.4380684  53.7922621  28.4238529  71.8493938  53.0498886
  29.1706872  72.6589680  54.0880680  73.3447647   1.4035870  28.6119580
  72.6960611   1.7729354  29.2111206  72.8693390   0.7247145  28.1330705
  16.8019319  35.9179807   3.6285633  17.3003650  36.0054564   2.8160709
  16.5886497  34.9862409   3.6795792  33.2663894  43.6921453   3.1206873
  34.2125320  43.5658026   3.0493921  32.9604673  43.7272072   2.2143686
  46.7734241  25.5732894  62.0905590  47.3720646  25.1907802  62.7320766
  45.9875250  25.7865047  62.5936842  58.7205362  18.3382106  28.3700418
  58.5725117  19.2483068  28.6270380  58.9581728  18.3864355  27.4440646
  77.6433325  81.3219738  52.7507019  78.3082294  80.8332062  53.2357264
  77.0078802  81.5866280  53.4158278  63.3714247  28.2259583  68.0997467
  63.2301617  27.3301935  67.7933502  62.5045586  28.5245395  68.3747482
  54.6139717  32.0885277  64.0142155  55.2323627  32.0332003  64.7427464
  55.0904942  32.5598669  63.3308411  66.6474867  21.3689542  65.3919315
  67.1280718  20.8753061  64.7274208  66.3920450  22.1789551  64.9504757
  71.0202408  26.8413305  67.6865768  70.2877331  26.5790057  67.1290398
  71.6825056  27.1644497  67.0756483  13.4575367  51.8237495  61.5794277
  13.2221794  52.5286007  60.9760857  13.2733536  51.0203695  61.0927153
  72.3633003  47.4930334  18.2756388  73.3080149  47.4878168  18.1216156
  72.2734547  47.3504400  19.2178833  46.0172510  69.5684814  65.3462553
  46.1098528  69.8374605  64.4323063  46.6401482  70.1179886  65.8219385
  80.3635216  14.6219444  36.9422293  80.9738922  14.3709409  36.2489200
  79.5144606  14.2964816  36.6432428  57.9682398  21.7124319  61.7534161
  58.1523085  21.5157580  60.8349037  58.4218502  22.5393248  61.9168663
  77.9831648   7.8156447  64.6135378  78.7124252   7.2305524  64.4084072
  78.3820677   8.6837059  64.6733522  68.7604046   5.8319879  65.5611181
  68.4387875   6.7322087  65.5121517  67.9680252   5.2961451  65.5963421
  72.6030493  17.4381793  53.6493778  72.3395014  16.5200996  53.7118435
  73.3737183  17.5050223  54.2131472  35.2893043  75.9938812  71.2752485
  36.1730576  76.0681963  71.6353703  34.9331760  76.8807030  71.3295794
  60.8154535  11.5666449  69.7460985  60.0440741  11.6131973  70.3109360
  61.5354252  11.3563478  70.3407860  39.0555382  45.9424114  13.0331862
  39.0237212  44.9926472  12.9184210  39.9577832  46.1794853  12.8187561
  19.1236103  29.1804767   0.4389705  19.8298454  29.3451667  -0.1858017
  18.5509527  28.5557914  -0.0060715  53.6474943  19.3739891  70.5627441
  53.9732265  19.5312357  71.4489746  53.7608862  20.2117062  70.1137352
  60.2973747  12.1897686  54.7626114  59.4605875  12.3582816  55.1957703
  60.9391451  12.1906006  55.4727983  79.9019146  55.2441454   9.1363907
  79.3201351  55.6244230   9.7945333  80.7042122  55.0383472   9.6161699
  14.3820250  75.7916021  27.6451302  13.9475965  76.6440964  27.6176429
  15.3107190  75.9992599  27.7482748   2.4932489  68.8861609   1.7030461
   2.9727942  69.5663548   2.1759157   3.1700557  68.2767582   1.4084484
  -0.2355590  19.5635973  71.7456594   0.4682526  18.9645420  71.9946955
   0.1889095  20.2109324  71.1826155  32.5545454  20.7941318   2.1442969
  32.9423046  19.9627137   1.8711346  32.8779674  21.4302993   1.5063944
  21.1375785  52.1127605  20.7422733  21.4087033  51.8989706  21.6350341
  21.9514680  52.1134663  20.2384710  43.0737782  63.8045692  39.6743536
  42.9349613  64.6740198  39.2988253  43.7090731  63.3901405  39.0904999
  40.9412384  24.7700238  11.1858809  41.2437010  25.6756163  11.1177206
  41.7109537  24.2817736  11.4780784  40.2769470  81.1414814  64.0537643
  40.6751156  80.3036118  64.2896891  39.3427706  81.0186768  64.2224741
  58.5129213   7.0705694  54.6054029  58.3925152   7.1702826  53.6610556
  58.3714485   6.1379039  54.7677326  76.5541744  40.9699297  42.9070807
  76.1759615  40.8751488  43.7812710  75.8220911  41.2519455  42.3586702
  82.8616333  79.3882513  54.5844173  83.2051754  78.9749622  53.7923288
  83.3574200  80.2032089  54.6636581  15.3905749  36.1832571  68.5369778
  15.8651352  36.2531757  69.3653107  14.7469425  35.4909086  68.6873865
  61.7233706  35.4500937  43.9924669  62.1958160  35.5351758  44.8205948
  60.8079624  35.6109524  44.2213392  20.6712651  76.7921352  69.9842787
  20.6170058  77.6482296  69.5595455  19.9274051  76.7759562  70.5864716
  52.3193264  17.3147690  64.0036249  51.5145588  17.2370768  63.4912395
  52.6011562  18.2198977  63.8711739  70.2554655   1.4713563  36.5937233
  70.0638008   0.5471808  36.4343572  70.8986807   1.7016408  35.9232926
  46.5191078  18.6662388  44.9316311  45.8763409  17.9892910  45.1433420
  46.5862274  19.1907156  45.7295370  81.0778713   8.7723088  43.7237549
  82.0236492   8.7709814  43.8711357  80.9289837   8.0470163  43.1171131
  76.4223194  15.8653462  70.3932381  76.8090153  16.3095057  71.1478376
  75.7193804  15.3316677  70.7637644  86.4299679  42.9149675  49.5779467
  85.6424236  42.4256468  49.3400860  86.8692303  43.0818892  48.7440300
  65.6013680  42.1361923  53.9294243  66.2293100  42.0662546  54.6484709
  66.0872269  41.8447018  53.1579304  34.5453691  81.4193249  64.5597458
  34.1135645  81.1106110  65.3562880  34.4512200  82.3714066  64.5898771
  72.0737696  62.2990656  13.7778103  72.7637720  62.2830868  14.4410396
  71.2714052  62.4699545  14.2710066  74.6105814  18.0575371  55.4841709
  75.2168941  18.2309592  56.2042713  74.5487976  18.8907850  55.0171423
  17.7636027  59.2899561  24.6407795  18.4216332  59.7329378  25.1764941
  17.6860893  58.4183550  25.0287676  39.4252706  76.8985701  61.7792273
  40.3214979  77.1803427  61.9625759  39.5021701  75.9634018  61.5900946
  34.8302197  10.6107855  49.8709106  34.4318867  11.3184619  49.3641996
  34.3242311   9.8332083  49.6351576  63.7526655  18.1747377  55.6316519
  63.7051296  19.0744650  55.3084421  63.2581997  17.6636374  54.9909401
  81.2966633  26.1870909   3.2438615  81.8888283  25.8175588   3.8988623
  81.4369774  27.1322727   3.3002415  30.4062915  73.9780140  54.7738838
  30.9711814  73.2178259  54.9126196  30.9900784  74.6487331  54.4195414
  70.5845690  61.3772345   1.1098897  70.8558655  61.0099649   0.2686149
  70.0334978  62.1248484   0.8783145  38.1410050  54.2377472  32.4097157
  38.2556868  54.6322441  31.5451622  38.9981461  54.3225193  32.8272748
  85.1703548  45.5694914  19.1157365  85.4936409  44.9032307  19.7222090
  85.9227848  46.1417055  18.9652419  54.5409679  62.4035311  64.2863226
  54.9653530  62.0272923  65.0574112  53.6267900  62.1290445  64.3582106
  73.4511900  56.4389563   4.4201952  73.8077211  55.6032610   4.1189745
  73.8208580  56.5555382   5.2954000  77.5049686  20.4196310  54.4439220
  78.3173275  20.3847337  54.9489880  77.6427746  21.1301017  53.8174438
  67.5444841  32.2463965   8.7800789  68.4740639  32.3789454   8.5942191
  67.1221828  32.2745681   7.9215336   7.8551793  38.0437970  12.1560609
   8.5693419  37.7804279  12.7364409   8.2774246  38.5796118  11.4846110
  13.0279648  49.7133017  24.5486712  12.5041187  48.9284086  24.7091651
  13.0159616  49.8188877  23.5973883   7.1900350  42.6540327   7.9111367
   7.5637591  43.5233498   8.0555123   6.8172544  42.4098730   8.7582815
  17.1816695  58.7293530  11.3031137  17.6531088  59.5615005  11.2642705
  17.7013147  58.1871557  11.8965971  33.8970447  55.4912186   4.5529291
  33.4262276  54.7920036   5.0064313  34.0276551  56.1643410   5.2208197
  61.5301180   4.8068959  13.0012357  62.0131683   4.8316145  13.8272393
  61.7165518   5.6506199  12.5894058  75.1198578   9.9477971  70.4454517
  74.9044037   9.4808221  69.6381426  74.4335413   9.6908456  71.0612249
   6.5655249  40.7724333  21.3401723   6.3136953  40.8738232  20.4222751
   6.9559795  41.6140175  21.5757775   2.5649139  12.6574826  48.1851149
   1.8349490  13.2396150  48.3960724   2.3743370  12.3452306  47.3005724
  72.7494478  39.0478802  64.6567535  72.3470545  39.0987706  63.7897348
  73.0142832  38.1322432  64.7445202  37.4636507  81.7749214  71.9708920
  36.6255021  81.9962788  71.5650082  37.8456068  81.1180592  71.3887596
   2.9692441  18.0446267  64.6981001   2.4616748  17.2699082  64.9397945
   3.0401403  17.9966807  63.7447357  66.0645437   5.5293775  13.7887204
  66.6965055   5.8376747  13.1392550  65.7473230   4.6971518  13.4379983
  33.0916381  55.2692938   8.0088991  32.7463794  55.7679081   8.7494475
  32.4202776  55.3507137   7.3314941  42.7379560  67.5515699  59.7957420
  42.0882082  68.1838417  60.1028204  43.5670805  67.8659248  60.1562595
   8.6296105  62.4261761   1.1393192   8.2537186  62.2764778   0.2718358
   8.5872757  63.3750200   1.2582058  20.1996803  78.5613203   4.6080700
  20.2772141  79.3903589   5.0802052  20.8653569  77.9978657   5.0025636
   7.6880920  72.8650665  19.2269170   7.4905640  73.7298059  18.8671386
   7.8418034  72.3153639  18.4585214  74.8235226  43.2961893  65.0421190
  74.5219851  43.2799101  64.1338015  75.0222683  42.3820734  65.2449226
  57.5156784  16.8275118  60.7376766  57.2993898  16.0094428  61.1851311
  57.6871824  16.5673745  59.8326111  10.8266354   3.1885993  65.8832836
  11.0988593   3.4290197  66.7689037  11.3081014   3.7884739  65.3135729
  57.2458696  78.3910418  48.2016945  57.8713226  78.9997149  47.8085613
  57.2318649  78.6277533  49.1290617  83.4935093  22.8514361  58.6192226
  83.0534840  22.2521019  59.2220545  84.0000153  23.4326911  59.1865158
  68.9354563  29.5774102  52.3998880  68.6231136  30.4453182  52.6556396
  69.8871946  29.6299767  52.4874115  74.9586058  27.2128201  62.3241091
  74.2332411  27.5738358  62.8337622  75.7271242  27.6980853  62.6243258
  13.4823859  31.9060564   4.0226007  13.6184776  31.0524225   4.4337204
  14.1149688  31.9296837   3.3046079   2.9827958  39.7183895   5.4195935
   2.6502573  39.8561811   6.3065344   2.7748770  38.8045049   5.2251309
  49.8966599  54.9963427  37.5037980  49.9209023  54.5327616  38.3408976
  50.8169031  55.1096630  37.2660255  59.1074800  27.0754075  40.1677942
  58.6030531  27.3953557  39.4198537  58.4960413  26.5168047  40.6477308
   2.7905479  34.2299128  49.5899677   3.4184408  33.5307002  49.7718620
   3.3321434  34.9814367  49.3488932  85.8188152  19.8786128  51.8595171
  85.6277752  19.0674841  52.3304796  85.8586025  20.5483103  52.5422716
  13.2974911  81.7581749  53.8393736  13.2000375  82.6288986  53.4539080
  13.0114532  81.8645000  54.7466278   1.0563251  48.4699154  25.3448296
   0.1640713  48.7383318  25.1255870   1.3072500  47.8736496  24.6393251
  22.6787758  80.3572083  37.4091935  22.0033431  81.0230827  37.2802091
  22.3153973  79.7732639  38.0749249  78.0882454  62.1006298   4.8612964
  78.5023022  62.3387957   5.6907958  78.7533808  61.5902042   4.3994573
  42.0921612  23.1847429  50.5545807  42.9964781  23.0742073  50.8482170
  41.6113091  22.4806643  50.9896517  85.1508904  71.1586285   7.6744634
  85.1141739  70.2217007   7.4819982  84.5228958  71.2817144   8.3862960
   8.1142479  39.6152687   9.4573253   8.8571090  40.2153540   9.5228243
   8.2769442  39.1193986   8.6549085  30.4157138  12.3267388  33.5501099
  30.8602619  13.1484640  33.7583828  30.6969309  11.7216527  34.2364192
  11.1954546  57.2182989   5.9274298  10.7969856  58.0699253   5.7480168
  12.0895672  57.4248123   6.1997312  59.4745827  23.9320302  16.4489400
  59.2409563  23.4093833  15.6818080  59.8568392  24.7313786  16.0867858
  65.5088282  15.3259754  69.9380302  65.4179621  16.1066985  69.3917274
  65.0171471  15.5314851  70.7331657  36.6503596  64.9405622  19.5907629
  37.4936795  65.3685808  19.7385633  36.0009861  65.6004429  19.8338771
  67.4660206  47.8329039  14.7494256  67.5365067  47.1482182  14.0842426
  67.8968334  47.4633121  15.5201602  63.8223410  10.1758182  69.7151613
  63.3936977  10.5201125  68.9316082  64.5986557  10.7250381  69.8243999
  77.1637535   6.8181199  61.0391474  78.0974865   6.8893462  61.2373781
  76.9216490   5.9415704  61.3379478  56.4027071  46.2047434  66.6757059
  56.3234806  46.9917154  66.1366081  55.7830334  46.3418865  67.3922443
  75.7612896   9.0855712  66.1012506  76.2461996   8.3030760  65.8389616
  76.1270428   9.7862089  65.5612850  68.5978603  41.6429329  58.3184528
  69.3222475  42.2680950  58.3443451  67.9593563  41.9902611  58.9412785
   6.5758562  44.9669409  15.3513062   6.4085144  44.0315151  15.2363837
   6.3482362  45.3564644  14.5070946  51.8025446  43.2037783  61.2034559
  52.7458477  43.0825043  61.3116169  51.5057516  42.4018955  60.7731915
  86.9066238  35.3913975  35.4187274  86.5799236  34.6762228  34.8728108
  86.1502934  35.9656167  35.5390477  28.1936741  27.3856091  41.3427210
  28.4295201  27.7737308  42.1853209  28.8252473  27.7532482  40.7245111
  16.9016528  78.3661127  46.5473127  16.9063997  78.9699173  47.2900295
  16.2510681  78.7300825  45.9468985  82.3779678  34.7459269  52.5166845
  82.1395683  35.4069018  53.1666899  82.6780987  33.9985824  53.0340147
  14.0648413  72.6139402   5.8904392  13.6616969  72.2677803   5.0942731
  14.0200198  71.8905020   6.5156281  48.8451910  40.5550098  45.6613970
  48.0608797  41.0893917  45.5367947  48.8476562  39.9555993  44.9151182
  84.1967773  36.5030622  59.3982935  83.3185959  36.8422985  59.2252541
  84.1003418  35.5520511  59.3482065  76.4873743  27.8591895  49.8487759
  76.6222382  27.5295091  48.9603186  75.6470537  28.3158970  49.8097897
  68.4086180  37.1394253  37.9337716  68.6635399  36.3176441  37.5143385
  68.6974955  37.0447588  38.8414168   8.9561528  70.5054855  68.6339474
   9.8852026  70.5493069  68.8601685   8.6286050  69.7443485  69.1131306
  28.4238744  22.2575665  39.1705704  28.5106373  21.3324285  39.4003987
  28.5512662  22.7227283  39.9973869  19.0913844  72.1107721  68.2695532
  19.0496612  72.5216770  69.1330624  18.5710561  72.6836824  67.7062893
  72.8440809  28.7284708  63.8284016  72.8100491  28.6372304  64.7806358
  72.4295187  29.5733857  63.6537838  71.0326767  19.4665360  43.2118177
  71.0518312  19.6994507  42.2835875  70.7438040  18.5540473  43.2238817
  71.6601086  41.5708160  23.8705921  72.1941423  42.3181105  24.1400099
  71.6304588  41.6294956  22.9156518  22.7156854  71.3330507   7.3468280
  23.0807185  70.4616547   7.1930450  22.2103238  71.5239000   6.5566266
  37.8932595  31.1086845  61.0940313  37.0154548  31.4156628  60.8671951
  38.4724617  31.8241310  60.8315516  55.8438110  49.2149353   2.0045851
  56.5874720  48.6841726   2.2900549  55.1230001  48.5909510   1.9190730
  62.7985573   0.9066014  56.6635036  63.5564232   1.2417637  56.1843967
  63.1090212   0.8070211  57.5634623  65.3947401  20.2445102  45.5633974
  66.0914183  20.1306820  44.9169350  64.9966335  19.3775499  45.6416607
  76.7430973  14.6720946  55.4963064  76.6191244  15.1445460  56.3194990
  77.1821833  15.3005922  54.9232197  66.9024849  21.5693378  57.1738005
  66.9623566  21.9933391  58.0298805  66.0057688  21.7386222  56.8848705
  75.0520182  46.9006014  32.5579309  75.1057816  46.1895370  33.1964684
  75.2834606  46.4916563  31.7240071  77.7384329  25.7738256  20.1817966
  77.8379631  24.8467827  20.3983951  76.8630171  25.8379412  19.7999978
  23.9637160  51.9967079  19.8489559  24.4424152  51.3115788  19.3824017
  24.4314861  52.8039265  19.6348977   6.3948548  14.0920150   3.1231585
   6.2249976  13.4026074   3.7651074   7.3461694  14.0914917   3.0171776
   6.8970370  57.9519367  13.4425938   7.7980596  58.0593681  13.1378818
   6.7245710  58.7373114  13.9619005   5.4901189   7.9200852  61.1867762
   5.7535177   8.6553943  60.6334496   4.7678125   7.5094134  60.7115364
   5.6218380   3.2990277  40.5662346   5.6749237   4.1939986  40.9015560
   6.5189928   3.0858198  40.3095484  20.1319456  29.9541140  64.5586443
  19.6766126  30.7836413  64.4144630  20.5063462  29.7349477  63.7054014
  74.7862053  72.3486567   7.2516322  75.3460836  72.1457767   6.5022254
  75.1221800  73.1814051   7.5831157  84.3676853  42.4448872  56.5504313
  83.4927654  42.5349855  56.1727667  84.9603844  42.7138186  55.8485651
  49.2839193  19.5789731  63.7332249  49.2294788  20.3614116  63.1845331
  49.6559763  18.9093614  63.1592655  80.4394054  49.1163254  64.2929316
  79.6545553  49.6642542  64.2889404  80.7727242  49.1688442  63.3971786
  62.5868893  15.1405418  68.9575815  62.3198032  14.7455335  68.1275988
  63.1130457  15.8987641  68.7036324  74.5913029  78.9506865  22.9757547
  74.4372988  79.1039085  23.9079762  74.0895939  79.6359921  22.5343060
  46.9204473  32.6541543  58.0962372  46.0933971  32.7978635  58.5561991
  47.3733664  31.9924259  58.6189365  75.5562305  14.2619383  49.5587587
  76.0454750  14.7123396  50.2472448  75.9723139  14.5453954  48.7446594
  85.9112930  52.3073244   3.2130557  86.8520641  52.4757957   3.2658741
  85.7211494  52.3023939   2.2749439  71.9644356  42.5078297  33.8112879
  71.1063862  42.3716927  34.2130876  72.3597431  41.6363430  33.7896013
  63.4496498  17.4725175  35.3968430  62.8820324  18.0138993  35.9454250
  62.8601933  17.0890772  34.7474217  15.3686202  63.1731081  15.9623742
  15.4968929  64.1177368  16.0486960  14.4206214  63.0662870  15.8841479
  42.3448229   0.8575938  68.7939787  41.6086006   0.4511289  68.3368158
  43.0948353   0.7115895  68.2174444  17.4054515  77.9921913   4.5070413
  18.3557451  77.9216623   4.4164875  17.2417271  78.9317274   4.5888743
  36.3943744  35.2791262   8.3484298  35.5780149  35.7518744   8.1862670
  37.0327187  35.6986094   7.7715546  36.9639206   4.9534172  54.7677135
  36.9136882   5.7899588  54.3052149  36.8255901   4.2947516  54.0870857
  46.2186718  23.5368228  60.1242304  46.4749241  24.3489337  60.5613184
  46.2277603  22.8779697  60.8185339  11.8295085  56.8988323  28.5474443
  11.2147760  57.3085880  27.9388094  12.0971739  56.0907459  28.1097460
  10.9128785  64.6812582   6.4992499  10.1241136  65.1966572   6.6679096
  11.6351068  65.2702999   6.7175424  23.4342170  81.0987949  52.7387905
  23.1310105  81.9841480  52.5376797  24.3616557  81.2054920  52.9502249
  74.1834068  26.0873747  69.3047810  73.3400965  26.0740185  69.7574234
  74.2320824  26.9601393  68.9147234  72.5559950  45.1644468  42.7407169
  72.8249264  45.6417513  41.9558048  73.3754921  44.8492622  43.1219196
  35.2010369  77.0500803  16.0754907  35.7360506  76.4549303  15.5503345
  35.4275060  77.9227114  15.7538366  17.8671169  70.2653742  44.2006254
  17.2396064  70.6254864  44.8273468  17.5412023  69.3848372  44.0144444
  51.5013504  50.4316378  63.3388424  51.8946886  49.5717573  63.1900740
  50.6800318  50.4075050  62.8478479  70.8741331  24.2181826  48.1427526
  71.4988661  23.5002971  48.0398941  70.0421524  23.7858891  48.3355331
  12.7345431  67.9439449  34.4235778  13.2092273  67.5347519  35.1470923
  11.8154895  67.7362728  34.5922303  84.5417595  25.2520943  48.4831285
  84.3891907  26.1226130  48.8507605  84.5965099  25.3972197  47.5385809
  82.6488495  33.5743570  61.7194414  82.7534676  33.6878276  62.6641178
  82.2644711  32.7029347  61.6239929  78.0447483  29.7225213  46.5315533
  78.4466028  30.1204467  45.7592821  77.1229029  29.6191120  46.2954521
   5.9512693  80.3291702  11.2562370   5.2327263  79.6990013  11.3092387
   5.7962245  80.9309959  11.9842505  19.6725571  15.0508690  28.3672118
  19.9826825  15.5241120  27.5951385  19.0151954  15.6289411  28.7544346
  69.7027779  29.3322515  43.8735867  70.2252007  29.4338131  44.6691942
  70.3483391  29.2667246  43.1698942  67.8006172   7.3540801   1.8930128
  67.0731354   7.9438967   1.6952235  67.7983522   6.7216432   1.1745069
  22.6519942  82.7595139  25.4623437  23.3531284  82.5550079  26.0810661
  23.0839801  82.7779293  24.6083641  41.1339617  43.3052635  59.3980074
  42.0486164  43.0341530  59.4763613  41.1021900  43.8085651  58.5844278
  29.5419478  20.5250621  12.1343303  30.2123547  21.0336804  11.6781592
  29.8011494  19.6132874  12.0012379  14.3423939  68.7281895  62.9506588
  14.3406725  69.5531511  62.4652052  13.9357102  68.9433622  63.7900257
  47.1162748  24.3968129  16.2219739  47.0673847  23.5801220  15.7251275
  48.0530691  24.5385814  16.3581872  77.2837162  18.3461618  35.4399467
  76.7900658  18.6529231  34.6793938  78.1788874  18.2406723  35.1178074
  68.2285070  36.2023163  56.7009497  68.8375473  35.4711676  56.8045092
  68.7910271  36.9704890  56.6023731  39.2750239   5.3634334   4.7386864
  38.9627028   6.2655139   4.6684200  39.8324919   5.3629053   5.5168009
   9.2728227  18.2265091  12.5512195   9.7166419  17.7124619  11.8766737
   9.0590131  19.0538561  12.1199250  58.9353037  27.6998234  56.0771036
  59.6359587  27.3844934  55.5062437  58.1286097  27.4417949  55.6311226
  10.6565154  51.8837738  34.8024392  11.0491395  52.1696520  33.9776039
  11.1596847  52.3389149  35.4776430  17.3750353  43.0397892  66.7015505
  16.4224184  42.9799461  66.7734671  17.5233066  43.5679817  65.9171677
  60.3523636  17.2259068  51.2908697  60.2908134  18.1365407  51.0024452
  59.4447565  16.9589221  51.4364767  40.3113651   6.3190091  42.2291756
  40.4642248   6.3829160  43.1719303  39.3584251   6.3307261  42.1397114
  37.9484677  81.1852646  28.8535523  37.3233676  80.5562019  28.4933257
  37.9159164  81.0405540  29.7991896   1.0572480  15.4920208  19.1294730
   0.7892129  15.6809938  18.2302070   2.0139909  15.4980230  19.1005099
  80.7156849  45.6902170   1.3145016  81.6266441  45.4639816   1.5021330
  80.2169228  44.9190855   1.5843618  26.4044213  33.6732626  51.2794256
  26.6551685  33.1098342  52.0114803  26.9867587  33.4123349  50.5659580
  49.0975428  68.4778309  57.6976347  48.6123705  68.6576891  58.5029221
  48.9544344  67.5454712  57.5349617  26.9987488  66.8601179  11.2742877
  26.9528913  65.9154892  11.4219594  27.2594786  66.9468164  10.3573728
  14.3410695  56.4669847  67.1644211  13.5316181  56.8433046  67.5099659
  14.0667737  55.6496525  66.7485285  83.8554859  50.7964230  70.7244444
  83.1490612  50.8076477  70.0786304  84.6531773  50.6952953  70.2051258
  51.6176033  45.0251245  53.0596018  52.0146513  44.1580391  53.1417418
  50.6976032  44.8897505  53.2865620  83.2876015  16.3892424  45.9219074
  84.0368938  15.8262801  45.7273149  83.6557674  17.1097088  46.4333916
  56.3285303   0.2859283  63.2969809  55.6064367  -0.1842062  63.7138605
  56.8999863   0.5387964  64.0220499   8.7793773  13.7426591  50.6392241
   9.4365668  13.8759756  49.9561739   8.6290431  12.7973604  50.6457233
  37.5893807  79.6675014  69.6574593  37.9239106  80.2429295  68.9695644
  37.3433113  78.8640738  69.1989946  17.9490769  45.5662632  13.5761404
  17.5251281  44.8301363  14.0173018  17.6463151  45.5089569  12.6698935
  77.4499846  43.4533691  61.1604404  77.5323057  43.1502581  60.2562380
  76.9718122  42.7534580  61.6050863   2.5623053   0.5322349  17.6527810
   2.5801387  -0.1311575  16.9629812   3.1612515   0.1991038  18.3210015
  46.4039564  62.0381069   2.8430477  46.0085011  62.6446629   2.2170012
  46.2260818  61.1701775   2.4807045  24.7817206  50.5944729   6.2344658
  25.1714683  49.7947454   5.8812410  24.6143031  50.3929234   7.1551073
  83.9510059  48.0218363  66.7639303  84.1844559  47.9609394  65.8376360
  84.3804359  48.8217878  67.0670748  50.2171659  67.9583168  39.9495244
  50.3172016  68.8057852  40.3831387  50.3728771  67.3154211  40.6413794
  85.7707405  39.1476464  69.1024399  85.3506565  38.4468675  69.6011019
  85.1130390  39.8420596  69.0644836  40.1563454  68.2450771  65.6844616
  40.8642149  68.4526587  65.0744915  40.5534458  67.6470709  66.3176489
   2.1185023  69.5508337   5.4954344   2.8977737  70.1063204   5.4753202
   2.4324216  68.6879349   5.2250791  70.0630856  29.7254395  56.5704441
  69.3641329  29.0721321  56.5405941  70.1992083  29.9725246  55.6557560
   4.3672422   1.1917684  67.8498554   4.2686006   0.2463140  67.9621840
   4.6264699   1.5099502  68.7146044  77.0769930  51.1744213  37.6978755
  76.8253899  50.4897308  37.0780969  77.9679823  50.9437704  37.9608846
  65.5829144  59.1885424  53.7409067  65.4470491  59.4644833  54.6473455
  65.0101328  58.4292173  53.6332846  49.8799706  32.1641827  57.8185844
  50.6789017  32.6912332  57.8061867  49.2191601  32.7212143  57.4071550
  26.0191894   0.3370716  48.9677572  25.1951432   0.6529146  48.5970497
  26.0024929   0.6350966  49.8772240  56.4887571  55.6610298  55.8938742
  57.2594738  56.2150431  56.0175753  56.8034554  54.7723866  56.0597324
  17.4025643  66.2694788   4.1682354  17.8134644  67.0412588   3.7786886
  17.5706720  65.5662966   3.5409307  17.9526639  67.0517874  12.2308528
  17.4114871  66.3970995  12.6721489  18.5372329  67.3794603  12.9143322
  36.1618114   1.8083639  63.6908293  35.9052825   1.9386373  62.7778912
  37.0190859   1.3855168  63.6407280  35.4935455  60.1210976  13.5012841
  35.4204178  61.0356331  13.2283211  35.6127691  60.1631403  14.4500995
  81.2100029  42.4055672  71.0885668  81.4418221  43.1147242  71.6882277
  81.2166214  42.8126621  70.2222729  83.2407475  19.0425444  63.4774113
  82.9948616  19.6937978  62.8204203  83.0622578  19.4687867  64.3156815
  52.3405313  10.2434874  35.3835535  51.7362213  10.7573485  35.9192657
  52.4647236  10.7680202  34.5925593  83.4988976  42.4600649  48.6565590
  83.2665157  42.7677059  49.5326805  83.6350060  43.2606649  48.1498575
   4.5394436  57.0529747   3.8439721   4.7459552  57.8334379   4.3582356
   5.3458977  56.5375137   3.8566065  68.8301134  52.7304077  20.0705981
  68.5693169  51.9417667  19.5949268  69.4763184  53.1499958  19.5026207
   9.0703219  61.3950729  12.1274936   8.7992084  62.3110008  12.0657599
   9.2666262  61.2654114  13.0553317  71.4608908  68.4466267  62.1466589
  72.1524715  69.0697622  62.3694849  71.6695166  68.1657743  61.2556887
  22.4356985  75.7729530   2.4069452  23.0478501  75.0725508   2.1812460
  21.6667700  75.3176785   2.7500319  48.2714272  67.8953075  54.8629522
  47.7398443  67.1497345  55.1418400  48.6850929  68.2087183  55.6672430
  74.1165972  39.4231105  45.3730583  73.4164858  39.3117261  44.7298861
  74.4301748  40.3166437  45.2334261  65.8450174  33.5701585   6.3722736
  65.3039503  32.7927947   6.5107691  66.2094975  33.4550428   5.4946995
  18.3866167  28.1930137  61.7977047  19.3405414  28.2425952  61.8593550
  18.1477773  28.9039087  61.2028790  71.0271692  29.1173244  46.3081312
  71.0727167  29.5611572  47.1549892  71.2911701  28.2164955  46.4953327
   0.9164917  21.6399503  29.0148616   1.5254775  22.3558331  29.1961908
   0.0553704  21.9973397  29.2315960  76.5618801  28.8026547  25.8629847
  77.2929478  29.4087791  25.7430434  75.9051085  29.3107820  26.3391066
  58.9309502   7.4125671  51.9491673  58.3076143   6.8717700  51.4641714
  59.7702312   6.9648564  51.8424225  80.6739426  15.5964303  45.9566307
  80.7469177  15.2012193  45.0878859  81.4606571  16.1350369  46.0415840
  64.4027519  12.8373230  71.4574814  64.3900585  13.7875664  71.3429880
  65.1437473  12.5421941  70.9282732   9.3415135  36.2316227  66.4388943
   9.1031110  36.6714144  67.2549725   9.1904378  35.3028488  66.6143560
  68.1011629  52.3105860  12.5650489  68.6670732  51.6464567  12.9586375
  67.6042700  52.6684093  13.3007765  47.4116707  56.4075422  13.2077169
  46.5585709  56.2329865  13.6051977  47.2053576  56.8257284  12.3717821
  51.2262726  12.7535880  64.9754572  52.0854807  13.0015540  64.6341324
  51.1244297  13.2765496  65.7706738  86.6124535   0.7473233  59.8400116
  87.3626709   0.1604910  59.9350500  87.0002937   1.6118968  59.7046423
  54.9339342  38.0929923  53.0467129  55.1178694  37.8719497  53.9596939
  55.1679611  39.0181684  52.9724455  57.3536777   5.2090603  68.4066057
  57.9216051   5.9741092  68.4982157  56.4661169   5.5589610  68.4843016
  80.8675194  46.9404364  57.8591633  81.7682552  46.7584229  58.1270838
  80.3691196  46.1821842  58.1639290  41.0155869  82.1750546  43.2476473
  41.3808870  83.0206013  42.9871750  40.2826071  82.3974228  43.8216925
  61.4497662  21.5653253  35.7928967  61.4679909  22.4644232  35.4649854
  60.6619501  21.1847186  35.4046798  70.0780630   6.8302155  38.8123894
  69.3400288   7.4342704  38.7307811  70.7172203   7.1452618  38.1732869
  85.1764965  13.1525409  50.5813932  85.0332832  13.6540830  51.3840008
  84.3104744  13.0938232  50.1779127  42.9898453  80.9982586  44.6897173
  42.3138475  81.1933517  44.0407228  43.2121658  81.8493176  45.0672340
  65.4782295  53.6270380  55.6411457  64.8380995  53.4364796  54.9554682
  66.0607815  54.2784548  55.2506065  39.8230839  70.5873680  11.3274109
  39.2543674  69.8391151  11.5088201  40.6696463  70.3406096  11.6998005
  61.7051268  16.6811025   8.9753610  61.1229753  16.1187613   9.4863403
  61.5968561  16.3808763   8.0729347  -0.0861540  55.0682068  52.3035860
   0.5035596  54.7402573  51.6246748  -0.1676834  54.3416643  52.9214191
  62.7683592  52.8504372   9.1369992  63.0344534  51.9736052   9.4137543
  62.0576906  52.6995277   8.5137749  70.7890272  49.9853230  53.0315256
  70.5125523  49.0849638  52.8608179  71.0557938  50.3203487  52.1754742
  29.1983151  11.8463540  59.4495773  29.3245220  11.3200033  58.6601067
  29.7707629  12.6035976  59.3266201  27.0391417  72.7486181   2.7820507
  27.9169083  72.8220701   3.1566995  26.4520860  72.7932882   3.5367715
  83.3044147  25.4522157  69.4313288  83.1425476  24.5089650  69.4136858
  82.8532791  25.7871819  68.6564064  49.4734621   4.0378562   5.0481939
  50.0693464   4.7547626   5.2654433  50.0368595   3.2658446   4.9951592
  74.9671316  58.3392477  63.6695194  74.9216652  57.8007555  64.4595766
  75.3166342  59.1778088  63.9709997  80.8467007  56.4941645  66.8029737
  80.9187031  56.6104746  65.8555984  80.2853966  55.7259512  66.9079876
  21.2351966  25.4670405  44.5156813  20.8821964  25.0223255  43.7450600
  21.1846328  24.8136830  45.2133894   1.5684251   2.7308369  49.4014263
   1.8614841   2.0358843  49.9908257   0.8391945   2.3429540  48.9176941
   5.1304466  44.7872066  65.2302313   5.1572341  45.6848574  64.8989630
   5.7885593  44.3216896  64.7140789  57.0050240  54.6607065  46.2287378
  56.9203281  55.6100082  46.1399317  56.6908884  54.4739342  47.1134233
  70.1278019   8.7116367  68.6481571  69.4727802   8.0426991  68.8474178
  70.9674454   8.2739210  68.7882710  29.5097184  16.0123050  57.3778915
  29.7230172  15.3039169  57.9852819  28.7244010  15.7089317  56.9224024
  43.3832169  45.8096981   8.4043616  42.4278450  45.8124685   8.3452785
  43.6760521  46.1676025   7.5662798  83.5425663  37.7777314  63.2659245
  84.2841911  37.4570394  62.7527142  82.7714825  37.4486995  62.8039742
  87.2617722  70.2146053   2.1474504  86.5193558  70.8179951   2.1162228
  87.4359226  70.0014782   1.2306728  12.8039670  62.0348692  13.0647004
  13.7183523  62.0049191  12.7832150  12.6938450  61.2522602  13.6047244
  87.2481251  47.7110195  47.9927397  88.1595612  47.4246502  48.0519676
  87.1397400  47.9778337  47.0798874  62.6602602  65.1472187  43.2113171
  62.7172995  65.3707552  42.2823334  63.2865667  64.4322681  43.3245230
  66.4861488  50.9835196  64.8514366  66.0567713  50.2033997  64.5003271
  67.1732712  51.1850929  64.2162466   6.3185650  17.5516951  47.4258614
   5.6365031  17.9042780  46.8542767   5.8553743  17.3013365  48.2252407
  12.6080978  49.2294645  40.7187605  12.4270535  50.0660610  41.1471939
  12.7931631  48.6266708  41.4389133  74.5754528  60.5050755  41.6371775
  74.7528696  61.3473654  42.0558786  75.3991461  60.2724028  41.2086630
  57.2717857  79.2812920  65.1623297  56.5726519  79.3407202  65.8134174
  56.8790054  78.8030577  64.4320917   6.1793566  48.4499836  58.6811733
   5.8495867  47.7140808  58.1654835   5.9280223  49.2255831  58.1796646
  23.6446118  66.4947128  33.3540893  23.8534451  66.4674377  32.4203467
  23.4578729  65.5846024  33.5844398  65.5517435  52.9176283  26.5527654
  66.0118246  53.1710243  27.3529840  64.6254396  52.9348850  26.7933774
  70.1403379  10.7182717  40.5908298  69.8770905  10.0134158  41.1825323
  69.7227192  10.5000639  39.7576356  46.2962103  16.1303735  39.9611330
  47.0352602  15.8336699  40.4921722  46.1345434  17.0268035  40.2552605
  50.7371187  30.9582257  54.6567297  51.3949919  30.2850103  54.4829082
  51.0598040  31.7329574  54.1964054  81.8292236  13.6905444  70.1712513
  80.9675121  13.3254838  70.3723049  81.8989182  13.6293614  69.2185545
  52.7441454  32.0144939  66.1859608  51.9358253  31.5118313  66.0850668
  52.9130602  32.3737860  65.3149796  34.2858696  48.4095526  20.4821873
  33.9474869  47.5804853  20.8203816  33.5338783  49.0014267  20.5028248
  23.3625484   3.3762226  52.2277927  23.8765216   2.6096496  51.9739628
  23.9608073   4.1145164  52.1127319  86.3908100  46.6170311   8.7865096
  86.1050034  46.6139364   7.8729790  86.4326954  47.5440598   9.0212262
   4.1322440  38.1545997  52.0407200   4.4712174  38.8607168  51.4905119
   3.2860172  37.9332352  51.6519642  58.6666250  67.0966244  54.8075628
  58.5645151  67.4694920  55.6832218  58.7696505  67.8562260  54.2343092
  42.2245073  18.1083584  20.4890418  42.7539873  17.3289883  20.6577635
  41.3933086  17.9333568  20.9303045  39.6813202   4.4960323  36.8918753
  40.0155163   4.6606210  37.7736092  39.5467973   5.3677773  36.5201283
  86.3348007   6.1477631  21.7559814  86.8052006   6.8588895  21.3209510
  86.3110924   5.4442495  21.1073375  78.2473850  41.9920206  64.2523432
  78.6785746  42.7881575  63.9417410  77.8483248  41.6143894  63.4685230
  62.0210457  28.4870529  38.4446144  62.9651117  28.5875344  38.3226657
  61.6392469  29.2349172  37.9850936   4.6885896  17.2702932  11.6196191
   4.5255929  17.7945256  10.8354986   3.8248008  17.1579742  12.0164633
  67.7687693  35.1610994  14.7492421  68.5259342  34.5883918  14.6270084
  67.6586771  35.2132225  15.6986606  64.3754435  34.8534966  12.9387188
  65.1106453  34.2425942  12.9887736  64.7435999  35.6941414  13.2107639
  12.2512627  49.0350342  28.6816239  11.4563072  49.5447683  28.5252666
  12.3259091  48.9941311  29.6350312  41.5163422  33.7162066  70.1232910
  41.6640472  32.8491759  70.5010128  40.9239149  33.5593700  69.3879890
  77.7918720  34.8944426   0.6223471  78.1316471  35.1520085   1.4793435
  77.2491217  34.1264582   0.8008311   7.3816234  66.8391371   2.8160590
   7.3035032  65.9700441   3.2095155   6.9267112  66.7640591   1.9772203
  75.0621033  36.2945795  39.3706679  74.8148108  35.5986547  39.9795771
  74.7741890  35.9773612  38.5146832  68.9096880  12.6855350  33.7918401
  69.2770147  12.8855133  34.6528339  69.2930412  13.3415258  33.2096481
  64.6127701  42.9310369  63.0614281  65.2687645  43.4778547  62.6291132
  65.1136589  42.4011374  63.6815453  49.2751122   7.5629514   0.4939220
  48.3353949   7.5073177   0.6673151  49.4784880   6.7589486   0.0159568
   5.9718806  36.5282011  69.1187096   5.5328375  35.9886646  69.7762632
   5.3168726  36.6481066  68.4310913  43.8901901  29.8611021  64.1095114
  43.9654589  28.9626336  63.7880707  44.7501612  30.2475047  63.9440584
  21.7232776  49.0103674  66.9440365  21.0810828  48.9029503  66.2424088
  22.5278926  49.2690992  66.4947176  49.3732882  29.9316096  18.6813700
  49.5209360  29.8341036  19.6220744  49.3175173  29.0340877  18.3533812
  76.4144945  19.3487072   4.6052721  77.3446083  19.2149675   4.4229928
  76.0301733  19.5522726   3.7525764  66.6110039  38.8806391  48.7211609
  65.7972908  38.5207558  49.0741301  67.2903395  38.5673285  49.3182945
  12.3895693   1.1229205  62.3720551  11.9426298   0.9563810  63.2019615
  11.9314337   0.5709166  61.7383099  13.8741827  42.0807600  37.6918650
  14.7956431  42.3049307  37.8218246  13.4051359  42.9026604  37.8357506
  67.9076481  30.8427596  14.4142461  67.4533415  30.0573087  14.1094446
  68.8324022  30.5958700  14.4242740  83.4223461  51.3985729  67.1296692
  84.1315842  50.8772135  67.5057030  83.3568192  51.0959148  66.2239456
  48.6181307  77.7963829  17.4768841  47.8114939  77.4461079  17.0988965
  49.3185616  77.3789120  16.9755352  18.4482038  81.6941833  17.7992070
  18.8662612  81.4808178  18.6334324  18.6298954  80.9387779  17.2401226
  30.2699709   1.6351311  39.0268278  29.9084234   1.4686522  38.1563115
  31.2164426   1.6747594  38.8895154  85.4453945  60.7505369  64.0459967
  84.7980404  61.2051725  64.5849514  84.9583530  60.0329161  63.6409712
  10.6844497  67.7934217  54.6270275  11.3977861  67.3441935  54.1736221
  11.0905254  68.5791349  54.9930668  14.5908320   5.2809435  63.2223225
  14.7913969   5.9075183  63.9175987  15.4262209   5.1430869  62.7758360
  50.9589624  25.0611329   3.9703122  50.7318687  25.3225732   3.0779499
  50.7275867  24.1333580   4.0142912  76.6721964  32.1937203  57.8695297
  77.4569607  32.1228719  57.3260593  76.2823057  31.3199496  57.8422832
  16.5835059   9.6585089  64.2125034  16.2123239   9.6259862  63.3308029
  16.8104661  10.5792081  64.3430185  61.1066437   9.6919763  19.0964544
  61.4001894   8.9225447  18.6085653  61.8753862  10.2612388  19.1311288
   8.5002768  65.3813887  10.2445793   7.7957320  66.0277081  10.1985443
   8.7296796  65.3428745  11.1730850   2.6526058  40.6569290  53.3735847
   2.9803762  39.8598981  53.7901592   1.7053054  40.5289745  53.3237791
  82.3962593  42.6837111  29.7129083  81.9213486  43.3656931  29.2379427
  81.8840599  41.8885422  29.5659924  16.1124969  52.2522831  68.5587883
  16.6971648  51.5241480  68.3485126  16.0034370  52.2052765  69.5085955
  72.9739428  33.1099653   6.8085080  73.7156868  32.6098704   7.1490186
  72.5950766  33.5316300   7.5798011   5.9436643  81.9667625  17.4787569
   5.3940588  81.1858749  17.5449526   6.5598553  81.8883991  18.2070422
  76.6840172   3.1845206  16.7018807  77.1948433   3.1623080  17.5110745
  76.0753536   3.9133137  16.8228006  57.5219488  40.5848408  46.0675907
  57.1615124  41.0108519  45.2898788  58.0963421  41.2439919  46.4572430
  19.8793769  19.5366776   5.2409726  18.9864159  19.2735314   5.4637003
  20.4354072  18.8944328   5.6820893  56.2760925  19.5220363  61.6768932
  55.5979443  20.1903749  61.7752171  57.0881319  20.0181675  61.5735626
  57.8456354   1.7579122  40.3408241  57.0075083   1.8968803  40.7817984
  58.1319714   0.8940274  40.6373835  69.6702623   4.1895995  44.7872448
  69.4970083   3.3075815  45.1162672  69.4916010   4.7627363  45.5327797
  63.3710766   6.5928262  60.2343369  63.1788778   6.0566515  61.0036230
  64.2279434   6.2867856  59.9371004  28.9685035  67.2514677   3.5066834
  28.0805111  67.2815657   3.1506008  28.8853121  66.7459869   4.3152612
  37.0277691  80.4130936  20.3759265  37.1529341  81.0465527  21.0825396
  36.1070156  80.1598549  20.4415941  64.2189455  26.4548755  19.2384505
  64.2688227  25.9992814  18.3981061  63.7161350  25.8657026  19.8008442
  62.0321035   3.5231256  71.1167479  62.0143509   4.2231718  70.4641771
  62.4866867   3.9064080  71.8668652  11.8942547  60.7650232  42.8045511
  11.4884806  60.5435276  41.9663858  12.7508545  61.1214876  42.5691748
   7.4465555  31.4188194   8.5194463   6.5185809  31.3727260   8.7496006
   7.4885774  32.0754671   7.8242630   8.6247975   2.9941157  39.4122314
   8.3211911   2.2801116  38.8516498   9.4629824   3.2572073  39.0321541
  65.3209734  37.5232697  64.8196507  64.4213295  37.2260571  64.9558067
  65.8017874  37.1853662  65.5752087  84.3529320  25.0156164  63.5014439
  83.4786129  24.9662328  63.8879156  84.5816708  25.9440923  63.5443544
   4.7458917  27.8840256  49.4052839   3.8748130  28.1999826  49.1652298
   5.2266389  27.8553224  48.5780668  55.3838205  78.0739737  59.4798660
  56.2037420  78.5524654  59.3573761  54.8212624  78.6816931  59.9599075
  64.9173737  15.2962649  32.8065920  65.6979990  15.8384943  32.9199171
  65.1408386  14.7013402  32.0907998  53.9550209  19.4870949  35.7977772
  53.1173182  19.8130536  36.1267781  53.8153601  19.3737543  34.8576283
  37.5285578   2.5107527  38.1841612  38.0807781   2.0460536  37.5553989
  38.1411314   2.8468105  38.8384175  78.0857944  21.6257143  50.6103706
  78.6070585  22.3407578  50.9753799  78.7323952  20.9868479  50.3103924
  14.0536928  24.6010065   9.9542242  14.5427966  25.3504062  10.2939439
  13.7972844  24.1088700  10.7341516   3.8536978  71.5475273  53.7672520
   3.6646166  71.7872953  52.8600645   3.0931735  71.0360241  54.0432930
  75.1944017   1.5907858  58.2171679  74.2731380   1.3825221  58.3725166
  75.2603245   2.5297377  58.3911085  81.5594959  20.0862718  59.6094131
  80.7667828  20.6211925  59.6505356  81.5465832  19.7060716  58.7310553
  56.9002008   5.4896021  39.1104054  57.2549057   4.8996338  39.7755027
  57.5616837   6.1757368  39.0215564  57.4840021  77.0610142  32.6017499
  57.5602150  77.4236155  33.4843278  58.1606197  76.3851547  32.5612330
  77.8839445  33.1647515  33.4922123  77.1928501  32.5321412  33.2961893
  78.6273003  32.8797531  32.9607677  69.0078688  32.3872375  53.6589336
  69.5856476  32.7589107  52.9924011  68.2613230  32.9855466  53.6893845
  40.5515051  82.0672798  58.6295366  40.8627605  82.0262909  57.7252817
  40.2592373  81.1765289  58.8228512  13.8484895  19.7685599  58.4563160
  13.7638330  20.7174563  58.3632421  13.0394495  19.4973159  58.8900328
  33.1118178  24.9553061  16.2651515  33.5763073  24.1230893  16.1762941
  32.3820615  24.8892474  15.6492591  24.4244456  52.3781729  16.8120694
  23.6228848  52.8981924  16.8696070  25.0837946  52.9898691  16.4844763
  22.0096040  46.1200666   5.6178790  22.9452729  46.3218737   5.6122220
  21.9623423  45.2114964   5.9153759  77.7149439  65.6504774  15.2769268
  77.0480824  65.0650072  14.9181163  77.2637272  66.1303806  15.9714246
  26.8376350   3.9131904  38.3429003  26.3607740   4.7412562  38.3989501
  27.5360632   4.0813503  37.7103257   5.9204519  18.2644045  59.7806978
   6.2018621  18.1878269  60.6923866   6.1065888  19.1740870  59.5481825
   1.0264587  76.8690062  43.4751177   1.0538031  77.5195026  42.7734423
   1.9457430  76.6725969  43.6555910  37.8253269  65.4459143  67.5696898
  38.3158469  65.5886412  68.3791637  37.6631522  66.3258410  67.2295904
  73.5186672  42.5589848  26.4918447  73.4745741  42.8160334  27.4128294
  72.6986408  42.8776646  26.1147141   3.7545645  28.1646609  45.4039001
   4.0031216  28.5899472  44.5831776   3.2252541  27.4141693  45.1340437
  78.5391283  29.0761495  56.1462545  78.3986998  28.9559650  57.0854425
  78.7156677  28.1953073  55.8158302   0.3384230  36.8247914  40.8712101
   1.0159099  36.5696311  40.2449989  -0.2467487  36.0684133  40.9124279
  14.1693389  63.7491989   4.8023957  14.0657794  63.1264257   4.0829083
  14.9211168  63.4217978   5.2962255  36.8947148  74.9457502  64.8779345
  37.8387737  74.8106480  64.7958755  36.5434790  74.0750790  65.0644636
   7.9426074  66.3850975  60.7281113   7.8783816  66.4171124  61.6826153
   7.5196117  65.5609465  60.4871035  65.1323843  43.7907553  41.3853693
  64.3739557  44.2939806  41.6816473  65.5668926  44.3625975  40.7525730
  26.8230200  72.3782492  70.6912804  27.3623061  73.1236887  70.4272366
  27.4315548  71.6398621  70.7178497  71.6983700  21.5742731  51.2460327
  72.1665668  21.9238758  50.4878807  72.0745182  20.7042599  51.3795328
  14.6597695  61.7209959   1.0170431  14.2379522  61.8358564   0.1655100
  13.9955711  61.9900990   1.6515937  70.8333778  16.2438428  58.0430794
  71.0616636  16.7401850  58.8290548  71.5732908  16.3790965  57.4510717
  80.6215572  24.1466641  42.8139734  80.4959011  23.7183523  41.9672203
  79.9896669  23.7213111  43.3936501  70.8191490  18.9967728  40.6538296
  71.3644171  18.2150149  40.7419634  69.9884939  18.7569726  41.0646057
  47.7334023  72.8591681  26.7121816  47.8627110  73.4425211  25.9643793
  46.8811941  72.4528551  26.5544367  74.6035957  19.6154702  29.0716386
  73.8001680  19.1100729  28.9479208  74.4448328  20.4358029  28.6046505
  64.4785023  75.3185511  34.7045016  64.4726658  74.7233868  33.9548492
  65.1403999  75.9741449  34.4846821  57.1531725  31.5725803  65.2135134
  57.0378113  30.7111192  64.8125076  57.2156334  31.3935995  66.1517525
  75.2969265  23.0546474  40.4987049  75.7810116  23.7851310  40.1136303
  75.7015467  22.2736382  40.1211643  48.0288601  27.0849013  58.0986071
  48.3068466  27.7792335  57.5012302  48.5809374  26.3370848  57.8701019
  15.0450337   2.8894690  49.4584465  14.3654346   3.5634530  49.4695425
  15.6130695   3.1341073  48.7278843  55.1976252   4.3478450   5.9899914
  55.4656839   3.8181078   5.2391559  56.0160732   4.5563012   6.4404583
  16.6403723  63.1424761  55.9462070  17.1885908  63.4664774  56.6608477
  17.0863914  63.4340620  55.1510525  35.4107871  69.2390050   0.3198509
  35.9521517  69.7233166  -0.3035278  34.5177796  69.5335592   0.1409464
  29.4723845  41.8527079   9.3703669  29.2723441  42.1745825   8.4913832
  28.6293888  41.8547440   9.8237854  49.0256214  63.8885546  18.0100536
  48.3090782  64.3189812  17.5436497  48.7054062  63.7950325  18.9072430
  51.2287474  78.5546350  40.0112867  50.8625412  78.0095100  39.3148923
  50.9233856  79.4389439  39.8088503  45.1013947  77.0925760  41.2841940
  45.2661419  77.8665495  41.8227577  44.8549986  76.4125443  41.9111538
  29.4219017  32.1556783  54.8511076  29.3883109  31.7822480  53.9703941
  30.1147437  32.8145647  54.8056221  70.1663399  80.5918503  65.4767752
  70.0163794  81.5358829  65.5272245  69.3315172  80.2024841  65.7369518
  72.0997334  45.8000326  63.9101362  72.0407581  44.9424839  63.4889889
  72.7184677  45.6717253  64.6291208  84.5395565  43.9224768  45.4405308
  85.3804588  44.3369484  45.2473307  84.2216682  44.3777323  46.2202215
   5.6028795  25.8161545  68.7189150   5.5199295  25.6328225  67.7831030
   4.7163212  26.0455155  68.9975500  23.8377738  51.3456011  47.2557116
  23.6525989  51.4423275  46.3215876  24.7893834  51.2537479  47.3029900
  36.6666007  14.1019583  50.0063276  36.2367558  13.5700274  50.6760406
  36.1924624  13.9004159  49.1996050  78.1784153  46.1806107  49.3430376
  78.7007523  46.0288477  50.1306725  78.3322191  47.1003866  49.1271925
   0.3393775  16.8285346  24.4693089   0.8319262  16.6226888  23.6747932
   0.8324987  17.5390399  24.8794866  49.7902489  66.1946774  60.2804947
  49.5191717  66.3475227  61.1856937  49.1276026  65.5999231  59.9292088
  86.3123989  77.2882795  54.3326139  86.0650635  76.8738413  55.1592350
  87.1679878  77.6801062  54.5077181  17.7337849  24.6341848  38.5308456
  17.9850495  23.7578177  38.8225269  17.3633337  25.0488901  39.3099570
  49.8484612  13.7596750  44.0666199  50.5894518  13.4284651  43.5592127
  49.5068502  12.9901040  44.5219183  60.0003719  37.9133201  51.1461830
  59.6650982  37.2504544  51.7498636  59.2167568  38.3408928  50.8007002
  80.4484177  34.5641518  66.1636066  80.8883762  35.4033780  66.2991095
  79.7021675  34.5854616  66.7626810   6.9514436  22.9487300  65.2293587
   7.3878628  22.9924560  66.0801554   7.4077088  23.5967183  64.6925449
  70.0627279  17.5106633  50.1618767  69.4828987  17.1147180  49.5112944
  70.9388733  17.2170484  49.9121046  23.4771204  14.9181712  64.1970348
  22.7578473  14.7743690  63.5820580  24.2190552  14.4526887  63.8109112
  73.7153292  66.9209051  48.2981777  72.9885149  66.6929626  47.7185106
  74.4985104  66.6556120  47.8160191   0.3889035  17.2672355  62.3632908
   0.1237268  18.1642509  62.5664568   1.1075536  17.3655629  61.7387056
  19.3289900  19.4474471  29.7676945  18.6803806  18.7501228  29.6713853
  19.0830553  19.8930061  30.5783892  33.5699344  28.3656406  58.9716053
  33.9077497  28.8532519  58.2203770  33.0669641  29.0104127  59.4691229
  53.9565182  30.3479123  50.9229994  54.6787596  30.3962803  50.2966928
  54.2843390  30.7975960  51.7018127  67.9218006  12.7856171   9.3386281
  68.2258749  12.4336767   8.5020226  68.6530352  13.3159006   9.6553653
  72.3307180  27.8996944  50.5258179  71.4091015  27.9699564  50.2769852
  72.6658869  27.1730375  50.0005913  81.5631771  44.7953892  49.5453978
  82.0741177  44.4471216  50.2760744  81.2789631  45.6598186  49.8423958
  24.2040110  12.7523267  44.5132589  23.5544372  12.0694876  44.6806383
  23.7783551  13.5620582  44.7950125   0.1165945  21.5041637  65.7328558
  -0.6493554  22.0706058  65.6395912   0.8627138  22.1028519  65.6995249
  17.6951098  14.5238340  50.1543093  18.5718620  14.8295808  50.3868103
  17.1406710  14.8126960  50.8791447  10.0539863  37.2030568  24.5171833
  10.6940532  37.3566771  25.2121282   9.2248404  37.0775533  24.9786997
  38.4773707  74.5934677  34.1845250  38.1074858  74.8862171  35.0174212
  38.7233567  75.4016495  33.7344480  51.7014790  77.1449995   5.5921215
  52.4989033  76.7331791   5.2593368  51.1376238  76.4115000   5.8376300
  86.8782616  73.2685184  34.1624069  86.6399670  73.5971642  35.0292635
  86.0549355  73.2616329  33.6742187  61.9843817  75.2760553  19.1469955
  61.1959648  75.1541948  18.6180520  62.6959801  74.9532747  18.5941195
  73.9747381  53.4186363  25.4444861  73.3317375  52.8094292  25.0816607
  73.5019350  53.8823891  26.1355901  56.4065695  62.4067116  24.9527168
  56.2770939  61.9463205  25.7818794  57.2045088  62.9185915  25.0850415
  62.6999617  49.7259617   1.9521803  62.9638672  50.3558111   2.6229078
  63.2450294  49.9399281   1.1949807  52.2224617  82.7380943  29.8007298
  51.6803217  81.9517422  29.7377110  51.9116116  83.1806564  30.5905032
  56.4268064  56.8747711  20.1420569  55.8614731  56.1503744  19.8739529
  55.8210945  57.5552130  20.4359007  45.5118132  79.2867136   9.2396837
  46.3420391  79.6492338   8.9305955  45.0328016  80.0420380   9.5806712
  12.6095533  78.9189339  18.5460675  12.8699863  78.0010986  18.6234128
  13.3777905  79.3557119  18.1782758  43.0849218   4.3755865  42.5120497
  42.7907372   3.7712783  43.1935883  43.6136293   5.0232428  42.9781389
  74.3394136  33.3388996  64.1009998  74.8746920  32.6005149  64.3916750
  73.7453175  33.5066843  64.8325253  58.0364084  21.3212347  50.5606794
  58.7352562  21.5472531  51.1744881  57.6776934  20.5003405  50.8978653
  68.5516787  71.4859009  26.3158083  67.7412701  71.0342360  26.0802984
  68.3524561  72.4142408  26.1944222   5.7541752  14.5836759   8.0430108
   5.0127810  15.1700032   7.8920555   5.4468304  13.7274098   7.7453864
  47.2513342  55.5033541  36.6208124  47.3261118  56.3110495  37.1290135
  48.1203079  55.1055193  36.6741204  17.4811888  18.0886877  50.7508516
  17.8992212  17.7118492  51.5251064  16.7108381  17.5399554  50.6035948
  16.9719493  22.3246145   2.0594035  16.0722256  21.9985151   2.0790882
  17.3016882  22.1713376   2.9448470  17.5739896  12.3090661  44.0541553
  17.1055639  11.4835870  44.1782236  16.8832767  12.9603601  43.9318275
  19.9738169  10.5725646  17.5803316  19.7612333  10.6210160  18.5123682
  20.3961945   9.7200757  17.4750066  62.9145432  45.1903248  25.5871081
  63.8532829  45.0635624  25.4495311  62.5289726  44.3314934  25.4139614
  48.6088705   6.1233580  29.5915866  48.0347872   5.6804883  30.2165079
  49.4589663   5.6980669  29.7042656  80.2776527  29.7982931  42.4092674
  80.4132175  29.3201327  41.5912151  81.1494255  29.8558807  42.8003311
  70.7321882  66.4841938  22.6252484  71.0851145  67.1254969  23.2420158
  71.1384583  66.7083120  21.7880225  17.0929849  39.3837619  39.2825818
  17.0705843  40.0196505  39.9976873  17.7521896  39.7256637  38.6786079
  24.3972754  25.0863695  27.6029754  23.9637971  24.9098754  28.4379458
  25.2862620  25.3460717  27.8448176  37.4566507  57.8422785   7.9283655
  37.6409674  58.7810659   7.8977412  37.6865125  57.5244570   7.0552188
  10.8574986  23.5071564  29.0340018  10.4186463  22.9179859  28.4203911
  11.3161039  22.9243731  29.6392083  23.1438589  35.0296044   8.4698671
  23.2298708  34.0876985   8.6170006  24.0074062  35.3847671   8.6805201
  70.2769089  67.3767328  35.0551534  69.3902826  67.5877476  35.3477240
  70.8082914  67.4208069  35.8500886  57.0158386  11.1324954  16.9031429
  57.5956154  10.5634987  16.3968527  57.1106100  10.8287203  17.8058994
  68.4662676   7.1597433   4.6817863  67.9252386   7.7812219   5.1689011
  68.3434582   7.4031192   3.7642252  22.0297074   5.9534729  28.5421944
  21.8224740   5.0272268  28.6661029  22.9309678   5.9562141  28.2197785
  51.2938499  50.6569529  44.1003799  50.7499933  49.8801136  43.9700842
  51.8707943  50.6762266  43.3368349  52.5498199  68.2439518  69.2942905
  53.4758568  68.2668400  69.0531063  52.5481367  68.3355665  70.2470922
   1.8402980   0.5398319  39.2968726   0.9008707   0.6912336  39.4007277
   2.2036684   1.4061481  39.1133261  17.2770905  33.4012866  21.8137741
  17.0338106  32.6550293  22.3616314  16.4421499  33.7961817  21.5624475
  35.4548645  41.7169571   0.5560990  35.3630686  40.8021688   0.8224927
  35.5763435  42.1943760   1.3767971  32.5861549  46.9144106  64.7186852
  32.0923018  47.2361279  63.9644718  33.5027933  47.0599127  64.4845152
  33.3020425  49.2754316  68.8699055  33.1510210  49.0463877  69.7869492
  34.1977429  49.6125031  68.8516045  43.4788179  53.9732027  20.2744102
  42.6515150  54.4292355  20.1200223  43.2738304  53.3275461  20.9506774
  40.1922750  58.5032701  14.7950327  40.8159781  59.0087843  15.3162658
  39.3360853  58.8556385  15.0379562  85.4332638  57.9389620  41.5269709
  85.7001877  57.3627520  40.8107567  85.2061653  58.7642288  41.0984945
  60.4113102   6.2924111  25.8641768  59.6588516   5.9701288  26.3603401
  61.1177683   5.6827974  26.0775208  14.6593475  28.5111833  23.6531734
  15.3740060  27.8971958  23.8220310  14.2143524  28.5984540  24.4961405
  26.2004304  15.7272637  33.3545065  25.5108213  15.1809978  32.9773235
  26.9644904  15.1523304  33.3980513  21.9815683  74.3360424   6.7217809
  22.1975994  73.7393904   6.0051447  21.1438036  74.0155697   7.0559645
  31.8001294   0.3830780  14.4103205  31.5967226   1.3165426  14.4694936
  31.7938185   0.1956028  13.4716809  20.8577561   5.7761765  20.5598474
  20.3922558   6.3355833  21.1816216  21.6162300   6.2950844  20.2921104
  57.8647470  77.6726198  19.7544742  58.0443144  76.9158363  20.3123879
  58.2399130  78.4144306  20.2290249  86.3011456  14.6231401  35.9781814
  85.4996204  14.2831981  35.5804133  86.0287094  14.9266398  36.8441486
  26.4435887  42.5519371   3.0690601  27.3509145  42.5168228   2.7661476
  26.3314247  43.4481287   3.3860660  67.7313709  77.1521568  30.9958768
  68.1607771  76.5775585  30.3620982  68.4340572  77.7119398  31.3261962
  53.9091587  55.4282570  54.4786978  53.6908340  55.7910776  55.3371429
  54.8589182  55.3115511  54.5025015  32.4896717  82.0950985  71.5016460
  31.9016266  82.3607349  72.2086620  31.9343162  82.0771217  70.7222319
  76.6819572   7.5218934  17.6772594  76.4338255   6.9690859  18.4182513
  77.5963163   7.7503830  17.8445077  71.8840981  14.0300691  30.2099967
  71.4260578  14.0860832  31.0486221  72.6622152  14.5754993  30.3251839
   0.7434286  67.6948643  20.9809732   0.6053316  67.3866940  20.0853205
   0.4616733  66.9644308  21.5317106   7.0328546  20.3225255   2.1802256
   6.3547379  20.9821653   2.0344004   7.0325023  19.7976530   1.3797633
  78.0968046  11.0330212   8.1239843  77.4083757  10.4291868   7.8452778
  77.6266336  11.7617774   8.5290557  14.0453506  36.9776249  35.7566237
  14.7423661  37.2727251  36.3425565  13.3661318  36.6426730  36.3420320
  53.8968372  71.6049719   2.4557450  53.8720417  72.4514437   2.9019579
  53.0188179  71.2439299   2.5780621  12.8964937   4.6529409   1.8674481
  13.3818579   4.4324669   2.6624608  13.4127927   5.3460884   1.4560929
  17.7838254  24.4466639  24.9078727  17.1673357  23.7213349  25.0082207
  18.4337103  24.1240025  24.2835569  75.7405090  21.0978508  61.6284323
  75.9014511  21.1086392  60.6849241  75.6173086  20.1724482  61.8398237
  51.9143343  81.0750961   1.6826478  52.8035355  81.3367176   1.9216244
  51.4033222  81.8823719   1.7409615  86.1030388  58.5871935  35.2778602
  86.9042015  59.0937567  35.1445508  86.2668896  57.7574921  34.8295522
   5.3019762  61.9352102  69.2387009   5.5716401  62.2666979  68.3821774
   4.7668588  62.6369286  69.6094704   1.5402505   4.7098723  14.6680236
   0.6899253   4.8892909  15.0692558   2.0146003   4.2042586  15.3280067
  42.7044487  56.1392164  13.3515298  42.1012831  55.5597782  13.8170123
  42.1357870  56.7347479  12.8634715  36.6790533  60.4522276  65.8170986
  36.3249230  60.0167370  66.5924501  36.6953731  61.3804626  66.0502291
   3.9866894  66.0235023  11.7791462   4.2530000  66.7978239  11.2834239
   4.1811374  65.2883577  11.1977839  74.0775347  15.3705454  31.0417795
  73.7199497  16.0069752  31.6609097  74.9360800  15.7220411  30.8060241
  18.2927966  44.2028952   7.4261373  17.8998041  43.4010983   7.7709711
  17.6458788  44.8843908   7.6086146  42.2189713  43.8168430  19.4838238
  41.3633108  44.2136574  19.3206775  42.5440025  44.2617655  20.2665305
  44.1960526  47.1891356  70.1277685  44.4707966  47.2107792  71.0444355
  44.7068882  46.4778233  69.7413540   7.4265808  47.8643560   8.4484291
   6.5233833  48.1731272   8.3768225   7.9496193  48.6642313   8.5019219
  42.0644665   2.4376190  62.5239325  42.7501917   2.9938382  62.8935719
  42.4190617   1.5503561  62.5810003  76.2759352  11.7198348  13.6701798
  76.7959833  10.9723926  13.3750367  76.3414288  12.3540461  12.9562342
  10.0291491  41.3154411  25.7631874   9.3135554  40.9494114  25.2433991
   9.7694862  41.1598969  26.6712689  10.2444494   9.2126799  32.1007371
  10.4091656   8.7056595  31.3057327   9.6808326   9.9312741  31.8140483
  42.8902531  11.3213480  12.0801854  42.7963972  10.6144011  11.4417124
  42.1698332  11.9198084  11.8825233  47.2860909  62.4853945  24.4365311
  47.3166370  62.2066402  25.3517318  46.5140200  63.0486965  24.3833685
  49.3893480  67.3073578   2.4664268  48.5110569  67.1977615   2.8308737
  49.9611425  67.3629236   3.2320604  84.8382187  47.8832865  36.3937211
  85.6875801  47.8654671  36.8347502  84.9094391  48.6022282  35.7657981
  69.6495152  64.0137720  51.1501980  69.9207211  64.3683720  50.3034782
  68.7120199  63.8478518  51.0511971   5.5985278  44.7777843  34.8574924
   6.0146904  44.2791986  34.1543174   4.8660594  44.2295122  35.1387763
  78.3653784  26.2926149   4.0722758  79.2614317  26.1767840   3.7561995
  78.4328699  26.9769216   4.7381598  25.3334689  37.3840737  60.8619308
  25.3782630  36.5242648  60.4436541  24.5536184  37.7927780  60.4863930
  38.5185766  20.5143118  44.5214987  37.7273488  20.9978080  44.7590351
  38.5974383  19.8384488  45.1947165  17.6880872  13.3856082   7.2770506
  18.2531178  12.6302207   7.4394172  16.9776738  13.2942033   7.9120231
  41.0783625  19.9199402  23.2708478  40.6714916  19.0821970  23.4919167
  41.2712955  20.3232479  24.1172218  78.0443239  22.7457571  46.5104198
  77.9572630  21.7939949  46.4574814  77.7301359  23.0624795  45.6635380
  20.2840567  11.4857900  58.1898451  20.3244734  11.2077224  57.2748184
  20.9938717  12.1218264  58.2784653  26.4326310  10.7624471  13.0510581
  26.4324641  10.8344674  14.0055442  27.3528767  10.8540964  12.8041112
  38.1196856  77.6978016  67.6504469  38.7741446  77.0204735  67.8211498
  38.4800124  78.2002831  66.9197559  63.9189625  81.3076878   0.9445668
  64.6755838  81.2120628   0.3661119  63.6721516  82.2291565   0.8657366
  80.0978756  24.9886894  67.9833984  79.6506071  24.2677021  67.5402737
  80.8816338  25.1443553  67.4564075  64.3811321  67.7261209   1.9613567
  64.9531698  67.4523735   2.6783425  63.5308790  67.8726101   2.3758948
  83.0162716  21.0708499  61.8341064  83.8742161  21.1779976  61.4233923
  82.4094486  20.9759283  61.0999537  13.5371518  60.2693748  65.4395342
  12.7671397  60.5712652  64.9576855  13.8759518  59.5417309  64.9180222
  12.7367210  18.0304241  64.8192072  13.2895112  18.5123515  64.2040634
  12.5516856  18.6583507  65.5175638  23.4968162   0.3448375  55.2857256
  23.7318301   1.2715417  55.3328419  22.9147673   0.2070585  56.0330343
  54.0288115  46.3612604  36.8124270  53.4115505  46.9154310  36.3348126
  54.7213554  46.9599438  37.0920539  62.4173546  42.1853733  16.2269390
  62.2865582  43.1088877  16.4419901  61.7949486  41.7190361  16.7849493
  71.5277481  58.3456039  16.1803901  71.7614555  58.1700277  15.2689147
  72.2407055  57.9594421  16.6891110  59.7873116  66.1997366  25.9581280
  60.5195189  66.3005686  26.5663552  59.5985365  67.0898199  25.6608915
  64.6402025  53.1071568   5.6249887  64.8302984  53.7662935   4.9574280
  65.3424931  52.4633408   5.5327147  39.7793007  30.6131387  66.7124176
  39.4095063  30.1145864  65.9837723  40.1977444  29.9537277  67.2658730
  39.0566444  24.7026253  60.7733965  38.5827088  23.8842678  60.9214115
  39.1952062  25.0610852  61.6500616  70.7062101  66.3877106   9.0361351
  70.0506306  65.9255743   8.5137546  70.9283209  65.7756376   9.7377509
  49.8815298  46.4406538   4.7145665  49.3870068  46.4505243   5.5340672
  49.7501230  47.3137999   4.3449971  75.9136057  79.4513750  19.8060513
  76.8341970  79.1914415  19.7717047  75.8954859  80.1885509  20.4163575
  56.2739325  70.1555634   2.0843320  56.1830187  69.5218325   1.3727470
  55.4033756  70.5437183   2.1720454  40.5956841   4.8824829  63.5271311
  40.7351685   3.9524555  63.3487368  39.6830678   4.9377561  63.8105249
  44.4500017  30.8195162  10.5932844  44.6214914  30.4756331  11.4699650
  43.8807297  31.5750194  10.7394826  74.7053576  48.3275461  17.4945927
  75.3104067  47.8504419  16.9266832  75.1990604  49.0971899  17.7776885
  70.0199938  57.8622007  23.0149221  69.2276573  57.7166700  22.4979591
  70.3619862  56.9838333  23.1814981  21.1372018   2.8666657  56.7411232
  21.1805272   2.3901722  55.9120846  20.9737134   3.7749422  56.4870834
  68.0517912  76.4631462  43.7864685  67.5951052  77.2828913  43.9753723
  67.8461599  76.2801743  42.8696966   6.8225372   2.6051581  43.9019251
   7.1982908   3.0337006  44.6709442   7.1379703   3.1228733  43.1611776
  23.8723493  11.4427567  57.6394939  23.9725709  10.5987358  57.1992493
  24.7424674  11.8394756  57.5977564  65.9415722  28.5875797   1.5030941
  66.5792465  29.2712259   1.2975994  66.4603853  27.7851248   1.5590565
   2.4742930  79.1687965  54.7121859   3.1083500  78.6809254  54.1866541
   2.7841544  79.0715027  55.6126022  87.3180866  14.9145579   1.2025983
  87.3107624  13.9601278   1.2750033  88.0386829  15.1036441   0.6015876
  33.3140683  55.8915615  13.8152337  34.1326451  55.4956818  13.5161591
  33.3539486  56.7934704  13.4971225  22.2411942  17.5663257  55.5358410
  23.1652904  17.8147411  55.5596924  22.0947552  17.2745669  54.6360302
   6.2738425  59.5991325  61.5098095   5.8427584  59.0339613  62.1508884
   5.7920015  60.4249096  61.5561819  12.1358657   2.9826498  26.7814517
  11.5863168   2.2204587  26.9639111  11.5276742   3.7217945  26.7807794
  85.3298759   3.3030346  20.8318567  86.2385464   3.1106812  21.0632515
  84.9140549   2.4438885  20.7597947  47.5151634  68.2013988  32.4872136
  46.9581842  68.9709663  32.3698997  47.5913334  67.8249598  31.6104436
  70.0508881   3.8511759   8.7004203  70.5818319   4.2654991   9.3806195
  69.7272015   4.5805421   8.1717604  54.2784500  81.3182545  45.4351950
  54.6990013  80.4807472  45.2403784  54.1778135  81.7399693  44.5818186
  17.7589595  24.6295333   0.4774364  17.6198351  24.0176105   1.2002265
  18.7076938  24.7529411   0.4473418  62.9284954  82.2243500  19.2182958
  63.8235521  82.4660683  19.4563639  62.8924465  81.2772751  19.3523967
  11.8148899   7.8010273  62.5461769  12.2382414   8.6397731  62.3631191
  10.8848679   7.9624397  62.3873186  71.5019226  45.6896257  49.6656752
  72.3217249  45.8576393  49.2010021  71.5783596  46.1933231  50.4760313
  37.2486782  78.9598846  14.8922169  37.2816205  79.6140862  15.5901933
  38.1552029  78.6687279  14.7938645  37.9528880  64.2075968  26.9151688
  38.5544062  64.9329233  26.7469263  37.9574561  64.1085577  27.8672218
   1.2242636  27.4008465  10.3728139   0.7887779  26.5576959  10.4980278
   0.5094532  28.0199027  10.2243292  48.5660219  15.1340103  57.4196815
  48.8953352  14.8230982  56.5763998  49.3012571  15.6130195  57.8020620
  19.5617235  67.4936295  34.4385743  19.5500529  66.7873478  33.7926149
  19.2632854  67.0816040  35.2493787  27.5797319   1.0431566  52.6720381
  28.2662225   1.5531138  53.1020451  27.9584122   0.1700113  52.5698185
  13.7673676  21.4112401  70.0086212  13.4866536  20.5993390  69.5864248
  14.1725671  21.9190645  69.3056583  59.4784689  72.2289085  26.1311817
  59.2915392  71.2966299  26.2413716  58.6659813  72.5966406  25.7835150
  57.8269625  38.9225936  15.9925866  57.6469946  38.2397008  16.6387296
  57.2632599  38.7045646  15.2503383  76.9286203  32.6589870  15.0359392
  77.4190998  32.8332376  15.8392441  77.3254013  31.8635702  14.6808171
  51.3881350  59.1090393  10.4170024  52.2771549  58.7547922  10.4365635
  51.2351990  59.4216537  11.3086951  23.2176423  31.6369319  53.0731392
  23.6205077  31.4004230  52.2376776  22.4254823  31.1014175  53.1171608
  40.6819868  57.0779037  30.2124619  41.2926102  56.3531923  30.3472400
  40.3431940  57.2713518  31.0865498  18.1745708  50.5589628  71.4095545
  18.4044886  51.4422941  71.6978121  17.2729778  50.6359529  71.0974121
  51.5624523  37.6358175  64.4325924  51.8452835  37.8763437  65.3148508
  50.9538221  38.3296061  64.1787004   8.4529221  33.6230159  64.7933245
   7.5825167  33.3471513  64.5060539   8.5323185  33.2776260  65.6825018
   8.5038459  21.8036461  19.0747380   7.8945607  21.6019249  18.3645892
   9.3449348  21.4599991  18.7735593  75.3442669  47.4334192  63.7727642
  75.8899355  46.8450308  63.2509565  74.4673872  47.0526505  63.7244987
  19.0645385  65.1114893  14.3505502  19.5094264  64.2866230  14.5452261
  19.7727227  65.7257271  14.1570985  73.8204765  57.6874971  17.1697879
  73.9259863  58.0071783  18.0658388  74.4657087  56.9851446  17.0885301
  21.5896249  42.2429276  69.5041513  21.5563679  41.4214230  69.9943113
  20.7021570  42.3545599  69.1633129  56.5823793  33.8023543  48.4970236
  57.3906136  34.0165949  48.0310965  56.1304140  34.6409225  48.5906458
  29.6188712  44.7555590  69.6847820  29.9505377  45.6099558  69.9608755
  30.3953934  44.1969347  69.6503067  81.8926907  27.1643806  71.3736773
  82.4224758  26.3893127  71.5603018  82.1433353  27.4175858  70.4852581
   3.2298002  52.6917458  38.9223695   3.8708210  52.9916477  38.2778668
   3.3991706  53.2287598  39.6964264  14.2521906   5.3947127  37.5066519
  14.0342927   6.1366165  38.0708599  13.9632773   4.6263903  37.9990363
   2.5427538  79.6280336  46.8107700   2.4838829  78.6942625  47.0128441
   3.0437690  79.9991417  47.5370598  60.4480648  50.3838205  10.7541692
  61.2156391  50.7639933  11.1814082  60.5646706  49.4385195  10.8492208
   6.0501218  22.0733809   7.6816058   6.4582878  21.2300110   7.8774613
   6.3868427  22.6645494   8.3549339  82.9625988  60.8314991  30.8138824
  83.3595848  60.0045252  31.0872912  83.3343506  61.0010004  29.9482608
  54.9576330  79.7172403  11.1007392  54.3948317  79.8407650  10.3363919
  55.7737064  79.3673038  10.7432413  11.5153933  24.0595531  15.0517666
  10.8868766  23.7819910  14.3853152  11.0921323  24.7997975  15.4866433
  13.4116292  28.4821010  20.5666375  12.8661668  27.7255225  20.3514862
  13.9367878  28.1941700  21.3133192   8.2065320  16.2923276  64.2942429
   8.6607790  15.4621303  64.1504955   7.5189900  16.0828316  64.9264050
  77.6387501  67.7456856  46.0897064  76.7629910  67.3593140  46.0901976
  77.6433182  68.3296490  46.8481255  85.4080963  71.7740583  12.4453044
  85.1200962  72.3063040  13.1869280  86.1991692  72.2109699  12.1298158
  27.6664495  30.1068139  43.5546064  26.9122624  29.5795512  43.2911110
  27.7128029  30.8028674  42.8991747  43.9471865  63.3916283  36.5954328
  43.5815144  64.1197777  37.0977402  44.3628693  63.8068247  35.8397532
  11.4224982  62.5057411  44.8839426  11.6482902  61.9608259  44.1300774
  10.8545196  63.1875515  44.5251083  27.4747825  23.7867355  51.0111809
  27.0063448  23.9861226  51.8217611  28.0746245  24.5233774  50.8937931
  22.7731133   0.3503424  18.6521399  23.5254908   0.5956473  19.1906440
  22.3200631   1.1764161  18.4830880  40.8369255  24.5589066  43.2191086
  40.9953976  23.8719106  43.8665295  39.8957276  24.7250652  43.2716894
  22.3768020  17.4624860   5.9458864  23.0244136  16.8535769   6.3009346
  22.5373578  17.4595356   5.0022525  17.1815193   2.4659698   3.4308261
  16.7062891   1.6486667   3.2811454  18.1046593   2.2220731   3.3633131
  66.0599899  80.1042175  24.8192096  66.8997860  79.7725153  24.5014930
  66.0879374  81.0430241  24.6345520  36.6529822   1.2416703  55.6047297
  36.8350506   1.6098614  54.7401381  35.7139397   1.3782679  55.7303190
  42.9672480  34.6267867  66.2278080  42.5851250  33.7836051  65.9843779
  43.9107180  34.5000124  66.1277246  79.1127062  31.2819481  44.4609213
  78.4732676  31.7028570  43.8862991  79.5896864  30.6808019  43.8887739
  47.6991034  70.9736538  29.1196084  47.9405499  71.6894913  29.7074103
  48.4806061  70.8274794  28.5865784  17.6585758  62.1461868  29.3729234
  17.3927796  62.5429630  28.5433722  17.1037769  62.5682211  30.0289106
  77.9200459  58.5017252  12.5693107  77.9996252  57.5523376  12.6618850
  77.0564127  58.6326456  12.1778679   8.7502557  79.7179174  10.7973039
   7.8073686  79.6133518  10.9248304   8.8986903  80.6607342  10.8700919
  34.4812489  25.1831818  12.3507583  34.8944902  25.3765273  11.5092838
  34.8868060  25.7967591  12.9633570  72.0345449  54.1449594   1.0443577
  71.8589735  54.9848461   1.4686170  71.1725092  53.7399340   0.9490595
  19.4958782  30.5354643  55.9418535  19.1572356  31.3293576  56.3557196
  20.3893828  30.4539490  56.2753773  24.8377466  28.3257794  69.8055077
  25.4691887  27.8911757  70.3787708  24.6048045  29.1290116  70.2711153
  37.9044485  25.2019095  70.2364969  38.0838442  25.8147597  70.9495640
  37.0131445  25.4125333  69.9582005  51.7428589   3.1277978  16.4408410
  52.4514151   3.3486289  15.8363461  51.3972330   2.2980148  16.1118484
  62.0803976  73.6449814   8.7672305  62.3144197  74.5601273   8.6123794
  62.6632881  73.3648157   9.4729036   7.0447636   3.1602773  14.1844034
   6.1814910   2.7496564  14.2332125   7.5836295   2.6584080  14.7959447
   1.7368963  35.5228019   6.3000500   1.6114293  35.7553196   5.3800362
   1.1885181  36.1428452   6.7807347  82.6944923  45.1482153  32.0402789
  82.1978855  45.8894873  32.3868632  82.1848583  44.8496819  31.2870336
  79.4821453  67.1347713   2.3471630  79.5570612  67.4956179   1.4637548
  80.3447151  66.7608261   2.5270817  80.5110550  57.5750494  11.2010312
  80.4944420  58.5320807  11.1937344  79.7262478  57.3255920  11.6889584
  79.7069931   6.5632170  35.4915023  80.6522560   6.4871222  35.6215668
  79.4054413   7.0923179  36.2299800  34.3199158  57.8394508   5.7459325
  33.6791563  58.4839869   6.0463202  35.0998473  58.0135489   6.2728411
  83.8968468  12.4590087  29.3479848  83.2597637  12.2960258  30.0435328
  83.3867359  12.4095523  28.5395455  52.7461386  53.1309748  54.4274950
  51.8476105  53.2688761  54.1277313  53.1048012  54.0132713  54.5231247
  66.1841631  39.5089555  70.8386183  66.4608097  38.8869667  71.5115452
  65.9019136  40.2815914  71.3281107  22.0424771   4.6721449  67.2063684
  22.9200029   4.8466438  67.5465584  22.1734691   3.9964536  66.5411472
  20.9272456  30.5362177  36.4869285  21.8575382  30.5494714  36.7118931
  20.8657289  29.9181151  35.7586432  41.4250326  15.1063251  12.9950631
  41.5359068  15.6362224  12.2056663  41.1551332  15.7318330  13.6674643
  45.3181982  64.9038458  34.7737074  45.7711077  65.3602934  34.0646529
  45.8305597  65.1083326  35.5559492  73.8804436  73.3864260  34.7499871
  74.6979141  73.6776066  35.1539469  73.5107040  74.1784286  34.3597889
  61.7742634  57.3832083  31.1571813  60.8409262  57.3868656  30.9448028
  62.1246195  56.6285133  30.6839800  85.9551048  78.4191513  59.0597868
  85.6505299  77.8726244  59.7841930  85.1573277  78.8080931  58.7013054
  28.4226251  30.5653405  69.7471333  28.6019874  31.3465500  69.2238998
  28.0081391  29.9571419  69.1351509  54.5042992   1.4480138  35.7230210
  53.8532162   1.9685215  36.1935449  54.2699671   0.5401811  35.9157872
  14.3803811  23.6177444  12.3902822  15.1701570  23.3533287  11.9185102
  14.2390859  22.9203820  13.0305576  37.2877574  41.2186480  64.5776463
  36.6811419  40.5132246  64.3526363  37.8142428  41.3427973  63.7879419
  59.4398308  62.0391846   3.7274459  60.2850294  61.5923262   3.6805961
  59.6633577  62.9651022   3.8219967  12.5455379  68.9576054  40.5942583
  12.6773977  69.8507166  40.2761412  12.3560476  69.0610409  41.5267944
  79.9190569  70.8740997  68.2329512  79.2986822  70.4834270  68.8483763
  79.4137621  71.5487337  67.7793264  21.0963750   7.8747112   4.4534212
  20.7229900   8.7545896   4.4021398  22.0072603   7.9847980   4.1806555
  23.6350989  26.2085319  49.9846888  24.5148730  26.5150237  50.2044439
  23.5166717  25.4203701  50.5147886  74.6196699  81.6278839   7.0949435
  74.9582863  81.8671894   7.9576719  75.3240776  81.8577385   6.4889669
   2.4190041  16.9281697  13.3972836   1.5707397  16.7382085  12.9965413
   2.7062646  16.0896969  13.7587750  83.9692020  41.4011192  41.9600344
  84.1671658  42.3337078  42.0455790  83.2757187  41.2437201  42.6007700
  59.0729952  17.2099817  64.3391991  58.1299305  17.0614016  64.4083786
  59.1542530  17.9673326  63.7595034  38.0371332  33.6854815  18.2508612
  37.1588731  33.3208323  18.3600378  38.5033941  33.0342674  17.7266943
  23.7020659   4.6531731  16.0973275  23.4085941   4.3312398  16.9496560
  23.4503818   5.5766666  16.0904992  45.9031248  79.6782541  19.8519826
  45.8278751  80.5652142  20.2039313  46.8456602  79.5307112  19.7739267
  55.7051992  47.4063253  64.2842484  55.4255390  47.8004885  63.4580183
  54.9021816  47.0484114  64.6627855  14.4177294   3.2998738   3.7878957
  15.2456415   3.0915761   3.3549935  13.9289343   2.4769361   3.7786508
  28.3993626  30.3816533  64.4080448  27.7189636  30.8370614  64.9039173
  29.2099333  30.5775976  64.8779535  54.0062618  77.0122480  71.3755512
  54.5239592  77.7963495  71.1927748  54.5931149  76.2844992  71.1700726
  19.7762287   1.1768473   2.4431023  19.8224103   1.0655563   1.4935163
  19.6664762   2.1193990   2.5687304  54.9736452  79.7646284  33.8582277
  54.4949532  79.0806675  34.3265033  55.8818531  79.6577978  34.1410184
  28.3213758  74.9275446  56.1590385  28.9833307  74.3517351  55.7762957
  28.6604929  75.8110523  56.0153627   1.5864603  35.9995174  54.2373037
   1.8508343  35.3154230  54.8524094   0.6468746  35.8626270  54.1161823
  22.4121857  10.6765580  19.6034348  21.4725494  10.6193841  19.7767746
  22.6997972  11.4465952  20.0938988  74.8737001  68.9969826  32.0993900
  75.0804090  69.6383381  32.7792168  75.6354141  68.4177399  32.0770144
  22.2307086  56.1602879  57.4603987  21.8104029  55.4629374  57.9636621
  21.7053652  56.9388723  57.6449442  54.5521355   7.8752851  53.7313318
  55.4147530   8.1945682  53.4664059  54.5417213   7.9752374  54.6832418
   7.0723528  54.3820190  37.8608418   6.7980266  54.5112848  36.9529510
   6.9110900  55.2261829  38.2822824  52.8594589  67.5923157  11.5600634
  53.3067799  67.4575901  12.3955178  51.9475555  67.3610210  11.7366028
  78.8479376  37.7888155  64.9783945  78.7531567  38.2597423  64.1504574
  78.3664751  36.9721889  64.8459244  49.2327547   5.1940662  35.9193134
  50.0699472   5.1632321  36.3823318  48.7844563   4.3899035  36.1811948
  85.8652020  40.1341724   3.8789195  85.3305244  39.6182036   3.2754833
  85.3754234  40.9480762   3.9968738  24.7267056   9.1445535  14.6616590
  25.3493690   9.2569274  13.9434004  24.0109301   9.7453123  14.4543290
  80.7495022   9.4321680   0.1284178  81.3947487  10.1218688  -0.0271550
  81.1331558   8.8976616   0.8236507  52.0140886  50.0462675  69.1841269
  51.5045404  50.4336739  69.8958206  51.4317560  50.0825548  68.4253073
  61.4386320  76.3852739   4.2363685  61.5214491  75.5124235   3.8523048
  62.3191309  76.5942335   4.5482823   1.5994710  68.7809324  45.0590420
   1.9124077  69.4355154  45.6833982   2.1717913  68.8824701  44.2985392
  57.1642685  67.5289774  16.4989030  56.7858219  67.7472830  17.3505783
  57.8103113  68.2172537  16.3403654  83.1824684  21.6979790   8.4050220
  83.6872578  21.9105887   7.6200277  83.8040829  21.2437057   8.9737654
  54.2751646   2.9085097  18.0711019  53.8577795   3.6841789  18.4457469
  54.1870594   3.0225864  17.1248162  36.2888646  40.7333803  70.4131746
  36.4102221  40.3745890  69.5341015  37.1591449  41.0385036  70.6695795
  86.8693447  53.2165146  25.0983858  87.3075867  54.0262365  25.3601694
  87.5628376  52.5567532  25.1023841  58.6441708   7.9542446  39.4078803
  59.5019960   8.1979132  39.7557116  58.0194855   8.4250563  39.9595499
  54.0961170   4.7055915  61.0944319  53.7863588   4.2904171  60.2895069
  53.4866858   4.4052571  61.7686892  73.8352346  17.6777506   2.8414354
  74.7685623  17.6286840   2.6347440  73.7083435  17.0272577   3.5320798
  46.1449671  20.2060699  47.2137547  45.5683327  20.9441257  47.4112320
  46.6503477  20.0756001  48.0161285  85.1555729   1.3192661  35.3784347
  85.0221539   2.0901249  34.8268867  84.9883175   1.6296339  36.2683392
  87.7403037   6.7866164  31.0730696  87.2383855   7.5167471  31.4353108
  88.2539527   7.1766347  30.3657627  82.0672035  80.0946236  20.1987433
  81.9576168  80.1775742  19.2514634  81.1854458  79.9194431  20.5274367
  71.5018892  43.2530737   4.0345922  72.4412298  43.0795765   4.0960112
  71.1808586  42.6119137   3.4004909   5.6329167   7.6180160  30.7002020
   5.5467767   8.4340364  31.1930728   6.2937272   7.8088880  30.0345230
  70.5481339  76.4576626  44.9384308  69.8027754  76.4501619  44.3379116
  70.2196312  76.8977213  45.7224369  17.4346089  33.1570053  70.8920431
  18.3900762  33.1147361  70.8529615  17.2360694  34.0933895  70.8915949
  86.4109039  65.6167793  32.8505945  85.9408951  64.7949553  32.7094460
  86.2800026  65.8112144  33.7786531   9.5129389  25.7206845  55.4225492
  10.3377020  25.5939364  54.9535799   9.7759402  26.0175991  56.2936974
  27.2852492  12.8963590  26.3010192  27.2610855  13.8457835  26.4203620
  26.7139149  12.5539362  26.9884467  63.1428385  51.1250401   6.5162909
  62.4843168  51.2088633   5.8266836  63.6384153  51.9429159   6.4749193
  63.1278276  23.9740205  40.7649326  63.0312252  24.9037957  40.9708929
  62.8504086  23.9009070  39.8517394  39.1091561  67.0888615  69.5306301
  39.3026829  67.9136992  69.0851879  38.7224150  67.3525476  70.3655720
  28.2892561  66.5175104  41.7414904  28.0762243  67.2494698  42.3203564
  28.2330275  65.7441187  42.3026800   2.3557523  20.6547880  -0.1575394
   1.6519102  21.2704587   0.0468827   2.9151508  20.6640434   0.6191326
  55.1294756  59.3366766   1.5198606  55.6068039  58.5148048   1.4062311
  54.2067385  59.0845728   1.4847580   5.4773772   7.8457254  43.2924700
   4.8671183   7.1251810  43.4494162   5.3464395   8.4363675  44.0342474
  46.1511803  16.0108256  67.5093985  45.2637005  16.3692951  67.5202608
  46.0748959  15.1688111  67.9582024  15.7196844  63.4108067  64.4970512
  15.0764346  62.8357029  64.0826559  15.8992219  62.9994440  65.3424978
  64.3794823  58.1545115  30.9566784  64.4947100  57.2398090  30.6992435
  63.4678173  58.2096815  31.2431383  73.0266285  51.8522549   4.8600823
  73.5919762  51.9893169   4.0999323  72.4462652  51.1365175   4.6009961
  31.3258028   0.3478089  41.3021755  30.9767532  -0.3270749  40.7199955
  30.9641862   1.1667728  40.9634066   3.7041467  27.5137496  25.1738310
   3.5109842  26.7187142  24.6770024   3.4541163  28.2286525  24.5884848
  69.7917032  52.6695251   0.5425390  69.2837429  52.7037716   1.3531139
  70.2641344  51.8384409   0.5908740  64.1179132   9.8717433  14.5398545
  64.4436502   9.9146831  13.6408091  64.3515158   8.9925009  14.8375034
  34.3358207  11.1473060   5.7986611  34.7164512  11.5233660   5.0049788
  33.6328387  10.5802274   5.4816937  60.6900597  61.6617393  37.3531795
  60.6194782  62.0380020  36.4758682  60.3194523  62.3291969  37.9305744
   6.6054267  70.9411812  23.5184789   7.3069721  71.5882874  23.4455776
   6.8523175  70.2500105  22.9040170  22.3438501   9.7329319  22.5105381
  23.1468749  10.2422976  22.6197648  22.0932055   9.8737651  21.5975356
  20.3726149  26.4437103  40.0032377  20.9835887  25.7134604  39.9048543
  20.4832792  26.9579864  39.2035460  35.9427190  24.8345137   5.4355770
  36.8452930  25.1104069   5.5951768  35.4855728  25.6396270   5.1925921
  43.6103058  82.2868824   5.8085537  43.3959627  81.5146065   6.3318861
  44.5383310  82.4440956   5.9825641   5.0886428  30.5114388   9.3915683
   4.5509243  29.9360800   9.9356735   4.4756705  30.8826733   8.7569964
  80.2373409  54.4067240  69.8882675  81.1277008  54.0873289  69.7417021
  79.7323132  54.0525723  69.1563129  80.4553604  16.3889313  69.5041323
  80.5868912  16.1067975  70.4093027  80.8215809  15.6792498  68.9764309
  52.0759630  45.6798553  59.4509983  51.9420624  45.0954151  58.7048531
  51.7384624  45.1911163  60.2016401  33.6020398  21.3252640  35.4338694
  32.7881050  21.1764765  35.9151244  33.4319949  22.1097541  34.9124360
  19.3835640  15.3997445  68.5799360  18.8520920  14.6741068  68.9073801
  19.3831539  15.2870572  67.6293945  32.5353336   6.7460686   2.2740263
  32.2308707   7.3341519   1.5828735  32.0860839   7.0503837   3.0625683
  21.5159965  32.7835822  50.8123302  20.9987259  32.3902416  50.1095200
  21.4362907  33.7266850  50.6693792  22.8205633   9.6648675  52.0908928
  23.2255769   9.0079451  52.6571512  23.2157040   9.5168716  51.2317085
  66.7029572  62.2449207  13.3387625  67.2126579  62.9060173  13.8071549
  67.2478056  62.0103073  12.5875461  50.8418751  48.6586714  65.2155399
  49.9422979  48.3486414  65.1112604  50.8563137  49.5059633  64.7704315
  37.3567963   6.5273529  42.3139000  36.8513274   7.1691167  41.8150282
  36.9683981   6.5441453  43.1885958  23.8985014  15.9275138  14.5487702
  24.3423700  15.0825679  14.6214271  23.7849975  16.2170649  15.4540372
  66.8587589  15.9346366  15.8940256  66.4079237  15.5244458  16.6320801
  66.4261055  15.5753732  15.1194465  82.0665264  11.9555020  18.3189428
  82.5284767  12.3521888  19.0575051  81.5163994  12.6591265  17.9746938
  55.7971907   2.3869765   4.2604101  56.7289686   2.1682459   4.2737210
  55.3574467   1.5777054   4.5210615  31.3757467  32.1323514  71.7809200
  32.1428704  31.8674517  71.2733984  31.1671352  33.0095077  71.4594984
  14.2453790  22.8117633   4.5203811  15.1845241  22.7596807   4.6979347
  14.0681183  22.0654368   3.9478350  33.4004307  25.2502131  61.4731693
  33.2621789  25.9950781  62.0582294  32.6831579  24.6497869  61.6762447
   9.0131956  22.0550990   5.6312191   8.1125861  21.7319298   5.6576133
   8.9847577  22.8829432   6.1109024  20.9583592   3.9596254  22.8275514
  21.2111783   4.5676816  23.5222316  20.8741546   4.5084092  22.0478201
  59.8427773  42.2405910  21.0736275  60.2644444  41.6333151  20.4656458
  58.9072657  42.0594645  20.9828091  80.0025463  47.2516155  21.8664789
  79.2168331  46.8037081  22.1799541  80.7266140  46.6982126  22.1592331
  49.4132757  76.3126516   0.2873385  50.1010656  76.9708824   0.3868936
  49.8854065  75.4855490   0.1912746  48.3105993  56.4034891  26.1442447
  47.5599480  55.9495115  25.7612920  48.0223751  57.3121643  26.2306690
   5.7184607   6.3238740  15.5706513   6.4673179   6.2449706  14.9797046
   5.9007460   5.6995600  16.2729597  52.5511742  76.5568829  32.4988556
  53.1547403  76.9638824  33.1203771  53.1191015  76.1113501  31.8702149
  35.2528691  26.6525316  26.3350177  34.4943881  27.0267653  26.7832208
  35.5082083  25.9068871  26.8782020  66.4676905  79.6482563  40.7520390
  66.9692469  79.6076488  39.9377751  66.0235739  80.4955006  40.7177830
  41.4089966  73.9364815  21.8111348  40.6348753  74.1206455  21.2791133
  41.7728329  73.1349087  21.4351940  78.6468792  72.7026129  66.1607742
  78.6368036  73.6397123  65.9659004  78.7163401  72.2806311  65.3044224
  51.8906975   0.7742570  71.1508322  51.2543488   1.3202748  71.6125250
  52.5951338   1.3769037  70.9124708  32.0584607   0.5539948  36.8680501
  32.6106334   1.3028735  37.0928144  32.3155808  -0.1279661  37.4885750
   1.6485362  72.5697660  38.8879633   2.3764664  73.1484652  39.1148043
   0.9504062  73.1616211  38.6076903  80.0365543  51.5984440  38.1585145
  80.5940628  51.6607189  37.3829198  80.3968430  52.2454071  38.7650299
  73.7239075  52.0365477  29.0514040  73.0282497  52.4808168  28.5667276
  73.3544779  51.1811399  29.2705727   0.5018939  55.6216669  68.0842161
  -0.2014709  54.9725246  68.0731869   0.1811618  56.3125134  68.6639547
  27.5127792  52.7693701   1.9170247  27.8286242  51.9403219   1.5576477
  27.1074629  52.5301790   2.7505344  17.1882927   1.8165988  19.5917094
  17.9374933   1.3649768  19.2031622  17.2958112   1.6914167  20.5345774
  48.3358717  37.7221060  59.1901588  47.9609489  36.8447113  59.1137362
  49.2373037  37.6249409  58.8832140   9.8417026  58.2756615   8.6209166
   9.5517963  59.1137075   8.9812791  10.7974482  58.3214378   8.6471534
  75.6749582  25.4047608  51.0935640  75.7699871  24.6670604  50.4910707
  76.1451626  26.1225438  50.6693888  62.2951794  46.6327763  53.8566303
  61.3592386  46.4568663  53.7602091  62.3676348  47.5851440  53.7935925
  63.7067938  70.8852100   0.2664317  64.3679285  70.4000854   0.7601847
  63.1408644  70.2084732  -0.1050217   2.7664205   1.0666333  26.6740203
   2.8980052   0.7833964  25.7692027   3.0782256   1.9714925  26.6894937
  36.8759513  11.8204343   0.6781084  36.5845275  12.3312819  -0.0770988
  37.2006798  11.0019720   0.3027379  34.8254013  23.2964849  45.8259821
  35.2360797  22.5896358  45.3280497  35.2620459  23.2746696  46.6775084
  43.6913919  75.1652145  54.2668915  43.3387041  74.8199272  55.0870228
  44.0868473  76.0023594  54.5098639  22.5598526  37.1886778   0.6273939
  23.1298089  36.4255619   0.5323321  22.7166295  37.7047086  -0.1634060
  61.0205698  69.8611641  61.8814993  60.5746937  70.2635717  62.6268148
  61.8343258  69.5148563  62.2476912  40.4738522  29.6155047  63.9816380
  40.6409645  28.6936235  64.1776991  41.2128973  29.8818469  63.4347343
  80.8822727  20.2581835  17.6777053  81.8276310  20.3871679  17.6009607
  80.7757092  19.3104625  17.7595878  84.3284893  25.4739738   4.2756152
  84.2402077  25.5557609   3.3260101  84.2083645  26.3646817   4.6049237
  67.6136589  69.4425392   8.1512541  66.8608189  69.9928427   7.9353142
  68.3509922  70.0514221   8.1940311  28.6052680  16.8424773  70.3517628
  27.6564503  16.9685805  70.3604698  28.7362885  15.9826553  70.7514763
  62.4778461  69.5938921  11.1212492  61.9891024  69.4449091  11.9306731
  62.9521179  68.7756300  10.9737754  47.1087122  72.1073818  35.2082658
  47.3611784  71.1864424  35.2742720  46.1536551  72.0900917  35.1466274
  18.9069057  25.6131124   4.2595220  19.2619050  26.1872125   3.5808349
  17.9744577  25.8271337   4.2906293  12.4898672  19.1929483  44.2775202
  12.3903048  19.5432532  43.3923054  13.4198737  19.3030727  44.4754887
   3.3774382  15.9737754   8.7407929   3.7073761  16.7827940   9.1317666
   3.2326087  16.1941445   7.8206331   8.1125796  71.9450235  26.7528701
   7.2185999  72.2698259  26.8602800   8.0329412  70.9943104  26.8305087
   1.5443826  51.8213511   9.3823713   0.9920894  51.9738531   8.6155939
   2.0891187  52.6059341   9.4450438  52.4869728  82.2297001  12.1256423
  52.2038937  82.8417110  12.8050101  52.9798317  81.5587234  12.5979936
  32.5041914  76.0260725  10.2945673  32.8392982  76.9224167  10.3170621
  32.4531627  75.7662916  11.2144268  55.8143759  73.0103207   6.8069541
  56.0143518  73.3737898   7.6695836  56.2155581  72.1412802   6.8143553
  22.9055309  43.8261747  14.6870279  23.0672812  42.8975344  14.5206153
  23.7663484  44.2371941  14.6077406  61.4300156  48.8993263  44.1260147
  60.6160784  49.3673372  44.3123055  61.5958118  49.0670681  43.1983280
  29.1242003  33.9497542  22.9173446  29.9941421  33.6006546  22.7235389
  28.8071895  34.2826152  22.0777392  75.5013895  37.4373889  66.7035198
  75.3179789  36.7501450  67.3440599  75.5576849  38.2396936  67.2225285
   4.0100145  73.3539295   0.5172833   3.1540918  73.2825136   0.9398085
   4.5677707  73.7696171   1.1748134  14.3983591  27.5217628  18.0392504
  14.6170378  28.0677056  18.7944698  15.1280987  26.9062781  17.9693103
  39.8028731  81.6918468  15.4468215  39.2028832  81.7320061  14.7020864
  39.2519045  81.4299107  16.1844206  61.5930939  82.2441387  28.8417840
  61.8123102  83.0929470  29.2261171  61.4956236  82.4227333  27.9064560
  56.8207359  59.6207428  64.8294878  57.5246286  59.6198416  65.4781532
  57.2413683  59.3330765  64.0192127  27.2988319   7.4829543  25.5221891
  27.8829265   6.9315416  25.0015998  27.7369976   7.5629616  26.3694453
  66.5284777  60.0984955  50.9098864  66.1627626  59.8131084  50.0726032
  66.0371828  59.6048737  51.5665436  55.8943415  34.3027353  61.7797184
  56.6000795  33.6613417  61.6973448  56.2834215  35.1261353  61.4849949
  80.5990219  76.4109516  27.8735566  81.4714718  76.0384560  28.0012774
  80.2991199  76.0395288  27.0438981  56.7109871  18.7500143  50.2123356
  55.8242941  19.0827751  50.0735044  57.1330976  18.8289201  49.3568659
  61.8870163  63.3044958  65.3112316  61.8386364  63.4822035  66.2505484
  61.3575220  63.9933538  64.9095631  21.3771391  51.9994783  59.1592264
  21.9507694  51.3052177  59.4835424  21.4651418  52.7028799  59.8024321
  68.6023855  69.6299648  22.6035571  69.1252279  70.2991581  22.1619129
  68.9698267  69.5827818  23.4861636  52.8095388  66.5109301  61.4136457
  53.4641361  66.5619850  62.1101570  51.9719362  66.4672136  61.8748856
  24.6121430  22.4901462  20.8677721  24.6479917  22.2491598  19.9420977
  25.3058410  21.9728708  21.2769699   3.3648884  13.4463561   3.5565558
   3.4430927  12.8196132   2.8373134   2.5776303  13.1733227   4.0276283
  82.0925903  27.5078821   7.4031597  81.9254684  28.3800817   7.0459890
  83.0469227  27.4384618   7.4289918  40.8177757  46.1712408  65.3142834
  40.7723331  45.3894997  65.8647823  40.1423454  46.0357761  64.6497011
  78.2445335  23.4159970  66.5416098  77.5375509  23.3332801  67.1815825
  78.0861712  22.7082181  65.9169483   4.2949480  11.3713241  27.2661209
   4.8847431  11.7081237  27.9406118   4.2398602  12.0771694  26.6219330
  71.8854284  49.7172260  71.4219570  72.2856188  48.9536095  71.0060596
  72.6247454  50.2140665  71.7723703  14.0230918  71.0496473  31.0312462
  14.9093258  70.7756329  30.7951617  13.4523213  70.5197382  30.4747868
  44.4652605  65.2931833  68.9092541  44.5327187  64.8054838  68.0883837
  44.7794962  64.6832895  69.5767260  54.9949455  61.1943531  -0.2808419
  55.1050615  60.5913639   0.4543513  55.2073669  62.0546484   0.0811008
   2.9563767   5.2890658  39.8795724   3.8721555   5.3782570  40.1434374
   2.5323927   4.8648804  40.6255865  42.1788120  63.8961697  64.9438715
  41.6270876  63.2502890  64.5026588  42.0608854  64.6988583  64.4359207
  28.2133961   2.5010875  40.4382658  27.7078676   3.1350103  39.9295259
  28.9405608   2.2590776  39.8647714  67.0051479  66.5359020  32.5458026
  67.2271395  65.7385111  32.0650530  67.1114779  66.2977552  33.4667873
  47.5075388   7.8720832  20.7543325  46.7699242   8.1744742  20.2245045
  48.0156374   8.6637157  20.9314871   0.1483342  48.7740278  68.3822393
   0.5490615  49.2111540  67.6308632  -0.0738780  47.9003143  68.0605555
  67.1889591  71.4985895   5.8987862  66.8276262  72.3336935   5.6016904
  68.1373358  71.6121435   5.8362126  85.7108879  69.1788101  70.9370279
  86.0882473  68.5255289  70.3479147  85.3967094  69.8718929  70.3563690
   7.5822991   1.5746363  16.9610083   8.4045017   1.5948869  17.4507058
   7.1787250   0.7416403  17.2048879   5.9597355  14.5167828  70.3653145
   6.4754486  14.8746848  69.6426964   5.2691948  15.1636314  70.5101347
  47.6776409  36.8064070  51.3331318  47.1662521  36.8829322  50.5276155
  47.3524427  36.0075951  51.7483139  17.2554421  13.3055377  14.8859942
  18.1511211  13.0045557  14.7330165  16.8093407  12.5476372  15.2638984
  21.6706204  66.7345285  64.1496611  21.7654967  66.5174961  63.2222271
  20.7263017  66.7146397  64.3049097  27.3647809   9.5321876  29.7809529
  27.7778435   9.5706856  30.6435823  27.9445291  10.0417292  29.2148352
  35.9886241  42.1115541  67.4946451  36.5626574  42.5169563  66.8447495
  36.2679148  41.1964560  67.5232697  59.2679834  48.6767817  59.7013950
  59.6568060  48.1417704  59.0094280  58.4347677  48.2477856  59.8962069
  75.6492281  51.8343782  57.9189444  75.7591629  52.5942850  57.3473787
  76.0339975  52.1042299  58.7528324  25.1464486  27.7042675  21.6409087
  25.7416344  27.4334788  22.3399496  24.9959803  26.9074082  21.1323762
  68.9391613   5.2272439  24.5449805  68.8962078   5.7651216  25.3355980
  68.0746412   4.8208123  24.4845438  74.2864084  66.6089725  61.7664385
  74.0755415  66.0328674  62.5011921  73.5603333  66.4914274  61.1538744
  39.5386314  74.0365887  65.5687809  39.2992115  73.2788038  66.1023331
  39.8764610  74.6747923  66.1971092  41.2578344  15.4771805  63.8527775
  41.5523386  14.9479079  64.5939684  40.5431509  16.0070944  64.2058325
  39.5252085  10.3797615  23.8327265  39.9076223   9.5971304  23.4358883
  40.2786636  10.9190607  24.0729260  54.4412899  16.2326658  16.8744254
  53.5086346  16.0177100  16.8609273  54.8628664  15.4480553  17.2249854
  15.3912354  14.7824442  52.0597792  14.5969343  14.2914009  52.2700024
  15.2282012  15.6605148  52.4042273  39.9741530  60.6490040   9.9701184
  40.0619555  60.3956366  10.8889914  40.5179501  60.0204372   9.4953346
  29.2755270   6.2077522  24.1808820  30.0452995   6.0035729  24.7119141
  29.6225214   6.6946149  23.4333587  30.9505534  71.8945742  14.0570414
  31.5586448  71.2559986  13.6846447  30.2564883  71.9742489  13.4027064
  52.4278593  45.3813696  67.4086380  52.6161146  45.9533644  66.6645861
  52.9678583  45.7272387  68.1192780  36.9741416  10.6372571   6.7109853
  37.2940350  11.5349555   6.8006420  36.0466385  10.6893361   6.9417614
  31.7891932  42.6483822  18.6538529  31.9511890  42.1926403  19.4798589
  32.2016144  42.0953703  17.9902911  43.8116789  64.1086912  46.1929703
  43.0877829  64.5032644  46.6793060  43.7456751  63.1727934  46.3826323
  56.3865232  26.8524528  69.1817904  57.1969080  27.2257638  68.8351583
  55.7895756  27.5975847  69.2500830  71.0795307   6.1448902  49.7728300
  71.7238426   6.6319358  50.2865171  70.2338982   6.4162630  50.1299000
  49.4915676  43.2202625  55.2656412  49.1494942  42.9970980  54.3999529
  49.0954351  44.0676975  55.4685402  19.7933829  40.3804064  47.8531218
  20.4127479  39.7242808  48.1726837  19.9841881  41.1622953  48.3712673
  29.8474145  26.9383955  22.5157070  29.2883468  27.3480988  23.1758738
  29.8647642  27.5663018  21.7934418   2.5847027   1.5958902   5.6395417
   2.2594705   2.4668340   5.8673853   2.3328243   1.4782146   4.7236040
  77.1801567  55.8850193  16.8129718  78.1006050  56.1468887  16.7923772
  76.8526554  56.2261295  17.6452088  20.2296138  73.8532972  40.6764460
  20.3570580  73.1397057  40.0513268  19.6121442  73.5022068  41.3180876
  34.1739225   4.6858048   2.7085516  33.7754345   5.5450439   2.5701806
  34.8063111   4.8257664   3.4133416  50.4882097  65.6356525  63.0702734
  49.9262953  65.2179956  63.7229967  50.6810141  66.4984846  63.4371185
   0.1080685  65.8348227  18.9711857  -0.6266327  65.5358267  18.4354198
   0.6161098  65.0423431  19.1446710  39.0072680  22.8954935  22.7299213
  39.2479229  23.7350035  22.3380756  38.9529943  23.0759954  23.6683798
  76.6579771  81.4352894   5.4019648  77.5203562  81.6109657   5.7783544
  76.8284655  81.2858105   4.4720078  49.1472960  15.9928644   6.6353357
  49.9557209  16.5047693   6.6102082  49.4390774  15.0906098   6.7658335
  18.7144792  26.2448192  10.6701171  17.8664398  25.8304739  10.5108094
  19.3524599  25.6346035  10.3001857  45.7912445  70.9094620  19.4873917
  45.2214384  71.3669109  18.8690913  45.4223108  70.0281715  19.5461535
  52.9468679   6.8503499   3.7140393  52.5735092   7.6048225   4.1696814
  53.8529110   6.8099988   4.0201133  45.9607172  77.8272200  68.8505173
  45.4073954  77.0972538  68.5726261  45.3498363  78.4615660  69.2255640
  44.7507620  20.1143622  13.6638677  44.6795607  19.1842258  13.8783646
  44.9819994  20.1289678  12.7351332  23.6306262  17.2075677  17.3169088
  23.1591225  18.0345893  17.2171462  24.5457411  17.4654531  17.4277616
  28.8431334  17.9525483  15.5732882  28.7403846  17.5742519  14.7000384
  29.4270134  18.6998403  15.4433930  31.2658453  27.4193025  14.9085689
  31.2406683  28.2420707  14.4200528  30.4396629  26.9869876  14.6923363
   4.8597282  35.6557178  14.5675421   4.7186917  35.8399057  15.4962051
   3.9877510  35.7129645  14.1768885  63.0114794  27.4474692  64.8052263
  63.7271357  27.1866560  65.3849220  63.2193375  28.3486938  64.5586061
   6.4822298  18.4139752  33.4639359   6.7442262  18.7076807  32.5913954
   6.9330072  17.5776505  33.5805249  70.8335972  60.2743530  21.9588661
  70.5711222  59.6941900  22.6735353  70.9136772  59.6975088  21.1992121
  49.1077471  49.4974136  62.2740793  48.9611626  49.2491245  61.3613367
  48.7322426  48.7777424  62.7813292  49.9932957  78.1567192  65.0505400
  49.4641829  77.9992819  65.8325148  50.8715963  78.3339262  65.3873253
  53.8347340  14.3882096  13.4288895  54.1884041  13.7090254  14.0032220
  53.2501316  14.8966610  13.9909840  74.0845633  82.1817970  30.9282470
  74.6175098  81.7915630  31.6210079  73.1978369  81.8656063  31.1013579
  13.1703508   0.7003772   4.3535975  13.5970283   0.1828532   5.0364935
  12.2480166   0.4493852   4.4039479  57.1994734  28.1199121   4.3078613
  56.5284538  27.5432873   4.6731940  57.2295094  27.8935981   3.3782858
  58.0070162  79.9477577  21.8352914  57.3778200  80.6595802  21.9520879
  58.3590698  79.7930431  22.7118516  17.2901130  27.6247787   6.9964665
  17.8357840  26.8840098   7.2605425  17.5305784  28.3269024   7.6009744
  84.0954113  79.2940903  24.5276046  84.2008114  80.1860142  24.1965628
  84.7277927  78.7771034  24.0285563  79.1183424  69.1057682  37.9551482
  78.9247561  70.0135136  38.1891418  79.6011782  68.7623835  38.7069392
  72.0048094  15.3666985   0.4239146  72.5880432  15.5088854  -0.3216430
  72.4300146  14.6760881   0.9323345  42.9161215   0.1004804   0.6236006
  43.3448839   0.3104370   1.4532472  43.6353922  -0.1164297   0.0304411
  48.5707712  10.3839386   2.7054268  49.1821480  10.4507995   1.9719580
  48.8637972   9.6134859   3.1920171  29.9706101  38.3124518  47.7483892
  30.6149793  38.8868880  47.3348141  29.6395779  37.7695560  47.0329094
  48.9207983  27.9735947  10.5416751  48.6227655  28.8339233  10.8370364
  48.6953020  27.9482484   9.6117604  12.6003850  21.5560246  64.1324759
  13.0737329  21.6540384  63.3063030  11.7214608  21.2791109  63.8735533
  60.9871817  61.3274288  26.0297251  61.7234135  61.4300919  25.4266882
  60.5784369  60.5016804  25.7703018  35.4301953   0.1675943  22.3009014
  36.2086344   0.5747857  22.6809812  35.4457498   0.4331112  21.3813949
  40.8529854   6.8843567  47.7238560  40.4847097   6.3394505  48.4193230
  41.1321020   7.6845032  48.1689310  25.6634665  60.3833771  45.1936483
  26.5491557  60.7430124  45.1441765  25.7933092  59.4449520  45.3305197
  87.0415783   2.2334604  48.0633783  86.2546062   2.4692115  48.5546207
  86.7130566   1.7713848  47.2921515  27.4004889  21.5513349   9.7318053
  27.0879889  22.1752143  10.3870535  28.1943846  21.9526744   9.3784159
  75.9346914  54.4557142  69.8302841  76.1175251  53.5191631  69.7549582
  75.0875807  54.4994640  70.2738094  12.6672101  53.0748320   5.4990983
  12.2884083  53.4802246   6.2790972  11.9136429  52.8707457   4.9452776
   2.6447952  73.1261683  65.6205416   1.9196770  72.6598644  65.2046108
   2.6624689  73.9785242  65.1853371  27.0535207  55.2147579   1.2584867
  27.1164918  54.3582392   1.6811492  27.8689265  55.2984476   0.7641791
   8.8218993  81.6648769  25.4273915   8.6980647  81.0800934  24.6797776
   7.9344016  81.9085884  25.6904244  36.9225597   2.6869082  32.7254105
  37.3340225   3.5246944  32.9376483  36.2586451   2.5672951  33.4044838
   8.5944003   8.2885593  36.6676378   8.9786738   8.5863304  37.4921966
   9.1354805   7.5433803  36.4065409  51.9984055  24.0743423  59.0805769
  52.1716118  24.6003222  58.2998228  51.1948967  24.4449377  59.4456291
  29.1675377  14.3336105  50.5550432  28.9429736  15.1757979  50.1594114
  28.3958411  14.0974140  51.0697508  38.0735922  33.0455852   8.5273373
  38.7499666  33.2577419   7.8841120  37.3695278  33.6690760   8.3490598
  35.4586148  20.2670550  30.1589417  34.7748494  19.6431768  29.9150753
  35.2594495  21.0521841  29.6489024  18.8995957   2.7542967   5.7203931
  18.2804883   2.5398502   5.0225735  18.9108002   3.7111160   5.7449508
  27.3212099   6.8235517  41.1251783  26.3998175   6.8985474  41.3734579
  27.6678896   6.1374891  41.6955853  70.1004028  62.1700382  38.4913826
  70.7856274  62.2702885  39.1521764  70.4989767  62.4909592  37.6824427
  13.4888172  32.6525640  23.0838323  13.0656195  31.9072366  23.5100007
  13.5075486  33.3338380  23.7559533  49.1850567  48.1256104  56.7984343
  48.3803320  48.6416531  56.7499495  49.8763657  48.7725830  56.9389820
  78.8733339  23.3664942   2.2874008  78.8962126  23.3340359   3.2437766
  79.2330074  22.5237751   2.0104769  55.7891464  61.8504906  30.0669241
  55.6431389  61.9572783  29.1269708  56.7363405  61.9380569  30.1736474
  52.2837687  35.4123807  50.2877331  52.7552462  36.0441852  50.8306551
  52.7546549  34.5887852  50.4149723  42.3350096   9.3934393  10.0592649
  41.3898087   9.2424625  10.0535893  42.7046633   8.6132264   9.6459198
  33.4349227  11.5842628  15.9937716  32.9862142  11.5497243  15.1489639
  33.2661319  12.4686849  16.3186407  87.5117779   8.3758962  20.0780153
  88.3542538   8.4538573  19.6303737  86.8754578   8.7235761  19.4531524
  34.5920467   2.9569146   0.5033690  35.2510929   2.4241911   0.9484464
  34.4534421   3.7031111   1.0866453   3.8031629  68.1386423   9.8466301
   2.8984168  68.3648729  10.0622356   4.0835550  68.8243151   9.2404419
  27.5285912  64.1120863  71.3913155  26.6769576  63.7504959  71.6366720
  27.4068451  65.0606346  71.4322329  76.8346405  31.3305259  11.1790776
  76.5843201  32.2226548  10.9389174  77.7257729  31.4148760  11.5181983
  43.5285378  57.9431438  61.5427351  42.8469086  57.6200962  62.1320152
  44.3322039  57.9026747  62.0611095  86.0454941  73.5803699  21.0809517
  86.9915581  73.4523678  21.0116148  85.7680321  72.9570436  21.7523026
  81.4664364  78.6962843  24.5539331  82.3964024  78.8374519  24.3765330
  81.0833168  78.5170746  23.6952519  41.2653351  40.6189489  68.9715004
  41.9338989  41.1925459  68.5970211  41.4610958  39.7547436  68.6094809
  45.1949358  71.0621691  53.1182146  45.7447290  71.8193817  52.9167557
  44.2988873  71.3822699  53.0140066  22.4552655  45.4887533  56.3147545
  23.2615852  45.3410864  56.8089962  22.5012636  46.4075613  56.0503626
  51.0377741  39.0717411  55.7605791  50.7846498  38.3112764  56.2838936
  50.7768726  39.8248410  56.2906742  85.6813240  33.4520960  23.9774227
  85.4838371  34.1439199  23.3460665  84.9686527  32.8217220  23.8727164
  26.1373258  36.2591481  32.7794814  25.3442645  36.6228914  32.3858094
  26.0100722  35.3111720  32.7422905  58.4631205  20.6119084  12.9971540
  57.7060652  20.5160451  12.4193025  58.3434677  19.9347317  13.6629975
  35.1201844  24.3956709   1.6077939  34.3391061  24.2077613   1.0873736
  35.0633287  25.3325915   1.7953603  64.4270945  72.0948172  16.2745368
  63.5251045  71.7825603  16.2028277  64.8522472  71.7845249  15.4750383
  27.5945568   3.4290311  49.0098858  27.9733539   4.2211574  48.6287308
  28.0665398   2.7109736  48.5881567  81.6377831  79.1167498   2.8703332
  81.5528202  78.8091278   3.7727630  82.0462799  78.3863211   2.4057531
  82.3106670  74.6169567  15.2293134  82.0522594  74.1496325  16.0237110
  82.4009228  75.5287075  15.5064356  49.6532679  21.3173628  61.5712929
  49.8692369  22.1051645  61.0723400  50.3877878  20.7244706  61.4125919
  83.6917114  20.6199050  17.4548662  84.1397953  19.8428893  17.1206450
  84.2135811  20.8910441  18.2100987  48.8113070   5.6626642  10.0777197
  48.6009216   4.8339427  10.5080569  49.3956089   5.4182839   9.3600130
  39.4575548  65.7668972  62.4460459  40.3791332  65.8645678  62.6856041
  38.9826345  65.8820200  63.2691050  13.9582694  37.4991703  66.2954712
  14.1720521  37.2882199  67.2043324  14.3580019  38.3563399  66.1481476
  71.6442251  75.6940603  28.0805659  70.9448385  75.0489712  28.1852293
  72.3776197  75.1958084  27.7198577   1.9467391  72.4307251   2.3917960
   1.4709185  71.6436768   2.6570988   1.7733829  73.0621672   3.0899766
  28.6647224   1.5056840  15.4152453  28.8737249   0.5818959  15.2768087
  28.1739736   1.5196900  16.2369514  66.0422707  42.0814753  23.1120968
  65.2825546  41.5069580  23.0172515  66.7944288  41.5134430  22.9452634
  39.0563202  18.0080068  28.3045602  38.1405592  17.8482616  28.0763149
  39.3926072  17.1492386  28.5608006  10.3774142  12.7023482   6.1000878
  10.3592551  13.4897947   6.6439891  11.1503184  12.2229421   6.3984513
  43.7501192  38.4125710  57.7914095  44.1125488  37.9646158  58.5557461
  43.2201481  39.1205359  58.1576777   4.1380379   7.5913680   0.1494887
   3.7334937   6.9266868   0.7069602   4.8593149   7.9378623   0.6747822
  46.5845537  12.9433024  36.9733167  47.1529102  12.8707933  36.2065411
  46.2329865  13.8324285  36.9276381  48.3643007  34.5631647  66.6476345
  47.9068613  33.9394045  67.2114658  49.0708542  34.9067736  67.1943903
  31.8769026  19.6286845   4.5146024  32.0106626  20.0760245   3.6790025
  32.4751472  18.8820505   4.4850215   4.0374690  17.4344289   1.2758039
   3.9495683  18.3858526   1.3332325   4.8073560  17.2979200   0.7236524
  16.3409150  25.2105212  40.8045197  16.1675787  25.4683375  41.7098999
  15.9364009  24.3471503  40.7197094  27.0791245  75.2856970  24.9985313
  26.8162322  76.2041140  25.0588012  26.4434195  74.8933792  24.4000363
  44.9846554  14.3243337  49.6813869  45.2511692  15.2201140  49.4745541
  44.2927647  14.1283822  49.0496254  68.5332203  77.5681162   7.1006811
  67.7317095  77.5376368   7.6230651  69.2293119  77.7240515   7.7389395
  56.8165398  47.4937105  52.8598547  56.2850666  46.8803549  52.3523521
  57.6408195  47.5528955  52.3768520  60.4657936  56.4888096  12.3139441
  60.8259964  55.7889128  11.7693043  59.5200396  56.3421059  12.2979283
  18.7450409  16.0140586   7.2697401  19.1584229  15.7986498   6.4337099
  18.3066916  15.2056944   7.5354993  23.3729625  10.4428935   0.8274436
  23.4447837  11.0427070   1.5699378  23.0906367  10.9960902   0.0990905
  54.9278879  35.2343583  19.0177977  55.0927687  34.9583173  18.1162167
  55.2072191  34.4901323  19.5510304  37.8145075  47.6770306  67.4728298
  37.2400260  46.9114208  67.4794626  37.9232240  47.8868675  66.5452623
  30.7274938   2.6040685   6.7861181  31.4451027   2.1396977   6.3552713
  29.9770188   2.0158659   6.7022306  23.6860514  19.5267439  14.2855358
  23.7530947  19.0381074  13.4651875  24.5443892  19.9371421  14.3906999
   5.8637559   9.0388268  71.0597944   5.8524042   9.4185883  70.1812220
   5.8509487   9.7942877  71.6474533  33.5016704  12.3093462  68.4885740
  33.8125706  13.2109642  68.5701704  34.0716887  11.9184411  67.8263760
  15.3214073  53.5943270  66.3074350  15.9984970  53.3527374  66.9394302
  14.8990214  52.7658796  66.0805130  13.8764417  55.2824783  37.5616693
  13.7268531  54.9346495  36.6825390  13.7893832  56.2305069  37.4621749
  29.9946046  17.3888922  67.9394817  29.3904924  16.9285727  68.5220528
  29.4332647  17.9600275  67.4151373  76.1466932  74.3714523   8.5533977
  75.8869457  75.0179958   9.2097086  76.6113186  73.6985064   9.0508944
  17.1887922  71.3857985  41.5913439  16.3738406  71.5324688  42.0715237
  17.8353155  71.1924791  42.2702169  60.8577824  60.6625891  47.2905111
  60.9499836  59.8495770  47.7872372  60.7612038  61.3415909  47.9582357
  49.0609550  74.7162533  45.4644918  50.0002289  74.5838642  45.3361320
  48.7203836  73.8430977  45.6590176  26.5181875  76.1523008  71.7198658
  25.9546614  75.6331015  72.2935390  26.6288686  75.6104803  70.9385777
  60.5283022  40.1381207   7.5545961  61.3765192  40.4930162   7.8207052
  59.9187279  40.8682060   7.6623911  31.3264918   5.1604146  16.5436780
  32.1099901   4.6115249  16.5765488  31.5387583   5.9140646  17.0943010
  82.7564907  22.3287988  20.9903359  81.9324017  22.2135711  20.5172300
  83.3697891  21.7404604  20.5499315  12.7487242  28.5366511  29.4086885
  12.9036283  29.0706396  30.1878500  12.0207441  27.9644585  29.6513224
  23.5819483  38.8710499   2.8236857  23.4044051  38.9177799   1.8842570
  23.4952736  37.9421639   3.0379039  21.9775009  20.7737756  50.1838684
  21.9215894  19.8351157  50.0049210  22.7238202  21.0726118  49.6643162
  25.1975989  72.2489405  56.7183018  24.4952345  72.3843431  56.0822344
  25.1184607  72.9865885  57.3231506  25.3180265  23.4582639  15.4200161
  25.4116130  22.7348518  16.0398126  24.4097352  23.4032178  15.1230192
  56.5316057  21.1001301   9.9267995  56.2027550  21.8318939   9.4046813
  57.4826050  21.1428165   9.8267484  24.7384119  31.1873817   3.4913871
  25.6194234  31.0311556   3.1513253  24.5339775  30.4008985   3.9972374
  72.7957106  32.0660949   0.6440305  72.9988194  32.6573563   1.3688675
  72.0861149  32.5013494   0.1715318  65.7520056  48.7258434  63.4357357
  65.5172348  48.7528801  62.5081635  66.6591549  48.4205055  63.4443998
  69.5033503  38.5038257  55.7487869  70.2311659  38.8959312  55.2663279
  69.5352507  38.9198875  56.6102409  46.4916801  29.9098301  19.5400560
  47.3602629  30.1512408  19.2183244  46.5095615  28.9537859  19.5835519
  26.6464543   4.4291231  29.3180323  27.3493218   4.1466582  29.9031997
  26.7272305   3.8584957  28.5537744  55.5983305  45.8843994  54.5657301
  56.1296940  46.4644289  54.0203428  55.7064199  45.0190592  54.1710949
  78.5611105  81.0533524   3.3094379  78.9376163  81.1063194   4.1878867
  78.2549620  81.9415569   3.1261203  70.2680349  50.3544283  37.4182320
  71.2066317  50.3292894  37.2321033  70.1283932  51.2068558  37.8306603
  49.2205238  61.5614033  52.6735210  49.1196346  62.3382235  52.1234226
  49.7023296  61.8717575  53.4401846  48.6008215  67.1211624  65.5628967
  48.3376598  67.9521322  65.9584618  49.4064903  66.8822479  66.0211992
  32.2441387  22.4369407  38.6139464  31.8055725  23.1589031  38.1637645
  32.1536469  21.6930604  38.0183911   9.8677844  78.8276196  26.2898374
   9.6169150  78.2360744  25.5803514   9.7302192  79.7041893  25.9307647
   3.0760196  43.6908722   7.1784014   3.3457014  44.5907688   7.3619395
   3.7944812  43.3261967   6.6616237  83.2561874  28.3919406  32.5042486
  82.9236221  27.8394389  31.7968750  83.8765907  27.8335547  32.9728079
  28.5851264  10.5107999  24.7139096  28.8777018  11.3937569  24.4880414
  27.7019048  10.6328869  25.0621152  35.6108713  38.4857249   9.0350735
  35.0123739  38.3260703   8.3053190  35.0418806  38.5478806   9.8022878
  17.5953531  19.7961402  63.5296059  17.5423360  19.0573978  62.9232359
  18.5200644  20.0433731  63.5256338   4.3553397  61.5777159  33.6792445
   4.9996519  61.9072485  33.0527449   3.6060447  62.1656656  33.5838413
  74.3364143  52.7221203   8.8417375  73.4626341  52.5633860   9.1988683
  74.9224377  52.2255230   9.4128734  68.9211559  53.7781811   5.2984029
  68.3504534  54.0381145   4.5752382  69.1989994  54.6046972   5.6932485
  12.4607646  23.3267212   8.3475971  13.1886482  23.7275100   8.8227671
  11.7202616  23.9123464   8.5054958  47.9801607  19.6992171   0.5762724
  47.8740692  18.7509930   0.4998091  47.4002838  20.0599599  -0.0944269
  42.1781206  51.0252523  10.9557903  41.5789223  50.4606628  11.4440846
  41.6091013  51.6647911  10.5274892  56.2825823  33.8682103   9.6186066
  56.7128372  33.2099676   9.0728635  55.3686333  33.5864711   9.6579742
  61.5216970   7.6663584  14.0912604  62.2355080   7.3368394  14.6372676
  61.9193792   7.7972728  13.2304811  20.7040238  72.1158743  27.5335145
  20.1328421  71.6495419  26.9231749  20.1152301  72.4314070  28.2190752
  19.2525959   4.8272204  63.7155390  18.5402334   5.0050032  63.1014013
  19.8438799   4.2476493  63.2352114  30.8930111  81.0293388  68.9019442
  31.6025496  80.3971386  69.0164185  31.0506177  81.4126301  68.0391121
  64.6723557  34.5743608  48.3613825  64.7798729  33.7632775  48.8581896
  65.0977468  35.2425671  48.8987637  58.7566233  59.1861343   2.5496170
  58.2574606  59.9925661   2.4202289  58.4387636  58.8388109   3.3830220
  76.4014387  58.3309555  48.8830233  75.9238815  58.8612032  49.5209980
  77.3119259  58.6129856  48.9708090  71.7396116   8.1694353  65.9184074
  70.8091497   8.2322550  65.7027149  71.7699337   7.5944328  66.6830540
  65.6898165  42.8799057   4.9870625  66.5027094  43.2371616   5.3445667
  65.6310081  41.9998598   5.3589362  43.6959791  17.0007193  38.5336566
  42.7496481  17.0657051  38.4053135  43.9161587  17.7559972  39.0789151
  15.2563953  41.1472416  19.1207433  16.1543334  40.9440947  19.3827951
  14.8114502  41.3654566  19.9396670  71.6696215  66.0908270  68.2280445
  71.5662050  65.1516438  68.3812428  71.2596607  66.2411308  67.3762369
  55.7285547  55.6544828  17.0014644  56.5628815  55.2610588  17.2570980
  55.1042318  54.9293375  17.0262647  75.9549952  28.8360381   4.4386545
  75.7163858  29.6573567   4.8684567  76.9037104  28.7743258   4.5498586
  13.6544406  71.1625767  47.8701687  13.4329128  71.4494705  46.9842529
  12.8083324  71.0153913  48.2928610  46.6199541   4.2831343  61.9029808
  47.1063280   4.6977735  62.6155424  45.7177734   4.5787907  62.0249987
  27.6170635   7.7384365  54.8025274  27.2280312   7.0164096  54.3090057
  27.8112864   7.3639971  55.6617737   0.7799207  41.7636728  28.5212278
   0.8943641  40.8133554  28.5266948  -0.1554830  41.8931723  28.6776948
   2.0514861  66.8373108  61.4834261   1.9096819  67.7766848  61.6004944
   2.8854990  66.7772150  61.0175467  52.8912735  28.2179999   7.6683152
  53.5406256  28.7768006   8.0953020  52.4600315  27.7583718   8.3887327
  80.0404167  78.1970978  71.3234901  79.9754429  77.6066875  70.5728769
  79.9658632  77.6237535  72.0863485  36.4393568  46.5834427   4.2042500
  36.9438243  45.7717991   4.1496518  37.0682597  47.2360897   4.5120904
  58.4985685   0.4182454  64.8706532  58.8244963   1.2760419  65.1430321
  58.8083363   0.3191376  63.9704037  85.2519321  52.3288822  10.9317493
  85.0876427  53.1690407  11.3599765  85.4333687  52.5562906  10.0198293
  19.3011940   8.5288817  42.9204702  19.6678853   9.1747189  42.3165989
  19.1851187   9.0073419  43.7413454  36.1228395  35.3549290  16.4401376
  37.0736432  35.4359365  16.5152526  35.9909582  34.7484231  15.7114482
  56.4191341  61.2460089  32.8757024  55.7100201  60.9097767  33.4237337
  56.0629225  61.2312031  31.9873738  67.5490475  42.7085876  19.2292869
  68.4166622  42.9721212  18.9226413  67.4009895  43.2379341  20.0129342
  29.4648457  12.8726780  23.6510825  29.4175482  13.2200360  22.7603889
  29.5114589  13.6491919  24.2088318  30.1104975  42.0735359  13.6015677
  30.9964561  41.7111826  13.5992646  29.6021581  41.4667654  13.0633759
  67.0032120   0.9490138  67.7107239  67.5608349   0.4375351  68.2969618
  66.4840889   1.5012980  68.2952929  64.5708323  52.7019548  38.3609438
  63.9602327  53.3646297  38.0380559  64.7043657  52.9275894  39.2815375
   3.5130465  61.0756159  24.5013618   2.8935981  61.6142368  24.0090179
   2.9630870  60.4575682  24.9828124  72.5667667  69.0609550  13.6011493
  72.4258184  68.5185337  12.8251684  73.2771397  68.6252880  14.0720987
  80.2299595  82.4129200  22.8298616  80.4796791  82.1577454  21.9417429
  79.8273516  81.6275501  23.2004523  79.4393587  81.9255543  48.3549738
  79.6794081  82.1039963  47.4457026  78.5535336  81.5666389  48.3028173
  14.9407685  79.6855497  63.6946344  15.6905544  80.2159119  63.9643908
  14.2324471  80.3174305  63.5711956  57.1864128   0.3535020  58.0681944
  57.6308346  -0.4363669  57.7602530  57.8693438   1.0241248  58.0781507
  81.6759682  63.3560467  54.7176075  80.9060669  62.8035927  54.8528004
  81.3555813  64.0888023  54.1916180  72.9189491   1.0977652  61.4109850
  72.7785206   2.0167631  61.1830473  72.0375919   0.7408619  61.5208101
  31.8943071  14.5820129  33.7429547  32.6399636  14.7116864  34.3289685
  31.2330437  15.1989198  34.0566254  49.8997545   6.4118582  49.8370361
  49.0912533   5.9506643  49.6137476  49.7183800   6.8161476  50.6854963
  60.8135605  67.0164824  61.4178228  61.3287020  67.8078794  61.5745211
  60.9233189  66.8403625  60.4833889  19.9859917  68.6682749  41.6467571
  19.9160886  69.5174217  41.2105274  19.9023700  68.8701534  42.5786781
   4.2471433  10.9571588  50.1057625   3.8064554  11.3789248  49.3681049
   3.7790027  10.1306117  50.2236414  37.9448247   7.9048884  29.5251608
  38.0144501   7.1664500  30.1302171  38.8149166   7.9756796  29.1325259
  60.3517818  19.2337644  58.4977579  59.9147415  19.1152275  57.6544476
  60.8400965  18.4213030  58.6307526   8.5176516   2.4057689  55.8411646
   8.4095806   2.1515065  54.9246979   8.7820983   3.3250076  55.8051062
  41.9868755  39.7303724  62.0132256  42.0615911  40.6825018  62.0772362
  42.7239180  39.4688535  61.4613152  71.3794279  51.9040966  25.4835463
  71.0880518  52.3518181  26.2778234  71.2083149  50.9779072  25.6542063
   4.4145134  12.8058231  60.9228563   3.9745897  12.0497787  61.3115644
   4.7203964  13.3164728  61.6724586  25.4910517  79.5432091  58.7768173
  25.2577162  80.4689693  58.7078762  26.4281893  79.5173740  58.5835934
  44.9664545  41.3042068   9.2269850  44.4376373  42.0796967   9.4146037
  44.3302011  40.5931520   9.1507173  64.0604448  62.2145271   6.7139649
  64.5817375  61.7131138   7.3409188  63.2898760  62.4908972   7.2100240
   5.7798558  40.5870819   2.6175234   5.2999783  41.4134884   2.5627038
   5.2828646  39.9843764   2.0643725  61.0118771  15.4696524  16.2937248
  60.6825066  15.7527077  17.1467352  60.7509375  14.5509803  16.2290454
  26.2544632   4.5018959  42.7787066  25.3083563   4.5286742  42.9215288
  26.3702893   3.8844177  42.0565319  21.3583398  34.2327189  65.3925037
  21.0841703  33.4863162  65.9253693  21.2126255  34.9941850  65.9538984
  87.1404076  39.5140052   8.9154917  86.5784550  39.4980502   8.1407773
  87.8589535  38.9185643   8.7024719  87.9226303  53.1688023  -0.1583418
  87.0934772  52.6924515  -0.2011546  87.9591274  53.5061121   0.7367130
  81.6936493  24.9025989  13.0146813  81.9423389  25.6793189  13.5157716
  82.5069523  24.4062829  12.9228413  45.3549671  35.6485391  57.1505451
  44.6217012  35.0334191  57.1371317  45.8315516  35.4356313  57.9528999
  64.7311831  44.6848059   1.8653314  65.2544594  45.2781725   2.4041525
  63.8363981  44.7956753   2.1867302  28.6593986   2.0009318  69.5364809
  28.0778122   2.6139832  69.9861050  28.4419394   2.1004297  68.6096382
  67.0019627   7.6044464  48.6491871  67.2938061   8.4655333  48.3498716
  66.2873173   7.7919501  49.2577600  19.0638018  52.4393415  57.4876356
  19.0999281  52.6758814  58.4144449  19.4803798  51.5786648  57.4436903
  62.9761457  82.0849514  43.7125731  62.8363228  82.8538990  43.1599522
  62.5838947  81.3627815  43.2218170  55.8470154  36.7691684  56.6851759
  55.8213234  37.5380206  57.2547674  55.6401157  36.0353351  57.2638893
  45.1033926  60.0220633  39.6951604  44.9707651  60.9333992  39.4341898
  44.7172403  59.5106840  38.9840984  16.3270760  61.0202312  69.1832352
  16.8184602  60.3159571  68.7604237  16.1450124  60.6904507  70.0631952
   7.7826226  71.5062380  40.8075905   7.0964915  72.1537399  40.6457281
   8.4564102  71.9864655  41.2888670  65.9388447  72.3326159   8.6820984
  65.1990938  72.4239779   8.0815500  66.7078352  72.5265408   8.1461167
  82.8058624  16.5877068  65.3755236  83.6096382  16.9946182  65.6989479
  82.7994251  16.7819703  64.4382668   7.7362460  23.5746908  36.0266685
   7.8431308  23.6273360  35.0769138   8.0430901  22.6969504  36.2539363
  54.7753906  17.9326928  66.1652327  53.9004230  17.7863824  66.5247536
  55.3656149  17.5211155  66.7964792  48.6292696  69.1506243  67.4690914
  47.7999020  69.5374060  67.7497673  48.9832449  68.7432289  68.2596397
  42.9434967   2.7820739  58.8865471  43.5745811   2.0698458  58.9899826
  43.4788847   3.5485569  58.6813736  82.4242973  48.1290007   3.3406404
  83.1678581  47.9612684   2.7616632  82.3294067  47.3230457   3.8482445
  39.0291238  76.6870403  32.1543431  39.6664119  77.4011660  32.1654034
  38.8644719  76.5273333  31.2250328  43.0510473  45.8936644  12.5266802
  42.3118210  45.6812334  11.9568956  43.3400583  46.7573309  12.2320938
  63.2693243   9.4899911  60.7030964  63.2421303   8.5333687  60.7222223
  64.0495920   9.6971834  60.1888132  43.0733442  25.1966000  60.8196020
  43.8077164  25.2069855  60.2057457  42.3679304  25.6487656  60.3568220
  30.2572417  33.8481474  66.5929222  31.0011244  33.7663794  67.1897316
  30.4883814  34.5800352  66.0209560  46.4409018  30.9344912  69.5326185
  47.1355438  30.3339553  69.8029137  45.6347752  30.5255032  69.8474550
  55.2161884  79.0960789   4.4277090  55.1643562  78.8060856   5.3384501
  55.4331875  78.3039474   3.9361045  33.9547729  27.5136590  65.3403378
  34.8696423  27.2352767  65.3821754  33.9927912  28.4690142  65.3859758
  68.0480814  54.9233055  24.6452141  67.2786903  55.2776098  24.1994143
  67.9830980  53.9766550  24.5192766  54.0981007  33.2753181  52.3840570
  54.6181917  34.0366435  52.1269178  53.9842415  33.3713245  53.3295965
   9.3330544  63.2067633  18.6759520   9.6994555  63.9745140  19.1147459
   8.4220064  63.4427834  18.5012567  13.5595524  28.7449527  44.1864777
  13.9058268  29.3987155  43.5790920  14.3220687  28.4563065  44.6879625
  49.3748331  81.1516571  36.1667752  49.1398239  81.9437504  36.6500878
  50.0528049  81.4370823  35.5543065  73.9165068  70.4961872  67.5380039
  73.5903311  70.7470560  66.6737700  73.3882570  69.7361660  67.7820349
  75.7335186  78.9739895  16.9894981  74.8424053  79.1122913  16.6685164
  75.8607149  79.6590710  17.6457918  83.4797859  74.4258499   9.9270433
  83.5062790  74.6634102   9.0001690  82.5596714  74.2233133  10.0961828
  43.7233257  48.7498856  67.7205276  44.2917585  48.3874321  67.0410109
  43.6378765  48.0449820  68.3624315  32.7825570   2.1597713  48.1803179
  32.4658990   2.5909275  48.9740849  32.7377987   2.8372818  47.5056267
  54.9801397  38.6460471  65.1079464  54.2105246  38.0789375  65.0598240
  55.1683331  38.7154961  66.0438919  31.2959647   6.2351346  40.9164000
  31.1634278   7.0257014  40.3932667  30.8486152   6.4170223  41.7428541
  63.1707764  31.6055989   5.5814987  63.7410069  31.8643713   4.8575479
  62.4532461  31.1299562   5.1629907  61.6640472  67.4570799   1.6678588
  61.7437410  66.5144587   1.5217584  61.4307594  67.8134346   0.8106422
  73.9760256  58.7442207   2.5299543  73.9794779  57.9166651   3.0109683
  74.8979664  58.9112711   2.3341200  55.8310175  55.9072828   4.5113233
  55.4430962  55.1860952   5.0069416  55.1618576  56.5916538   4.5208338
  44.1739511  76.8763161  49.0732908  44.2150736  77.2755766  48.2043076
  43.2439280  76.6959286  49.2102242  41.0625601  26.4143205  57.2870207
  40.3574896  26.8743205  56.8314981  40.6959867  25.5532908  57.4882174
   6.4905530  61.9587708   9.0433508   6.4443433  62.1574974   8.1081480
   7.3616171  61.5811062   9.1652042  46.6034365  56.1363697  16.5502369
  46.1109495  55.6436729  15.8937776  46.1017132  56.9425774  16.6707873
  69.2489958  19.3801177   2.2792207  69.1906977  19.4554222   3.2316715
  69.6712446  18.5339236   2.1312636  85.7538509  25.6340337  67.5303555
  84.8070049  25.5315423  67.6263857  86.0020351  26.2357116  68.2322264
  42.9973459  19.8707676  46.8128490  42.1407366  20.2023149  47.0821619
  43.6164427  20.2979064  47.4048853  79.5281315  80.4476833  58.0187464
  79.0409040  80.3256512  58.8335752  78.8683176  80.3641701  57.3303413
  16.7485487   4.6893436  51.9672155  16.9315398   3.7706560  51.7703438
  16.7665565   5.1250821  51.1151361  56.9709349  42.1721458  14.5598674
  57.9124928  41.9998503  14.5642507  56.8070793  42.5857639  13.7123406
   7.1248233  76.4504242   7.7910513   8.0317438  76.2076235   7.9775292
   6.7792082  76.7496061   8.6320454  33.1566787  10.6953561  45.2762508
  33.6939526  11.4871013  45.3028536  33.0527020  10.5076921  44.3434048
  36.3045692   0.8286575  58.4527588  36.3355589   0.5396024  57.5407743
  37.1953058   0.6950680  58.7767553   8.7509745  21.0819674  11.8835294
   7.8121245  21.0982347  11.6977131   9.1664654  21.1424637  11.0233319
  77.8865862  68.0054379  57.7110672  77.6511717  68.7620687  57.1741104
  77.0896292  67.8018951  58.2006216  33.9813471  21.2505531   5.9678596
  34.4363737  21.6683817   5.2366942  33.2889867  20.7340837   5.5553979
  25.7578635  70.2600527  58.4496355  24.8508286  70.0400925  58.6620951
  25.6891036  70.9141016  57.7541304  41.9244099  65.3061008   0.9896836
  42.2942066  64.4607925   1.2445074  40.9811068  65.1505184   0.9428062
  71.6640329  60.7930040   6.2173593  72.6145124  60.6807041   6.2316716
  71.3465595  60.0773191   5.6666911  65.5951643   2.1622282  65.5257034
  66.1356449   1.8521789  66.2523270  66.0040951   1.7869079  64.7458696
  28.4136105  20.6861711  68.7965393  29.0090537  20.4564118  69.5099068
  28.8310981  20.3303862  68.0120945  17.3141623  59.9565744  18.1032395
  16.7530847  59.3136358  18.5368907  18.1965327  59.5929956  18.1771696
   2.2822532  62.9181480  22.9040003   2.7946824  63.5659361  22.4202490
   1.5193294  63.4029198  23.2189250  50.6255007  24.1383624  15.2574408
  50.4802513  24.4214702  14.3546772  51.4449787  23.6447787  15.2247548
  74.0902281  30.8982086  25.9987426  74.2670012  31.5518856  26.6752720
  73.8860989  31.4116430  25.2171111  27.9880166  43.4713507  66.9000340
  28.0588269  42.5477219  66.6589308  28.8191319  43.8559771  66.6215658
  67.5475025  56.6191006   6.5045196  66.6615391  56.4356232   6.8169832
  67.8115177  57.4059343   6.9814074  15.5273366  64.8984003  28.3289337
  15.4908431  64.6469069  27.4060845  16.4611864  64.9036455  28.5390043
  87.2115707  47.5365353  27.6306796  87.9899979  47.4889898  27.0756721
  87.1958828  46.6988134  28.0935121  48.2485294   4.4246644  48.9629221
  47.6770067   3.8440025  48.4604979  49.1216373   4.2732951  48.6009836
  45.7447624  24.3427634  68.1695175  45.6818676  24.3520570  67.2144318
  45.1185846  25.0070977  68.4572601   4.8771358  35.7239366  17.3718154
   4.0920082  35.6694245  17.9166412   5.4944706  35.1168084  17.7798927
  62.4772263  59.9494553  20.8249164  61.8145132  59.3698597  21.2005663
  63.0436563  59.3683338  20.3172874  34.0851498  38.7995529  31.2709999
  33.2609010  38.3129954  31.2607956  33.8609910  39.6421933  31.6658950
  40.7278728  33.3366251  55.8524990  40.7346249  34.2815137  55.6996250
  39.9035072  33.0377793  55.4686451  36.0844898  57.2716808  28.2034659
  35.7204294  56.3898468  28.2813263  37.0224571  57.1579695  28.3568192
  41.6266870   2.9219940  21.0443830  42.0495129   2.1063769  21.3131213
  42.3518181   3.5247296  20.8796811   1.3849220  60.1313353   7.9390478
   1.3553651  59.4103193   8.5679311   2.2341403  60.0379753   7.5073719
   5.2839231  80.2744961  70.6687546   5.4182070  79.7953749  69.8510551
   4.3635994  80.1252365  70.8854532  63.8891745  48.6800289   7.6040262
  63.5961056  49.4817972   7.1710080  64.7293377  48.4786415   7.1919590
  66.8819761  59.5262671   1.6603343  66.3931942  60.3405857   1.5411456
  67.4393749  59.6906281   2.4209431  64.9821472  41.8026638   2.2058825
  65.1035643  42.3346996   2.9922816  64.0424061  41.8470621   2.0294064
  58.6451387  53.1135845   3.8471681  58.7221956  53.2200050   2.8990290
  58.9225149  53.9564657   4.2061213  49.0480328  80.1210117  30.8494425
  48.5529470  79.3158770  30.6981635  49.9345970  79.8224974  31.0522461
  22.0702028   5.6045437  36.4983606  22.1804523   6.3472688  35.9046984
  22.0148396   4.8428482  35.9213114  67.1898222   3.8701969  69.9008656
  66.4151192   3.7438965  69.3530369  66.8683910   3.7703118  70.7969332
  17.4716866  78.9299011  18.9503098  17.5343215  79.6385622  19.5907080
  18.1625998  79.1190624  18.3154154  40.9211111  49.9189758  13.6279178
  41.5115404  50.0435448  14.3709552  40.4507446  49.1098785  13.8287783
  16.1174953  58.2208204  67.3953056  16.9159651  57.9410839  66.9476175
  15.5185866  57.4799681  67.3021460  75.4923344  73.1579542  28.8771510
  75.9555101  72.3407173  29.0610695  74.8366451  73.2231188  29.5714545
  38.0895567  71.7965984   9.3341994  38.8474655  71.3061810   9.6524745
  38.3858180  72.1889067   8.5128856  22.2662115  77.1090698   5.6873327
  21.7542934  76.3188171   5.8596045  23.1745362  76.8074894   5.6722683
  59.6354771  55.6109190   4.5349500  60.0788832  55.6596756   5.3818524
  58.9416504  56.2680674   4.5896739  30.8445716  22.5979328  51.4251232
  31.1408663  22.7510691  50.5279064  30.8720064  21.6465998  51.5273333
  44.0675163  35.6690359   2.5823385  44.4113588  36.0964799   1.7979312
  44.8455143  35.3667068   3.0508965  21.2498522  10.6286931  60.7211208
  20.8950853  11.1029375  61.4730930  20.7739449  10.9814441  59.9692488
  65.9082890  78.5794449  11.1645353  66.1248350  79.4294596  10.7813704
  65.0357962  78.3792067  10.8255780  27.1180415  28.8236666  68.3083439
  26.8749309  28.7105846  67.3894596  26.3433886  28.5455656  68.7970209
   9.9890774  29.4573140  40.9746647   9.0645850  29.5019126  41.2187052
  10.1584387  30.2854347  40.5254793  57.6258612   1.4642628  11.9834065
  58.2734346   2.0669509  12.3489904  57.5266790   1.7426884  11.0729814
   1.7871994  23.9832473  15.4977906   1.0523569  24.2686725  16.0407186
   1.7629881  23.0275273  15.5451882  29.4203973  70.7044411  51.6400003
  29.9516940  69.9843454  51.9797277  28.5167122  70.4270744  51.7905045
  45.9275484  54.8317289   3.6381996  45.1601887  55.1862049   3.1890470
  45.6958580  54.8596716   4.5665157   1.4049590  59.4867802  48.6265469
   2.1420074  60.0748777  48.4618330   0.8715190  59.5434570  47.8337908
  30.7795286  59.6134472  70.5336618  31.4103556  59.5373297  69.8177719
  31.1437750  60.2914238  71.1027861  25.9974790  19.9608409  68.6832428
  26.6429329  20.6513619  68.5322428  25.8860397  19.9408412  69.6337223
  13.5779238   7.8129345  45.4415751  13.7642884   8.5692888  44.8853111
  14.1794014   7.1350390  45.1334906  28.3222175  13.9151347  37.1438599
  29.2760634  13.8563395  37.0895433  28.0396914  14.0645254  36.2415886
  37.8682542   2.9646996  44.4269562  37.1578264   3.4511334  44.8451710
  37.4566245   2.1574834  44.1184187  80.6523800   2.0798483  44.6289778
  80.8820724   1.2549242  44.2012215  79.7830725   2.2919698  44.2890787
  60.6896734   3.7196669  48.6891460  60.1382780   4.2916951  48.1553125
  60.8352566   4.2127246  49.4965696  75.9142828  72.8047228  51.4125633
  76.4412498  73.5643625  51.1646128  75.2260399  72.7636337  50.7485867
  70.6510735  62.8596878  16.0237217  70.8024311  62.6368761  16.9422412
  70.9648180  63.7602043  15.9408653  33.5270095  35.8397985  55.9492493
  32.6440358  35.4755640  56.0118484  33.4296703  36.6086411  55.3874302
  50.5019331  10.5040944  66.5745735  50.2471352  11.2563014  66.0402536
  50.2728987   9.7429204  66.0412884  39.5750260  57.0112133  32.9155564
  39.8471570  56.2631369  33.4471202  39.1932678  57.6248169  33.5432363
   2.8821647   9.2626143   5.9469926   3.1356412   8.3760375   5.6901598
   3.2614681   9.3772328   6.8183267  67.1153545  50.0233889   3.2777515
  67.6328373  49.2281628   3.1510374  66.5362930  50.0562048   2.5162792
   0.7970142  47.5320196  44.5831537   1.1940618  47.2310066  43.7658548
   0.8417221  48.4868956  44.5336962  36.7251563  17.1167195  44.8141956
  37.4933648  17.3646116  45.3286266  36.9476604  17.3645997  43.9168215
  66.5903282  26.6743159   4.2908359  67.2926140  27.0287633   4.8361722
  66.4585209  25.7846308   4.6184331  57.7459145  58.6565399  27.8505635
  58.6022997  58.2954168  28.0795288  57.1891117  58.4462643  28.6002207
  71.4332390  14.7902524  61.4875650  70.7446814  14.9499726  60.8421087
  71.2085915  13.9432931  61.8728256  11.7316902  18.7457526  60.3602314
  11.1804605  19.4715691  60.6527519  11.5388942  18.0363834  60.9733009
  66.4215422  42.3420954  59.9534941  66.7241478  42.9151440  60.6579685
  65.8927631  41.6778421  60.3955269  63.1492519  78.7154102  16.7532527
  63.2611561  79.2078352  15.9400940  64.0283442  78.6711645  17.1293795
   9.8703468  73.7499332  26.0611296   9.6266723  74.3825197  26.7369127
   9.2424858  73.0348969  26.1648130  45.0725842  63.2810259  18.7671196
  44.4456816  62.7030659  19.2020774  45.8370399  63.2820368  19.3431759
  50.3595114  68.6094379  15.6158876  49.7466421  67.9255962  15.8860373
  51.2124348  68.3012676  15.9221315  60.2519226  66.4576960  11.8482208
  61.1092901  66.8695116  11.9557285  59.8063946  66.6110277  12.6814222
  10.2954793  35.1548195  18.8292825  11.0817301  35.0440121  19.3638515
  10.1592433  36.1017275  18.7970698  33.8731146  58.2187653  12.6279151
  34.4693160  58.8417101  13.0435097  33.1195545  58.7472725  12.3651206
  15.3747368  52.8887749   6.4194232  14.5402455  52.8445959   5.9526205
  15.4994416  52.0072794   6.7710495  19.1074610  36.9310975  67.2740793
  18.7132180  36.0761261  67.4467897  18.5937893  37.2899389  66.5504742
  38.5584998  77.1974754  29.2234898  38.1666994  78.0692101  29.2763591
  39.4259548  77.3471594  28.8475227  58.6276197  48.1748629   3.0481744
  59.2410326  48.8734627   3.2760316  58.6023569  47.6156282   3.8246086
  42.4553394  66.4351797  21.4135146  42.6979256  65.7270098  20.8169580
  41.5422392  66.6265345  21.1993575  43.9898539   3.8203382  11.9117773
  44.2940712   3.9446297  11.0127580  43.5135365   4.6248889  12.1168411
  77.1310997  48.8278294   4.9372461  78.0599642  48.5970116   4.9500865
  76.7698383  48.3266258   4.2061397  10.6361961  43.9866781  60.7495403
  10.4650140  43.0913639  60.4574108   9.7724307  44.3366766  60.9678125
  51.9991302  15.1253402  54.8528719  52.2026443  14.9297309  53.9382410
  51.9952774  14.2713964  55.2853060  76.7912579  58.6546612   6.6630453
  76.5990925  59.4806719   7.1069056  77.1419954  58.0890322   7.3509979
  81.8638039  70.0953341  17.8901911  81.4029312  70.6419563  17.2537756
  81.3915825  69.2628241  17.8773546   3.4580979  37.7561688  26.0523009
   3.6158910  37.6289129  26.9877887   2.6298913  37.3061109  25.8857059
  27.6567292  68.4655905  61.1289501  28.4296060  68.2284355  60.6164551
  27.1757722  69.0749788  60.5689907  45.6017303  81.3889599  68.2929182
  45.3437710  80.7546234  67.6241064  45.4240465  80.9471607  69.1232634
  85.3485012  67.9523754  26.8633628  85.9011936  68.5473871  26.3566875
  85.9283924  67.2276592  27.0973325  46.9714022  12.5597477  46.5364504
  46.1734867  12.3367488  47.0158577  46.6600895  12.9918826  45.7411003
  75.8607960  50.2766371   9.7510886  76.7932129  50.3295231   9.9609429
  75.7608366  49.4298410   9.3161494  35.8755112  66.3998508   0.9223861
  35.9403849  67.3516321   0.8440667  36.7583156  66.1185837   1.1627566
  39.8653841  19.3277192  62.0041084  40.1378107  19.4769609  62.9095078
  40.4523039  19.8764312  61.4838457  86.7233658  44.1203785   9.6786737
  86.7887402  45.0655746   9.5424163  87.1020222  43.7375546   8.8872826
  14.1046417  79.5133972  33.7112689  14.2102015  80.4514027  33.8700962
  13.7883174  79.1635466  34.5442009  28.9850879  64.4312572  33.8868785
  28.7712431  64.1767788  32.9892468  29.8744512  64.7807932  33.8313174
   2.3094535  80.3406143  63.2516575   2.6375729  81.2150764  63.0422068
   2.6527077  79.7825050  62.5538540  68.8986540  27.7998829  16.4895380
  68.8947296  27.0640874  15.8773124  68.1407166  27.6461935  17.0535791
  30.4819679   9.6496481  60.8626318  30.0347853  10.4076266  60.4861641
  31.3565826   9.9715829  61.0808945  31.9897342  26.4828420  31.3262916
  32.7050447  26.9488907  31.7591429  31.3580704  26.3116574  32.0248103
  41.7205191   6.9014448  62.1025610  41.1912680   6.9600546  61.3071442
  41.2517929   6.2773639  62.6566792  41.4368916  38.6313534  13.1737566
  41.1804581  37.8463864  12.6897120  42.2982693  38.4200287  13.5337615
  84.3050098  19.0373135  42.8557158  83.7016582  18.3137941  43.0251837
  85.0180817  18.9059198  43.4806156  26.9257498  67.9155779  46.3545990
  27.0820951  68.7403250  46.8145800  27.3680806  67.2558403  46.8887568
  83.4259033  45.9523630   6.9445813  84.0160370  46.5525055   6.4887261
  83.0467892  46.4781380   7.6488984  56.1542988   4.6495572  65.9556913
  56.6571426   4.8908892  65.1777840  56.7716980   4.7490647  66.6803646
  17.5267744  14.6123338  39.8239326  17.9641640  13.9010763  39.3559194
  16.8621397  14.1754925  40.3565311  33.6771178  77.1209526  65.8576536
  34.5348859  77.1976948  66.2754822  33.3791685  76.2395382  66.0825109
   9.1947520  27.5702953  70.3659678   9.4203550  26.8708777  70.9792757
   9.4053662  28.3775353  70.8352613  68.7537622  47.5476313  64.1926670
  68.8620615  48.0571270  63.3895969  68.9080811  46.6418743  63.9243126
  71.3965178  56.5892982   2.4729276  72.2332048  56.6807604   2.9288036
  70.7927179  56.2681293   3.1426352  60.9808588  66.5864182  53.4612751
  60.2818489  66.1688042  53.9644814  61.4757586  67.0878315  54.1092634
  50.8584166   4.1219544  30.0723171  51.4484978   3.5004476  30.4986572
  51.0345221   4.0166822  29.1373658  78.4300184  63.2332277  23.7799168
  78.4368467  63.2259941  22.8227687  79.1230679  62.6217794  24.0290093
  38.3794093   1.3134596  69.5722723  38.9407301   1.6987109  70.2451277
  38.9632583   0.7452179  69.0698242  71.4033365  48.5027599  13.7868428
  71.9829082  49.2538166  13.9142561  71.8842220  47.9273367  13.1919730
  74.3587685  68.9549732  54.0771389  73.4168196  68.8786364  53.9250183
  74.5624828  69.8660135  53.8656139  63.1578064  33.2609820  34.6075296
  62.2533989  33.5606766  34.6995306  63.3229446  32.7509236  35.4004979
  31.6750765  23.3153129  61.7342281  30.7237744  23.2218480  61.7844725
  32.0152974  22.4863553  62.0708418  13.3537471  36.7746234  47.2860479
  13.4641016  35.8872819  46.9444704  12.5192845  36.7489672  47.7542877
  36.2580681  17.6280344  67.3278093  35.7325983  17.0810759  66.7438984
  35.6184435  18.0467904  67.9037952  68.6944818  62.6776171   3.9093781
  67.8308630  62.3690462   4.1835624  69.0658283  61.9447947   3.4181473
  54.3367577  57.6525164  68.7051153  53.8041592  58.0968952  69.3647337
  55.1806259  57.5110865  69.1342020  79.1973543  63.5163164  13.5608590
  79.2932606  62.5759220  13.7114990  79.8440313  63.9189100  14.1404796
   7.0255834  79.2033577  28.3040237   7.1144915  80.1502895  28.4119415
   7.8799093  78.8523912  28.5553813  51.1289215  25.1546073  50.9924316
  51.9431257  25.5725336  51.2728643  50.7119179  25.8008265  50.4225731
  83.8567638  81.1750317  10.9379494  83.0796146  80.6611347  11.1574697
  83.5666847  82.0852757  10.9975183  40.5522633  30.3781056  42.6508856
  40.2702522  30.4836345  43.5594940  40.7696056  31.2647533  42.3630428
  58.9494991  12.3052049  67.7953863  59.6208763  12.0342660  68.4215450
  58.6467600  13.1529999  68.1206894  25.2190709  15.2041304  53.5833979
  24.9869275  16.0896075  53.8631678  25.4492879  14.7495544  54.3937016
  82.0095539  81.0699463   6.7879593  82.4281025  81.0883904   5.9273165
  82.4123096  81.7950153   7.2657531  64.9024582  75.4599285   2.0835128
  65.3150654  75.0752687   1.3101923  63.9696360  75.4840994   1.8702394
  46.7176247  20.1146698  40.5414343  46.9666433  19.7982502  39.6730471
  47.0946312  20.9929562  40.5935240  12.9174125  48.5955048  10.5028820
  12.4837589  49.3372440  10.9247851  12.2402930  47.9210711  10.4492116
  58.3410978  17.0946133  54.2621183  58.0114985  16.4928591  53.5946703
  57.5550842  17.5000763  54.6282005  69.1980791  69.1675568  10.6047118
  68.8672256  68.8143778   9.7788596  69.6190262  69.9919891  10.3611052
  48.2007837  32.4785399  53.7059021  49.1457891  32.5248957  53.5608387
  47.8937054  31.8253732  53.0771685  46.8221712  23.0308294  54.3169737
  46.2069750  23.7529159  54.1890764  46.8322897  22.8896260  55.2636480
  45.5299664  34.7708058  65.2176189  46.2177134  35.3491855  65.5473375
  46.0002232  34.0878081  64.7394943  76.0254049  74.9702168   4.6967873
  75.4007483  75.1135683   5.4077655  76.2924767  74.0561104   4.7932819
  66.0527802  29.2396164  40.7278872  66.2604189  29.3517160  41.6555452
  66.8201208  29.5799184  40.2678680  81.9665432  76.6730118  12.4433410
  81.8508244  77.5738621  12.1411657  82.0848179  76.7512465  13.3899784
  23.9439964   3.8412741   0.1383772  23.3082557   3.7269893   0.8447795
  23.7313867   4.6946666  -0.2394461  53.7358761  42.0461845  67.5221014
  53.9280128  42.2526121  68.4368134  54.4305944  42.4808311  67.0274496
  69.0089941  23.8810802  38.8602924  69.2715931  23.1039333  39.3535614
  69.3206835  23.7165403  37.9703450   1.3559662  13.2140112   5.6005722
   1.4087532  12.8230786   6.4727062   0.4695433  13.5719299   5.5517870
  83.1915379  27.1382475  52.1850777  83.0302429  26.9430709  53.1081820
  82.3442078  27.4324584  51.8508720  43.2774591  62.3953724   7.7545595
  43.0429745  62.7186871   8.6244518  44.2080355  62.6010704   7.6653999
  53.7076330  26.9712973  65.0419569  52.9758215  26.4489865  64.7135115
  53.6570311  27.7906680  64.5497179  87.0467663  23.6780453  70.7517147
  87.4214363  23.7037516  71.6321659  87.6300049  24.2265487  70.2271175
  56.6730165  43.9048481  62.9193926  56.8072224  44.7703171  62.5331450
  57.2905684  43.8702106  63.6499166   4.2843848  70.8002806  34.9294400
   3.3633330  71.0307026  35.0511026   4.7657359  71.5722752  35.2270293
  20.9721661  11.8394816  69.2196512  21.2499642  11.6865933  68.3164978
  20.4580784  11.0645854  69.4465446   3.1046569  50.1617479  40.0266838
   3.0411008  49.8813677  39.1136742   3.3498544  51.0856724  39.9769878
  85.4644871   9.7691029  62.1370363  86.3602543   9.6002132  62.4290991
  84.9334240   9.6780699  62.9281902  27.6736188  17.1598315  23.3856440
  27.1820045  17.7152896  22.7806520  28.5683346  17.1685815  23.0455852
  54.5557261  18.6927998  57.6453733  54.4396496  18.3419585  58.5283613
  53.7764931  18.4058213  57.1692705  55.5358315  36.9535422   5.8368289
  54.8736811  37.5422049   6.1991358  55.2595663  36.0809326   6.1169386
  15.1751852  59.3130779   3.0929860  14.8682296  59.7228146   3.9017648
  15.0032854  59.9653339   2.4138366  73.4666014  39.5193839  53.9120722
  73.3216810  40.2294302  53.2867193  73.2659578  38.7228012  53.4207153
  47.7035856   4.7671255  65.9220028  47.9656744   5.4082447  65.2613163
  48.1325865   3.9553431  65.6514454  19.4381714  40.3868198  62.4742460
  20.3221250  40.6277418  62.1970987  19.4284678  40.5548096  63.4165430
  82.5031662  77.4830198  15.0843763  82.9328632  77.5683165  15.9354436
  81.6194153  77.8218555  15.2272332  41.1749220  30.7913685  70.5988121
  40.6964207  30.0823259  70.1692486  41.5704727  30.3816605  71.3681698
  51.6747093  30.4995894  49.5691299  52.4695778  30.2470016  50.0388288
  50.9839916  29.9670815  49.9635553  28.7143683   7.4944824  60.0272846
  29.4706488   7.9760826  60.3624487  28.0738544   7.5298530  60.7377195
   1.9438234  59.2702103  10.5908978   1.8993708  60.2262068  10.5727768
   2.7986822  59.0774441  10.9759820  64.4313526  72.1093559  26.3183069
  63.5567665  72.2904968  26.6625762  64.9965906  72.1046400  27.0907831
  69.5575428  52.0294094   7.4128199  70.4455566  52.3698568   7.3043865
  69.0820503  52.3524952   6.6474742  57.4237204  79.6968174   6.8461674
  57.5423002  79.9275112   7.7675533  57.4885559  80.5304718   6.3802767
  77.2734261  78.5042572  67.2301245  77.7217293  79.3367100  67.0808887
  76.3773775  78.7522221  67.4578047  48.4969854   4.5054600  44.9554491
  49.1901970   4.4575450  45.6137753  48.3782530   5.4425317  44.8004293
  52.5476456   8.6638570  67.5396156  51.7611742   8.4629256  67.0323515
  52.6720715   9.6060449  67.4254513  75.3036737  49.6961164  25.8329248
  74.4892120  49.2158890  25.9821248  75.5617905  50.0055075  26.7011905
  56.5179110  37.6870728  59.1072130  56.5952587  38.6391973  59.0463352
  56.5397024  37.5045776  60.0466013  70.4857159  71.2472677  65.5484819
  69.8017120  71.9010258  65.4036522  71.3051701  71.7304182  65.4422331
  11.7632353  32.4465942  47.5328016  11.6901457  31.7840290  46.8458557
  11.3116145  33.2117152  47.1766233  68.5898924  67.2527027   5.4956621
  69.1259718  67.5861597   6.2151450  69.2017603  66.7584038   4.9502078
  65.6492901  61.7793655   4.4527233  65.1301432  62.0531416   5.2088755
  65.1745749  62.1270275   3.6977327  73.2803011  28.1895447  66.5013313
  74.1843319  27.8752947  66.4867020  73.2512569  28.8012791  67.2369719
  34.1217208  42.4342537  70.0745535  33.8858151  42.4761724  71.0012817
  34.9587131  41.9700336  70.0612259  42.3076963  22.7948833  54.0169477
  42.5253105  22.2807193  53.2394457  43.1174374  23.2576013  54.2324591
   6.5906054  49.8346949  39.1401553   7.1178746  50.1513815  38.4067202
   6.3865936  48.9271879  38.9142299  76.1196089  54.1534328  10.8828616
  75.3840160  54.5568419  11.3437223  76.0666037  54.5041418   9.9938035
  49.6464586  45.2917814  61.2816858  50.0887728  45.3925991  62.1245527
  49.9036884  44.4209433  60.9788609   6.3676935   5.0103313   5.7593924
   6.3170356   5.3641146   6.6473687   6.2679118   4.0650457   5.8721328
  39.4469523  25.5425882   0.8907446  39.5149422  25.7999849   1.8101770
  38.9138269  24.7476983   0.9033484  16.9330955  64.8050022   0.3644080
  17.5049210  65.5554724   0.5257738  16.0761154  65.1913071   0.1838906
  33.5542822  71.1851454  42.4615002  33.0301237  70.5666971  41.9525719
  34.3389511  71.3266468  41.9318724  25.0471330  76.7168093   6.4717782
  25.3178787  77.6348734   6.4624149  25.7357025  76.2591028   5.9894854
  83.4971142  65.9091616   7.6347351  83.9495182  65.1738358   8.0480850
  82.5697708  65.7485104   7.8092599   6.1785132  82.5338173   9.0740979
   6.4191800  82.1169853   9.9014789   6.3306004  81.8588066   8.4126937
  65.0750875  58.9933300  38.0563903  65.5723810  58.9655399  37.2389817
  65.4704189  58.3122587  38.6005306   6.1900693  82.7041721  38.6765504
   6.0517788  81.9159508  38.1513691   7.1382260  82.7457142  38.8010669
  66.1269283  30.8525872  54.9897099  65.2688932  31.1654639  55.2762651
  66.6659117  31.6421437  54.9414444  56.1055136  45.0187635  46.5775108
  56.7628050  44.5909786  46.0286951  55.4582739  45.3552771  45.9577799
  44.0103865  25.8730984  63.5083723  43.9118290  25.4869723  62.6380682
  43.3511734  26.5664554  63.5388279  71.9873190  58.0666971  13.2675982
  71.6320992  58.8551140  12.8571665  71.3398218  57.3869324  13.0807781
  79.4035435  48.3171701   6.1944860  78.8917637  48.3103037   7.0033509
  79.5117092  47.3925781   5.9716386  57.3926687  23.0020308  40.0749063
  57.4387789  22.8684425  41.0216188  56.5387774  22.6492953  39.8245549
  79.8332977  61.2536287   1.0242790  79.3895340  61.8859291   1.5895239
  79.5816040  61.5080357   0.1364957  37.1646261  70.1632690  25.4177022
  36.5291572  70.7636929  25.0279593  37.0685697  69.3539381  24.9157190
  12.6320577  74.1400003  25.6610179  12.9127097  74.9135160  26.1500430
  11.6926455  74.0756893  25.8330655  30.9947252  33.0071306  43.4703159
  30.6383610  32.2127867  43.8681269  31.9330311  32.9674649  43.6553574
  54.6111965  47.3480129  58.7669039  53.6598206  47.2897625  58.8547659
  54.8202896  46.7663527  58.0360222  12.1793389  37.1834826  55.1083755
  12.7504754  37.9449797  55.0076103  12.5377452  36.7132163  55.8611250
  67.6191950  59.8389339   4.3892264  67.6519012  59.5765352   5.3091770
  66.8278551  60.3730631   4.3204996   4.7102898  75.0880909   4.3304321
   4.9117947  74.1541719   4.2719010   3.7595153  75.1347256   4.2300063
  84.6535206  26.6065860  33.8664174  84.1444016  25.8500433  34.1574001
  85.5541229  26.2856674  33.8198948   8.2059354  49.8617744   2.9779854
   8.2514077  50.1343679   3.8944232   8.0020064  50.6650400   2.4990118
  45.8485889  43.8807869  71.1858702  46.2288475  43.1067848  70.7704735
  45.0603056  43.5561275  71.6211128  22.5890565  44.7881126  69.9014759
  22.9046416  44.8791504  70.8005571  22.4522710  43.8473463  69.7897530
   2.4645677   6.8051225   9.3779534   2.3828563   6.8420970   8.4249640
   1.8606263   6.1115623   9.6433979  38.2124734  14.8233140  13.7169182
  38.1614876  14.9459302  12.7689743  38.4943938  13.9151144  13.8261294
  27.5239921  26.1927772  61.6941071  27.4633622  27.1467948  61.6450405
  27.5136352  26.0000277  62.6316404  37.5680065  17.8455055  42.3395729
  37.6281500  18.1837249  41.4461374  38.4541583  17.5457716  42.5423622
  31.2958264  82.4034119  20.5242395  30.8786368  81.8625736  19.8536599
  31.1191678  81.9449997  21.3457513  43.7371969   2.6084608   3.6382523
  42.8110313   2.4103461   3.7768120  43.7582159   3.0883494   2.8103048
   2.9323223  19.3827021  59.0927744   3.0127209  18.8699436  58.2885075
   3.8032770  19.7565699  59.2265368  76.5483332   4.3133992   1.2508972
  75.6713104   4.5684314   0.9645017  76.6570568   3.4205627   0.9233996
  55.9749126  28.9173722  44.0626764  56.6283655  28.2189131  44.0254831
  55.7876301  29.1192126  43.1459332  80.9109211  73.4640932  10.1829684
  80.5713749  72.6317501   9.8541129  81.0751343  73.3052874  11.1125100
  31.3989782  20.5847287  36.9022512  31.2680888  19.7575307  37.3657632
  30.6381536  20.6595063  36.3262415  67.3564720  74.6729422   7.5370461
  67.4885607  74.9558115   6.6321874  66.7290783  75.3009272   7.8951472
  25.7567382  45.1260757  15.7336783  26.0392618  45.9421873  16.1464453
  26.5714073  44.6715689  15.5192828  49.7071838  12.3846328  22.3196745
  49.4066811  13.2690179  22.5289464  49.9614048  12.4298847  21.3979626
  67.5917244  12.0275283  62.8568649  67.8858232  12.1300316  61.9517517
  68.1164694  12.6566541  63.3519125   0.4147070  58.2911253   2.4991845
   0.5824811  58.5394430   3.4082624   1.2073606  58.5510063   2.0297208
  69.7130203  55.0519466  22.2741771  69.1900921  54.8528051  23.0507851
  70.3296280  54.3228769  22.2072124   6.9857937   6.2193334  58.7608767
   6.7031133   5.5686885  59.4035149   7.7669019   6.6146457  59.1479540
  84.0253353  42.3911428   4.6306133  84.5479298  42.8555107   5.2844423
  83.5290146  43.0794811   4.1877943  63.7482071  17.3991096  67.8188896
  63.6533451  17.2505701  66.8780565  63.7450361  18.3517170  67.9124880
  80.6888294  82.4269962  12.2614813  80.5256462  81.9294834  11.4601755
  80.8716679  83.3162785  11.9582236  62.3171711  35.9771538  57.4638128
  62.0824957  35.7563639  56.5624762  63.2571268  35.8039236  57.5158739
  65.3601837  37.8903151  59.0042162  65.0942898  37.9053307  58.0848122
  65.0635719  37.0388103  59.3254519   0.0966095  67.6073027   3.2519093
   1.0254454  67.7925301   3.1133959  -0.3509104  68.4070539   2.9755944
  65.3293753  37.2172999  56.3154554  66.2572145  37.0821929  56.1228514
  64.9017525  37.1980286  55.4592991  41.2319708  65.2094507  59.3214750
  41.5522957  66.1091900  59.3854856  40.9073019  65.1340675  58.4241772
  65.7816553  54.5081663  10.9667540  65.5474424  54.0126181  10.1820195
  66.7327738  54.4210052  11.0300756   6.5318775  54.9035120  60.3254557
   6.6453332  55.8539629  60.3267670   5.8803070  54.7410202  59.6433401
  57.4137068  64.8569870  14.9173164  56.4592743  64.8499727  14.9897087
  57.7213812  64.9650049  15.8172619  24.9392343   8.5911864  57.2016096
  25.3396273   7.7597439  57.4558163  25.2445245   8.7403417  56.3067436
  65.4447889  81.6731930  10.7417333  64.9335718  82.4685764  10.8909130
  66.0628176  81.6451836  11.4721358  61.5797758  79.1514444  23.5372663
  61.9558764  78.3203650  23.2472944  61.9258308  79.7984028  22.9225111
  82.2449398  19.0166473  56.9339418  83.1926441  18.9716864  57.0606756
  81.9844437  18.1136179  56.7525244  81.7955017  63.0020523  19.0685058
  82.4408150  62.6761770  18.4411263  81.4055443  63.7626982  18.6377227
  74.1451120  73.2620335  13.7812746  74.6397257  72.8803205  14.5064557
  73.9055729  74.1363001  14.0887010  30.3178000  27.1423197  52.0458412
  29.4556379  27.5569201  52.0139837  30.3166032  26.5303159  51.3098526
  62.3882914  17.7574921  71.5317106  62.7509165  16.8716466  71.5284777
  61.4450407  17.6298034  71.6327620   6.9023782  39.7669959  24.0004802
   6.4272356  38.9360499  24.0004516   6.9021189  40.0430822  23.0839610
   7.5523347  33.3159590  61.1235952   7.7455199  34.2190886  61.3751316
   8.3723223  32.9900289  60.7526255  21.5237069  48.0554581  18.9124465
  22.2198486  48.5952330  18.5379374  21.9421268  47.2125292  19.0874672
  81.2741184  52.9209280   4.2351338  81.3495636  53.0482721   5.1808202
  81.0924721  51.9866848   4.1330013  17.2284579   9.2955518  15.2786100
  17.8421640   9.9757767  15.5559003  16.6708255   9.1500664  16.0428822
  30.7698226  68.6800051  11.8963552  30.1187968  68.8751316  11.2223196
  31.2802076  69.4857788  11.9767892  33.6951518  14.2503345  16.8439031
  34.3763447  14.3085313  17.5138438  33.6042762  15.1451480  16.5163636
  63.8714504  20.3028631  67.3500204  64.4325209  20.5483460  66.6143799
  63.0222034  20.6936526  67.1443558  32.1492290  40.8468199  63.4214115
  32.5691390  40.1214647  63.8837624  32.7015948  40.9931660  62.6534891
  71.2679958  70.1109743  70.9976053  71.7482042  69.4056320  70.5638790
  71.6588926  70.9139538  70.6531429  74.4148445  67.8565693  11.2106657
  74.7781372  67.1430588  11.7352188  73.4995365  67.6117802  11.0745645
  35.5360603  24.6057892  62.9230976  36.2885475  24.3842983  62.3745203
  34.7834492  24.5396376  62.3353624  68.9729738  64.7871304   7.8921062
  69.2605591  64.2856741   7.1291721  68.2067823  64.3131113   8.2153547
  62.6946878   5.6169939   8.6659640  62.9904222   6.3014239   8.0656904
  63.1625175   5.7953858   9.4817746   9.3794745  58.3589458  13.3528483
   9.9674928  58.5055399  12.6119184   9.4326073  59.1663742  13.8641894
  42.9514837  31.8464279   4.5779103  43.7530756  31.6181755   5.0486434
  42.5471830  32.5308108   5.1111937  52.7903795  53.5843897  45.9435225
  52.8432560  53.5849285  46.8992615  52.2631359  54.3548870  45.7323790
  38.2442021  25.3182149  55.3418016  38.0240011  24.4449520  55.6660795
  38.8566422  25.1595759  54.6234846  54.7925520  55.5282116  64.9228048
  55.3951168  56.2385082  65.1433134  54.0673447  55.6292582  65.5393267
  62.1608829  13.9481938  61.6803598  62.7954435  14.6103811  61.9543552
  61.5826607  13.8434291  62.4359465  75.5861807  31.7346001  37.2202516
  74.8710632  31.5411139  36.6141152  75.9439421  32.5667405  36.9107676
  86.4947128   2.3031868   8.0819994  85.6364536   2.2720411   7.6593345
  86.3121319   2.1393596   9.0072334  64.1962481  53.2456446  61.1724854
  63.7570572  54.0105438  61.5443325  65.1287127  53.4549236  61.2267876
  66.3526964  77.3110819   4.8913521  66.9333792  77.7301598   5.5265009
  66.9319773  77.0416641   4.1785571  61.8173599  15.4045653  41.0650539
  61.6453362  16.3405669  41.1677217  61.6369486  15.2277434  40.1417875
  61.1472607  22.3120880   9.3728054  61.2036085  23.1624222   8.9369273
  61.4240742  22.4853516  10.2725756  40.9279680   5.3740257  53.0410576
  40.9015942   5.7447636  53.9231539  41.8454313   5.1351666  52.9089737
  52.5252914  21.1265516  54.9226809  52.3923922  21.0114837  53.9817572
  52.5380611  22.0753622  55.0484991  24.4161534  63.6916161  33.8796258
  24.2964292  62.8699350  34.3557954  25.2571869  64.0276289  34.1894436
  76.8861628  56.2167978  54.7563648  76.3625145  56.9364834  55.1086092
  77.7628088  56.3618946  55.1122761  11.5450466  35.2120662  21.9028759
  12.0880675  35.9466767  22.1887231  11.1598825  34.8706603  22.7099204
  53.9084387  46.0454798  17.3075747  53.3972216  45.4004908  17.7963269
  54.5977402  45.5337667  16.8842018  75.4268932  60.4650545  18.4399998
  75.5665398  61.3896227  18.2352889  74.5002174  60.3155422  18.2525182
  46.9554090  52.3289347  55.7039642  46.3734245  51.7034340  56.1355543
  47.2295904  51.8861866  54.9008274  50.8873129   1.3042895  34.7237992
  50.2963495   1.7713466  34.1331625  50.9330893   0.4179529  34.3652701
  22.5444794  18.6249566  46.1527681  22.0309639  18.2529795  46.8698215
  21.8929052  18.8871014  45.5024099  49.9354506  71.7625141   8.1887102
  49.2736673  71.0773277   8.0949205  49.7831631  72.1247196   9.0615493
  33.3117247  79.0924358  47.2380352  33.7042785  78.3707762  47.7292967
  32.5094104  79.2998219  47.7171135  13.6342561  67.1932077  51.6564131
  13.4315240  68.1238127  51.7518520  13.2156384  66.7783070  52.4106359
  62.1430349  12.7345777  51.7576933  62.5984001  13.3625877  52.3184776
  62.8175592  12.1026826  51.5087938  70.9884691  45.4189873  12.9206085
  70.8781338  45.7425785  13.8146710  70.1606894  44.9821472  12.7201378
  71.0882950  16.3591516  67.9273462  71.7548513  17.0456779  67.9025936
  70.8581734  16.2820268  68.8532686  55.0987864  58.6949778  17.6497734
  55.0429153  58.3704519  18.5485470  54.6311855  58.0414772  17.1296608
  50.7583761  38.8739657  48.0947065  50.5037737  38.5455084  48.9569807
  50.7187557  39.8265362  48.1799793  20.0513172  82.3639011   0.5335575
  20.8754373  82.6190758   0.1188950  19.3949115  82.4653625  -0.1556957
  51.6567516  25.3049350  64.3939066  50.9449959  25.9327078  64.2692709
  51.2719917  24.4584084  64.1667795  72.3963833  58.0495501  62.5697422
  72.4390411  57.2233486  62.0882845  73.3113718  58.2831478  62.7261305
  63.7319469  55.1004982  24.6026921  63.8760328  54.4622660  23.9040303
  63.9004707  54.6142530  25.4097819  56.4947176   0.0846620  17.4070525
  55.6130075  -0.0075328  17.0460474  56.5332699   0.9895149  17.7168691
  15.4199064   7.4953419   3.7508136  16.2520242   7.8155631   3.4025759
  15.6525230   7.0755994   4.5790267  30.7727146   9.5817977  22.8958750
  30.8825040   8.6310858  22.8778529  30.1449633   9.7370726  23.6016011
  49.0692854  28.4802222  68.2356215  49.8809719  27.9840541  68.3415413
  48.7308931  28.5786891  69.1255808  41.5702105  15.5622721  50.3191423
  42.0255995  15.1526642  51.0547209  42.1244383  16.3043725  50.0775909
  49.4914675  80.8994579  11.3787317  50.0042391  80.0991726  11.2654316
  49.8801756  81.3269520  12.1418762  84.3233967  49.0469360  44.1628456
  84.3891430  49.5799923  43.3705330  85.1488972  49.1988993  44.6229410
  37.1442962  12.6668870  46.6180754  36.3289976  12.6503050  47.1193171
  37.4522781  11.7606890  46.6316605  24.6035242   3.6376768  61.6190481
  24.2383766   4.5068675  61.4534950  24.4414902   3.1518233  60.8103895
  46.5268517  79.8588085   4.1371414  47.2519302  80.3524685   3.7540096
  46.8763781  79.5209789   4.9617234  24.1074991  67.1079636   8.5841703
  23.6360216  67.4453640   7.8225267  24.4926119  66.2852716   8.2823390
   5.2114832  33.1046438  68.1833982   5.2414119  33.8101077  67.5371361
   4.3382391  32.7254868  68.0838156  51.4930677  27.0645976  68.2517672
  51.6519356  26.1852837  67.9085493  51.8031979  27.0281839  69.1565990
  32.0835900   0.8905742  58.3889437  31.5247250   0.5038639  57.7148867
  32.8799486   0.3597228  58.3733511  25.6883097  22.7506375   4.9388933
  25.3137898  23.5340166   4.5360473  26.1160660  22.2909641   4.2164290
  62.2428799  80.4982090  11.9289327  61.3590527  80.8645821  11.9582641
  62.1579313  79.7105265  11.3917482  43.7365818  63.5893393  13.8715374
  43.2271814  63.8710308  14.6314025  43.7363720  62.6335812  13.9239979
   8.8587201  74.2243910   4.0503645   8.7194663  74.6379328   3.1984133
   9.0218180  74.9546719   4.6472907   0.0647569  73.7579393  23.6204529
   0.7024708  74.0858555  22.9864001   0.4040506  72.9014492  23.8803315
  29.1604209  72.3587036  49.1412306  28.2674670  72.6958895  49.0693235
  29.0651250  71.5243959  49.6006632  40.2483368  20.9845877  69.4537306
  39.3398070  20.7194757  69.5969725  40.7653475  20.2301073  69.7360325
  43.7062502  26.5756273  56.1357117  42.7797413  26.7429304  55.9630251
  44.0265656  27.3866630  56.5304899  64.0345907  41.2178802  19.7284341
  64.7769785  40.8828259  20.2312565  63.2906675  40.6904888  20.0194192
  65.4332352  53.0871201   8.5378051  65.4153252  53.1865501   7.5859517
  64.5286894  52.8818703   8.7742412  30.5606103   0.8752015   4.1822368
  30.2423024   1.7620748   4.0138078  31.3727522   1.0013637   4.6728909
  42.1648264  48.4227371  65.5333757  42.4992704  48.6122990  66.4099884
  41.6477537  47.6245356  65.6417227   2.1561761  69.0752411  14.4739664
   2.9308528  69.4940901  14.0989041   1.5208775  69.7852850  14.5659804
  76.9063807  81.3890076  70.3423977  76.0728407  81.6997337  69.9889994
  76.7696333  80.4533482  70.4909849  73.3770323  15.5356050   4.6285853
  72.6061392  15.2500808   5.1189214  74.0300512  15.7300210   5.3008950
  17.8165591  40.9282732  20.2198529  17.9707408  40.0507116  20.5696321
  18.4902215  41.4711189  20.6294012  38.5056210  30.9177065  40.6359529
  38.7835765  30.9222007  41.5518999  38.6028552  31.8265343  40.3516865
  77.4687195  55.6762934  64.9893332  77.0554304  55.3425264  65.7855940
  76.7792559  55.6358242  64.3265915  60.6711531  46.9069767  41.3936281
  61.2649965  46.4449215  40.8019495  60.6843376  46.3892603  42.1986294
  22.2252488   8.7783825  56.7566204  23.1693268   8.7661743  56.9140959
  22.0523739   9.6516603  56.4048672  49.6884489  51.7822647   1.0214883
  50.1067877  51.0790205   1.5181468  49.1944027  52.2764015   1.6756916
  82.2948265  51.7407703  50.2527618  82.8208828  51.0730696  50.6928444
  81.5791130  51.9218111  50.8620262  84.2958355  59.0179253  15.6001925
  84.2014122  58.0746841  15.4674935  83.6231804  59.4069576  15.0412488
  44.9842310  31.3992977  53.3090687  44.9101686  31.4076924  54.2633581
  45.6372309  30.7239389  53.1254482  11.2884295  35.5895162  49.4438028
  12.1560848  35.1870966  49.4820690  11.3010144  36.2520432  50.1345491
  61.8156672  56.4581108  36.4845109  62.0671034  56.5390348  35.5644751
  61.2918949  57.2399855  36.6593313  35.9095550  25.3251529  15.8375597
  35.4057074  24.5601940  15.5596948  35.7144928  25.9923625  15.1795220
  46.4472580  43.0283976  62.8153038  46.3924456  42.3582792  63.4966040
  45.5357647  43.2284880  62.6022720  84.7226810  69.5816183   4.0756348
  83.9375782  69.5366383   3.5298979  84.8505116  68.6851025   4.3857086
  80.5378532  54.4544125  50.2917337  81.0289383  53.9366150  50.9296608
  80.1908398  53.8091516  49.6757317  19.9558294  70.3312540  66.0829115
  19.3785596  69.9814558  66.7616129  19.8650110  71.2812138  66.1574793
  66.0107517  43.1450462  69.8217630  66.3119841  42.4334049  70.3866196
  66.0282564  43.9201736  70.3831053  39.2994499  33.5158324  60.2319813
  39.4584417  33.7925506  59.3295527  39.9533010  33.9892244  60.7463837
  15.5812752  42.0495892   0.9395432  16.1516201  42.7740097   0.6823383
  15.7816255  41.9036388   1.8640918  53.8364124  65.2633762  25.8953428
  53.7361431  65.7757854  25.0930882  53.7737417  65.9076643  26.6004610
  75.2152538  44.4245577  43.1014013  76.0672379  44.8165464  43.2929802
  75.0980854  43.7617493  43.7819815  49.3435717   9.1246676  63.7491941
  49.2237711   9.0440387  62.8029490  48.4717798   8.9742184  64.1146755
  70.2328300  40.7633066  49.1452312  70.2853537  41.6832113  49.4045591
  70.9394026  40.6531143  48.5089588  83.0368519  59.1957378  66.1046648
  83.8566113  58.8458824  65.7556343  82.4405956  59.2009640  65.3558779
  36.0094213  34.3181777  27.4343920  36.5435243  33.8802528  28.0971026
  35.3320622  34.7730255  27.9349208  24.8638439  36.2856603  54.1273308
  24.8180032  36.2269616  55.0816250  24.0991139  35.7986116  53.8203955
  76.8789053  34.8646021  58.4706974  76.5791130  33.9669228  58.3274269
  76.1023378  35.4034495  58.3196449  46.4518881  50.6661701  43.3371639
  47.0608377  49.9321413  43.2558060  46.1376572  50.8166313  42.4456167
  23.3372588   0.1549117  25.3845191  24.2508693   0.0916927  25.1060224
  22.8335376   0.0660579  24.5754433  68.8131571  26.9473648  55.3630161
  68.2312679  26.7655277  54.6250677  68.2806444  27.4664664  55.9656763
  34.1128278  76.2629652  36.9376659  33.3091354  76.1773825  37.4504876
  33.8172698  76.2619543  36.0272408  76.7208004  74.2558002  18.1142223
  76.9989824  73.5934734  17.4816322  75.7981920  74.0592670  18.2766914
  17.3775744   1.2554018  10.7609987  17.8514254   1.5050694   9.9676740
  16.4651716   1.1805364  10.4814494  24.7218966  17.0267701  20.9282279
  24.7225857  16.2057006  21.4202404  25.2790308  17.6131678  21.4400601
  32.7716517  46.2343740  70.2754354  33.5867286  46.5830851  70.6363821
  32.8445292  46.3825130  69.3325806  29.3773651  18.8670290  58.0387211
  28.7541914  19.0658915  58.7375355  29.3852210  17.9111183  57.9896832
  33.6905360  55.4461145  37.7095962  33.8918710  54.6653080  37.1938062
  33.2944131  56.0515738  37.0829058  28.2066679  62.6664305  26.3719487
  28.8262415  62.0310688  26.0132337  28.0771923  63.2996368  25.6658912
  73.7930298  30.3258657  71.0414028  74.2155504  30.8872747  71.6914225
  73.3664179  29.6415186  71.5570593  12.5972354  63.0178022  16.0599279
  11.8118513  63.5620451  16.0033679  12.4135363  62.2720957  15.4886067
  52.5556612  24.0447855  53.9511585  52.2289371  23.7697244  53.0945206
  53.4251022  24.4029284  53.7721825  32.7096152   2.6188961  28.3376145
  32.2810817   3.1881699  28.9767718  32.0130730   2.3772335  27.7271557
  56.0977221  42.8526068  57.8902292  55.3032398  43.3005762  57.5997972
  56.7567396  43.5446978  57.9443645  79.9419928   7.4820054   7.1805859
  80.0242329   7.2769564   6.2492293  79.0649700   7.1792525   7.4159610
   1.6221669  22.1942139  68.4932756   0.6728662  22.1146750  68.5867310
   1.8700036  21.4593911  67.9321671   1.2093134  56.3475800  44.3041801
   1.2578602  55.6202459  43.6838055   0.3523273  56.2512970  44.7195530
  29.9818182  49.0326548  65.5414963  30.1933312  49.8809242  65.1517105
  29.7730207  49.2336464  66.4537668  20.1523805  44.4820166  62.5483894
  20.3434157  43.8166571  61.8873024  19.3036580  44.2249298  62.9086733
  44.6831179  29.7151804  55.4039145  44.2549658  29.4894290  56.2297201
  45.5853462  29.4142175  55.5117941   8.9484787   5.5000317  63.1550455
   9.6697056   4.8738393  63.0922270   8.3471274   5.2436787  62.4558401
  59.7947645  57.0167303  65.3784943  60.4972744  56.7465830  65.9698725
  59.6919918  57.9543781  65.5412292  56.7262268  32.1549392  56.4388752
  56.7130089  32.3056316  55.4937029  57.6425505  31.9627476  56.6379786
  57.2091198  47.7264404  56.7811775  56.5870428  47.9510832  56.0892344
  57.9632282  48.2930851  56.6185045  27.2952271  39.4248176  61.6190195
  27.1487260  40.3681660  61.6887474  26.4969325  39.0317369  61.9717884
  65.6619787  77.9938698  13.8124609  64.8810625  78.5269022  13.9617264
  65.7570553  77.9696846  12.8603017  85.9606361  15.1711297  13.8637352
  85.5678082  14.2991686  13.9037013  85.8552170  15.4397178  12.9510581
  72.0102215  81.6819763   6.3450998  71.5504837  81.9088936   7.1534222
  72.9351187  81.6684628   6.5913075  57.9990244  58.3028603   5.2403772
  58.7007189  58.0857897   5.8541662  57.4591970  58.9393473   5.7090980
  22.4667215   8.0456591  34.3433070  22.6162767   7.7087861  33.4599161
  21.5675688   8.3734471  34.3256092  58.6572838  37.3943782  68.7010479
  58.0550957  37.6479650  68.0015516  58.4190702  37.9570484  69.4378567
  27.4783635  33.4886789  17.9099905  26.9767451  33.3055496  18.7043929
  26.8147087  33.6601496  17.2418654  25.3163767  25.0554848  59.3839216
  24.7409248  24.7631335  58.6770821  25.9634542  25.6124377  58.9511061
  79.4477463  54.2560768  67.1406221  79.6934128  53.6016703  66.4866829
  78.4977627  54.3357897  67.0545483  63.2281017  42.0334387  32.9388022
  64.0593052  42.5062752  32.8968668  62.5607300  42.7188253  32.9057670
  72.9358482  62.8557158  67.3900938  72.4323082  62.4277639  66.6976070
  73.4532356  63.5198021  66.9345379  26.0505033  47.7211523   1.0061754
  25.1700878  47.9149628   0.6844065  26.2218642  48.4001207   1.6587612
  79.5705843  19.0051341  34.2644906  80.2776241  18.3753574  34.1241026
  79.8145437  19.7618675  33.7315083  46.8376780  33.7898397  45.9563303
  46.3635302  33.3195066  46.6420412  46.7026663  33.2640123  45.1679707
  32.5211143  39.9965310  69.7902536  33.2049131  39.3582678  69.5871019
  32.9415512  40.8468819  69.6623039  57.7575302  34.0769291  64.4732761
  58.2247066  33.9101148  63.6546516  57.4587059  33.2135344  64.7587347
  44.8740244  16.9119251  59.0907907  45.3336382  17.6405931  59.5079613
  44.6422100  16.3294113  59.8140955  78.3102894  45.2950525  63.6344671
  78.7925196  46.0662985  63.3363628  77.9323912  44.9255991  62.8363895
  51.4947796  56.0624981  45.4767847  51.6190958  56.2066174  44.5386982
  50.5566025  56.1910152  45.6165886  55.8801889  14.6975744   1.6925605
  56.6244411  14.4351304   2.2342612  55.1158571  14.5570552   2.2513866
  46.2254858  55.9706926  45.1684666  46.3434458  55.1815414  44.6397352
  46.0625935  55.6440020  46.0533237  54.3653440  19.2678761  48.0947161
  54.7010899  20.1639104  48.0696201  53.4162426  19.3654895  48.0178404
  47.6117754  80.5112267  15.9763396  46.6781759  80.6929111  15.8685875
  47.6747608  79.5565033  15.9485102  58.5397720  53.1407738  65.8507299
  58.7072802  52.2017241  65.9304953  57.7105427  53.1966591  65.3758717
  60.8980751  26.3992453  54.7284079  60.8737993  25.4866385  55.0161409
  61.7429924  26.4890099  54.2876244  62.0817327  58.3471346  62.4252272
  61.8674278  57.4459457  62.6663971  62.4795008  58.2747507  61.5576029
  77.3835373  27.9034615  63.3942413  77.9429674  28.6023402  63.7331200
  77.9341459  27.1209884  63.4224701  42.1377516  76.5510130  22.7420282
  42.3242331  76.6762257  21.8115568  41.8963528  75.6276941  22.8157878
  79.4097710  53.0567694  48.1807423  79.9757910  52.3318720  47.9154682
  78.6102772  52.6340199  48.4943056  39.2815828  61.7860651  14.5737302
  39.4906855  62.2973728  15.3554428  38.5874128  61.1904001  14.8557532
  64.5513153  56.6081715  50.8145189  63.6788082  56.2398958  50.6754637
  64.9033880  56.7295218  49.9327278  55.0740385  47.4663162  24.4669652
  54.6081305  48.2033920  24.0721512  55.3587675  46.9364309  23.7223983
  27.2907948  14.9699521  15.5224752  27.1831870  15.9012604  15.3292942
  27.8539777  14.6433055  14.8207927  73.7095833  72.1049500   3.2136568
  73.5697365  73.0384779   3.3724251  73.2711124  71.6693687   3.9445755
  74.1523790  15.0772226  35.0341344  74.3491793  14.5865941  34.2361474
  73.2884789  15.4573345  34.8746705  19.9664950  49.9695444  47.7486181
  20.5364132  49.2410612  47.9950666  19.0793943  49.6247959  47.8507471
  68.0028820  29.2264915   6.8384248  68.7951374  29.7604084   6.8975782
  67.3319912  29.8283172   6.5160280  21.6680789   8.3969629   1.2062237
  22.4085236   8.9790612   1.3769132  21.0127497   8.9582318   0.7917921
  62.6076603  21.7786860  50.2129030  62.2562027  20.8921051  50.1311493
  63.0480480  21.9396472  49.3784046  65.6888533  34.7529864  40.5518436
  66.2406921  34.0199089  40.2792597  64.8208284  34.3677449  40.6716633
  26.9558382  69.0425587   4.5872679  26.8116522  69.1362333   3.6456379
  27.7910137  69.4822502   4.7465959  80.8065319  24.6024609  59.8383904
  80.4928875  25.1481366  60.5595636  81.7552662  24.5665908  59.9602509
  80.3074265  28.5721636  47.6173306  80.8273411  29.3638611  47.7556801
  79.4781971  28.8896227  47.2597980  62.0169449  44.9823618  50.5332375
  61.7414379  45.5828571  49.8406124  61.4792109  45.2237558  51.2874269
  72.9510975  37.2169971  55.9084082  72.2431707  36.6214824  55.6625795
  72.5064993  37.9689980  56.2996387  32.8520703  72.3980904  48.5489750
  32.8220415  71.6413403  47.9636002  32.2762275  72.1614647  49.2760563
  47.8716564  64.2933464  59.4152451  47.0001602  64.6560574  59.2566013
  47.8946018  63.4893990  58.8962317  32.2994280  17.2331178  49.2102575
  31.4447761  17.6583159  49.2810392  32.5804257  17.1078551  50.1166677
  69.0345955  69.7381926  37.5374651  68.4865475  70.5225849  37.5619817
  68.5552883  69.1285658  36.9763446  42.2022295  67.9658461   2.2841038
  41.9251108  67.1766329   1.8187203  41.7426825  68.6790371   1.8409248
  12.2158074   5.1633829  18.0275834  12.6701868   5.6220329  17.3208928
  11.5749884   5.7966363  18.3509612  63.6467123  54.5115137  45.5780268
  62.8510952  54.8798370  45.1938915  64.3162346  54.6332502  44.9048662
  81.6563320  70.1522970  -0.2644659  81.7759132  70.8352423   0.3954718
  81.0152626  69.5555925   0.1218009  25.1535797  78.8551521   3.3588311
  25.8629823  78.6656570   3.9728937  24.4397545  78.2790756   3.6323649
  56.9184828   5.5668378  31.9007039  56.0427237   5.2552491  32.1291471
  57.2038460   6.0630482  32.6678896   5.4697144   3.2894555  57.4521828
   5.9106755   2.4711898  57.6807117   6.1033446   3.7597814  56.9103909
  51.4572573  43.8844538  57.4383211  51.0190392  44.1567421  56.6320610
  51.6993141  42.9715157  57.2828007  27.9682064  28.9571953  16.8482935
  27.0120668  28.9160466  16.8299174  28.2452345  28.0465388  16.9492412
  15.3633308   9.0210015  18.6548793  15.9032393   8.2531786  18.8424349
  14.7302949   8.7157190  18.0050337  80.9721756  18.4049761  47.8797579
  81.2596607  19.1126513  47.3028851  81.7840672  18.0226624  48.2127762
  65.3422546  59.2736435  33.4584379  64.5504141  59.7245693  33.7514997
  65.0640965  58.7768269  32.6890039  11.2438869   4.3983096  15.0397408
  10.6174028   4.7882715  15.6493962  11.9760072   5.0146770  15.0217640
  51.9428921  19.3981051  49.3405247  51.9293642  19.1914642  50.2750587
  51.6473961  18.5941911  48.9131689  81.7787933  17.4734628  33.6762857
  81.6198158  17.8149283  32.7963090  82.2183418  16.6354465  33.5322261
  46.0942698  15.4706168  24.0158510  45.7536650  16.3049281  23.6931324
  45.3152561  14.9330914  24.1587996  63.0531549  81.2112999  25.2801251
  62.9891634  80.3262329  24.9212313  63.9671469  81.4600849  25.1424336
  49.0874434  24.7164130  57.4521685  49.7583246  24.0736747  57.6824570
  48.3009481  24.1948342  57.2921371  80.0094032  36.0585999  56.7524099
  80.0337505  35.1864219  57.1460390  79.7688198  36.6402173  57.4735737
  62.8361797  36.0474157  65.5946445  63.3052397  35.7470703  66.3731098
  61.9847536  36.3350487  65.9241390  28.5575247  24.1136432  26.2158918
  27.6986408  24.5347714  26.1812449  28.3975530  23.2184124  25.9172249
  10.0769174  63.3916187   8.9066303  10.1271415  63.5031843   7.9572815
   9.3539083  63.9579248   9.1764230  50.9054804  81.4776897  60.9670591
  50.0393200  81.2730789  61.3193798  51.4430904  80.7201767  61.1981010
  61.1961699  23.6234641  55.3657579  61.4838314  23.3961916  54.4815445
  60.4347467  23.0645609  55.5209827  49.7670937  25.1615858   1.2155118
  49.5794153  24.2579556   0.9616163  50.0867987  25.5743170   0.4132196
   7.2094959  81.0940075  20.0435257   7.4324626  81.4108086  20.9188294
   6.3577461  80.6708622  20.1517200  15.1703465  72.3777437  43.0399132
  14.9314678  73.0534935  42.4054623  15.4751945  72.8649282  43.8053894
  13.8359034  60.2202749   5.4637486  12.9576564  60.5804205   5.3404212
  14.1456020  60.6176329   6.2776428  44.1665602   4.6553227  20.8908725
  44.7824574   4.8534852  21.5963030  44.6996927   4.6708766  20.0960398
  83.1974030  59.4088173  35.2475834  84.0841961  59.4398832  34.8885965
  83.3149624  59.1160250  36.1512899   7.2406912  29.7823048  41.4110184
   7.0174706  29.6529317  42.3327923   6.8120641  30.6046772  41.1739254
  47.9009581  77.7675581  22.6259756  48.2039547  77.9751968  21.7420578
  47.1579742  78.3540010  22.7684212   8.8490885  80.0266171  23.3268404
   9.2330921  79.2259741  22.9694200   7.9167420  79.8275518  23.4124923
  67.9748392  53.5762978  64.2865944  68.1891346  52.6486063  64.1880846
  68.7884188  53.9791489  64.5899582  81.5008068  54.7883606  57.0371580
  82.0009518  55.5997992  56.9496870  81.5767384  54.3667507  56.1811733
  21.3082790  10.8610415  55.4887056  21.9198847  11.4867413  55.1005411
  20.9835911  10.3514576  54.7463226   0.3485122  40.3434801  70.8412695
  -0.3904109  40.1861906  70.2534914   0.7355171  41.1603022  70.5262136
  32.4816990   0.1067492   2.0709690  32.6397848   0.9189767   2.5521424
  31.5438342  -0.0542818   2.1744551  86.5763950  56.4275932  55.0187874
  86.1020756  57.2252703  55.2532291  86.0113525  55.9916735  54.3808746
  60.1073551  69.7953796   9.4936204  59.8700237  70.6935835   9.7241420
  61.0423040  69.7367144   9.6902347  72.4788380  70.5859375   8.6252987
  72.3011446  70.8717203   9.5213932  73.3539343  70.2002144   8.6659956
  36.5773177  10.2263582   3.7211120  36.5689254  10.1824093   4.6772656
  36.1239743  11.0437930   3.5149306  23.5893202  10.7809234  46.9893312
  24.2536998  10.2583158  46.5402031  22.8373241  10.7725215  46.3971615
  24.0292525  20.9311485  39.0349722  24.6634841  21.3372684  39.6257758
  24.4285583  20.0956631  38.7925816  67.0789528  44.4628811  56.1055851
  66.8458319  45.3433418  55.8111811  66.3649940  44.2090178  56.6904402
  79.4767475  81.8319511   5.7684314  79.5630169  82.7456856   6.0402352
  80.3209209  81.4366341   5.9859711  70.1151705  24.2283583  42.6720142
  69.8185539  24.9176311  42.0777512  69.5738554  23.4709358  42.4494791
  21.3676381  54.8695278  19.6081090  21.3253260  54.0221739  20.0513148
  21.5866637  55.4918814  20.3016019  75.4308939  64.8492861  55.8112192
  75.8721781  65.6439257  55.5111361  74.5065117  65.0928020  55.8607292
  23.8830471   3.5352147  48.6201715  23.6604929   2.8940195  49.2951298
  23.5730219   4.3699801  48.9712858  64.5012474  38.5841155  68.6824417
  65.1218128  38.9248371  69.3266726  63.7648630  39.1948915  68.7128782
  56.3872337  55.4932499  23.7354350  56.0234022  56.3765860  23.6756158
  55.7691288  55.0166464  24.2895317  73.6921644  75.4343987   6.0515440
  73.3366442  75.4494572   5.1629430  73.2311249  74.7142935   6.4818013
  77.3947859  51.4307690  53.9233589  76.9419765  51.6374969  53.1057644
  77.3095703  50.4814005  54.0109205  72.2157097  53.2997322  49.9295187
  72.8965569  53.9533091  50.0892687  72.4933910  52.5360394  50.4353857
  23.8944101   0.5585943  43.7593126  23.8585281  -0.1326792  43.0981874
  23.3734965   1.2712601  43.3891916  27.9157686  54.9335670   9.8271269
  27.0728707  54.4959927   9.9466407  28.1861925  55.1782990  10.7121170
  10.9548903  46.7604876   3.1752190  10.0302637  46.9410992   3.3445665
  10.9487998  46.1552143   2.4337074  58.8919449  45.5790234   1.1888658
  58.6039400  46.3255072   0.6634685  59.6220398  45.9180975   1.7067643
  45.6764984  16.1222041   5.4329258  45.5258131  16.7825687   6.1092716
  46.3710308  16.4918733   4.8877633  63.7891483  50.2339315  68.8511133
  62.9536963  50.2661705  68.3850527  64.3170691  49.6095133  68.3534908
  11.5655732  19.6629858   1.0593935  11.3531113  19.3017030   1.9199552
  11.6194153  18.8988256   0.4854666  15.6702697  30.9384227  40.3014326
  15.4897463  31.1878371  41.2077618  15.5132663  29.9945045  40.2769613
  83.2435417  50.1638699  10.7476437  84.1462421  49.9773169  10.4896283
  83.1488800  51.1080933  10.6222916  51.4614248  14.9747670  17.0661175
  51.1623001  14.0664911  17.1084297  51.1748981  15.3601170  17.8941512
  87.3058605  64.3511391  64.7200537  86.7193985  63.7527704  65.1829290
  87.3624611  65.1188660  65.2889347  14.3286443  77.3091269  54.3346596
  14.7733986  76.8167973  53.6447048  13.5826445  76.7606878  54.5774126
  13.7866616  43.7183380  64.5528603  13.0037057  43.1766367  64.4540024
  13.4617805  44.6179438  64.5155478  30.9811044  77.8081369  20.2559328
  31.8628883  77.6886034  19.9032319  31.0540748  78.5706234  20.8299708
  75.5834150  60.4234648  14.0592575  75.6909990  59.5945787  14.5257437
  74.9221945  60.8978558  14.5632207  63.7775564  66.9019032  60.7629442
  64.5374966  67.2756052  61.2091112  63.2822466  66.4669847  61.4570236
   2.7302614  41.9516706  70.3864145   3.5435516  41.7591763  70.8530331
   2.8791139  42.8099918  69.9897337  51.5743923  70.7252216   2.9096562
  51.3327169  69.9256182   3.3770457  50.9422874  70.7842541   2.1932852
  19.8529959   1.5502076  23.4150863  20.2895999   2.3079419  23.0259228
  20.4001236   0.8049915  23.1670213  46.9699574  55.0139523  55.3363657
  46.8053579  54.0741396  55.2595997  46.8414211  55.2045059  56.2655592
  22.1371841  18.0676889  20.0034499  23.0931520  18.0306041  19.9721622
  21.9414186  18.9586174  20.2935410  64.4874191  65.9661102  63.7322760
  65.3929567  66.2681007  63.6613178  64.2574644  66.1121035  64.6499014
  44.3476248   5.2560234   6.0772270  44.9083138   5.2993757   5.3026426
  43.4778547   5.4951614   5.7570010  23.5279512  12.0441067   5.4906994
  24.4071460  11.6669154   5.5219334  23.6507702  12.9591250   5.7434654
  19.7648418  20.0770855  41.7690659  19.2276049  20.8654356  41.6909027
  20.6429482  20.3592968  41.5130997  38.0636048  43.5827398  65.9274626
  38.1785941  44.4016266  65.4453516  38.6685205  42.9708862  65.5080128
  54.1759205  41.2065840  45.4038954  53.7799692  40.3963041  45.0831223
  54.9345350  41.3434649  44.8364449  20.2320886  54.9945259  39.5794606
  19.8800910  54.1112709  39.4690347  21.1810040  54.8722839  39.6085763
   1.0561235  50.9663630  60.0666428   1.9722842  51.2064838  59.9279976
   0.6126424  51.7985582  60.2309990  84.5850182  44.2319965  58.7996435
  84.6395493  43.8800001  57.9111862  85.4036140  44.7140455  58.9169502
  77.7583170  31.9281459  25.2364874  78.3429766  31.9111753  24.4787836
  77.6520824  32.8582191  25.4362583  33.5811639  36.4343047   8.2301408
  33.0709887  37.2395587   8.3168387  33.3596301  35.9252882   9.0099210
  72.8283167  39.5641994  48.0697298  72.7057934  39.4387197  47.1287346
  73.5036182  38.9298058  48.3100319  61.6216564  37.9959607  53.8617563
  61.6082907  38.5449076  54.6457911  61.1674643  38.5151124  53.1981134
  58.6949015  58.4360218  58.7734318  59.0081167  58.8542509  59.5754337
  59.3627596  57.7818394  58.5678911  63.1029415   2.7133438   8.6491817
  62.9445362   3.6573216   8.6559910  63.0233002   2.4504991   9.5661342
  66.6846609  16.8704212  67.5534678  66.8100691  16.2700057  66.8186188
  65.8269644  17.2653043  67.3964310  77.0858812  63.9223671  -0.0345518
  76.5630293  63.7884045   0.7559644  77.9921246  63.9144850   0.2734903
  71.1553049  45.3874254  67.3092175  71.9398975  45.8316898  66.9878578
  71.3035536  44.4635630  67.1073818  66.8807173   7.2353739  71.1431980
  67.3111391   6.8392539  70.3855324  66.9011927   8.1757629  70.9657669
  50.3085470  41.4536381  47.7415276  50.8349800  42.2509098  47.6827574
  50.0187016  41.2912893  46.8438292  58.7646294  11.9726861  63.8930082
  58.9854574  12.8045988  63.4742165  57.9006243  11.7514884  63.5454512
  27.4731374  27.4192190   3.7036958  27.8693390  28.0004859   4.3528375
  28.2109952  27.1063328   3.1803432  52.6287317  41.5681219  56.0273170
  53.3716679  40.9693527  55.9514570  52.5532341  41.9671535  55.1605368
  73.7966013  77.7907658  19.3578911  74.6520472  78.2143259  19.4289041
  73.3291101  78.3041382  18.6990023  32.9904318  34.3096948  67.6958323
  33.6506701  34.6062160  67.0694208  33.4776807  33.7739706  68.3217859
   4.3012801  72.2888565   8.3826214   4.6458372  72.1140575   9.2583829
   4.9919432  72.7901888   7.9491675   3.1880391  18.9620459  18.9957821
   3.9892912  18.5013747  18.7467659   3.3457831  19.8713589  18.7418199
  29.4931936  20.8371210  35.0626040  29.5784616  21.3525844  34.2605686
  28.5554218  20.6591725  35.1343846  46.8058491  18.1891072  20.2243495
  46.5257788  18.6300778  19.4222653  47.6892710  17.8762114  20.0296855
  69.9642706  41.8718624  68.3348989  69.9602699  41.1229277  68.9309835
  70.4805708  41.5778875  67.5844049  42.1951866  46.2170267  68.6450481
  42.8118277  46.3805199  69.3586731  41.3737583  46.6068363  68.9442730
  68.6962080  76.2677050  13.0435240  69.1095448  75.8797407  13.8147974
  68.2373810  75.5389738  12.6255989  77.5009394  26.6801119  54.8280191
  76.5641165  26.7298675  55.0180674  77.5704622  26.9153905  53.9027929
  46.5437412  13.3517778  21.3363481  46.2755919  14.1457605  21.7988634
  46.6399336  12.6942134  22.0252514  72.4801302  54.7244835  63.8661814
  71.7507124  54.4154739  64.4034815  72.0693254  55.0294971  63.0572081
  59.4685984  35.4678035  52.4046469  59.1135502  34.8164868  51.7997026
  58.9860821  35.3263283  53.2191372  15.9696412  25.9250951   3.6458901
  16.1995852  26.7379546   3.1957576  15.3244340  25.5090022   3.0742210
  25.1290536  28.6171818  15.8103502  24.5989823  28.1383896  16.4475417
  24.7682643  29.5037603  15.8165991  85.0282192  70.8277845  16.7754734
  84.5882416  69.9777317  16.7674792  85.0799942  71.0619736  17.7021372
  14.1437292  23.4020925  15.6381655  13.2650113  23.7741780  15.7132566
  14.0271437  22.6192641  15.0998151   4.2240575  27.9379368   2.2793691
   4.6016634  28.8155556   2.3379515   4.8067108  27.3908520   2.8061000
  19.8747420  60.1509285  39.7506523  19.7532988  59.2643452  39.4108653
  19.0193796  60.3898239  40.1077461  57.1400690  41.4644909  69.3723917
  58.0870676  41.3746023  69.4788980  57.0377922  42.1204185  68.6828041
  22.3808002  77.4761248  30.5975008  22.8259635  78.3166170  30.7053494
  21.4490080  77.6923370  30.6328654  69.6085358  33.8393831   4.3688533
  70.1592588  34.6169972   4.4596702  69.3542814  33.6199427   5.2651978
   1.0814125  50.4140806  62.5639200   1.0300926  50.6610489  61.6405535
   0.9767859  49.4626141  62.5635386  58.6457062  55.3862524  63.4948635
  58.0430079  54.7378683  63.8589859  58.9518833  55.8817911  64.2544222
  66.0083246  10.7212782   7.9471916  66.6279984  11.3621092   8.2958573
  65.1707554  11.1842263   7.9273707   5.7229227  78.3306932  40.3774977
   6.2408066  77.8542614  39.7286177   5.8683097  77.8556252  41.1956692
  31.7676616  34.0320444  21.7529368  32.3441982  33.2918215  21.5634489
  31.5393281  34.3841481  20.8926344   7.5082660  20.1154613  20.9123921
   6.6770107  20.5884099  20.8728194   8.0626905  20.5509973  20.2649736
  68.5539770  31.5571094  65.2867413  69.1202307  30.8351803  65.5595207
  69.1574049  32.2735929  65.0898695  66.8751287  65.7303476  48.7233448
  67.0289612  66.0407782  49.6156454  66.0845757  65.1946831  48.7890625
  50.0232744  63.2232141  54.8265076  49.0675879  63.1786537  54.8565483
  50.2678728  63.6690140  55.6374741  44.0187883   4.0226501  63.7733126
  44.0943623   4.9501425  63.5490847  44.7068310   3.8763449  64.4224834
  62.0986748  32.5417972  46.2763882  62.6115131  31.7845821  46.5589714
  62.7476931  33.1561971  45.9335852  24.0387511  68.8954449  62.9831934
  23.3365417  68.4611177  63.4674358  23.6151052  69.6480274  62.5704241
  25.7817054   9.6258873  25.3644800  25.6483769   9.7502077  26.3041615
  26.2015104   8.7685913  25.2934885  73.7759781  63.6094666  60.5379438
  74.5872068  64.0692711  60.3217888  74.0612268  62.7407742  60.8212137
  31.9251037   5.8103675  61.4676332  31.4298773   5.3034544  62.1110773
  32.8377485   5.7182640  61.7411852  83.4284019  39.6997738  65.7441092
  83.5532856  38.8894033  65.2502155  82.8838921  39.4448304  66.4889240
  57.9458570  61.7152405  47.1105242  58.4660196  62.3750496  46.6519213
  57.3932838  61.3305187  46.4301682  69.6389151  63.8603687  55.9897757
  70.2833891  64.0161753  55.2994061  69.9949837  64.3104839  56.7558336
  77.1964407  61.1261415  57.3012066  77.3409939  60.5214691  58.0290174
  76.4509439  61.6593170  57.5772429  66.7863703  75.1714516  62.2415304
  66.0724592  74.7879601  61.7321253  67.5723124  74.7255182  61.9258261
  32.6983285  80.7802963  24.4735098  32.6780391  80.2067852  25.2396107
  33.4348989  81.3698578  24.6351099  49.8260546  28.7165236  21.4461231
  50.2381802  27.8546619  21.3863087  50.2968121  29.1586041  22.1526504
  75.7247734  74.7379589  58.4169769  75.3554153  75.3505182  59.0530491
  76.6552639  74.9599361  58.3830976  26.4801502  31.7438841   6.6970938
  25.8321095  31.2147403   6.2320322  26.5246558  31.3549447   7.5705796
  47.1969461  22.9487491  10.7432818  46.7129564  23.6821628  11.1228752
  46.7648602  22.1697378  11.0935283  42.8740358   8.6887896  28.1449437
  43.7202263   8.7656122  27.7041507  43.0179787   8.0328721  28.8270640
  53.4842968  50.9880924  60.2840757  54.2175913  50.7742310  59.7072077
  52.8011894  50.3614664  60.0454617  65.1101112  15.1740539  20.7768893
  65.2147675  14.4402528  21.3825440  64.2095947  15.4692519  20.9116220
  28.1213260   9.3662781   3.0262008  28.0119681   8.7066078   3.7111154
  27.9561949   8.8939536   2.2101903  47.6404953  21.5380144  17.0331752
  47.2002697  21.5735364  16.1839581  48.5384560  21.2785816  16.8267953
  67.6413631  65.9082174  38.5777211  68.1810617  65.3751135  39.1614628
  68.2420826  66.5688992  38.2329512  28.5367560   4.7116193  60.3284025
  28.6325502   5.6409866  60.1202393  28.4910822   4.2786998  59.4759178
  39.9559236  31.9022417  16.9062114  39.3093014  31.2073755  16.7826247
  40.7978106  31.4468861  16.9166434   5.2059180  59.2697811  65.3670216
   4.6747810  59.7382927  66.0109282   5.0813121  58.3451509  65.5809593
  32.4444914  27.4735284   9.7210038  32.8720570  28.2474923  10.0876105
  31.5089536  27.6385689   9.8383158  26.8947482  45.8240080  62.2895956
  27.4530005  46.5895128  62.1532631  26.5516949  45.9326601  63.1765795
  73.7283468  80.2582932  63.7854004  74.6154642  80.3986168  64.1163921
  73.5042429  81.0784435  63.3456707  80.1265907  29.0755033  52.2707987
  79.7973490  29.9627614  52.4143505  80.4799652  29.0921426  51.3813734
  13.2272887  28.3756661  26.0258484  13.5980237  28.5085011  26.8982840
  12.4900031  27.7817178  26.1668038  47.0200253  51.8825579  67.8392506
  46.1018562  52.1302652  67.7304554  47.3218727  52.4028969  68.5838127
   4.7144705  43.0874395   1.8990946   4.8488703  43.5551405   1.0748228
   3.7641853  42.9986000   1.9718754  69.5610332  59.3589449   9.0565640
  69.1979361  58.5937977   9.5025915  70.4151869  59.0673828   8.7377393
  27.6083803  15.6011415   7.6437992  28.4663653  15.4710376   8.0477351
  27.7658272  16.2382746   6.9470173  78.1482315  70.3206778  70.4934168
  77.4193811  70.6641912  69.9766874  78.0043221  70.6705666  71.3726807
   9.8018211  19.7032917  36.6856289  10.7589662  19.7028458  36.6958594
   9.5722020  19.6640813  35.7572055  63.5514021  29.5282006   8.1395191
  62.8390741  29.6816874   7.5188243  63.6890030  30.3766394   8.5607690
  14.5115054  20.9131598   2.5188994  13.8815105  20.5186939   1.9157937
  15.2213359  20.2735329   2.5759083  22.5778246  20.8886051  36.5836954
  22.2670555  20.0026965  36.3970947  22.8400254  20.8615923  37.5038862
  46.0722446  77.0316362  16.5509057  45.5083513  76.2809992  16.3643730
  46.4060974  77.2990561  15.6945980  61.8323660  30.0602245  19.4001269
  61.8331289  29.1128898  19.5371962  62.7425194  30.2731252  19.1939044
  80.0270748  52.0615768  45.0910425  80.5488586  51.5995741  44.4348955
  80.2965450  51.6773367  45.9252930  41.1668777  60.3222132  47.4532890
  42.0865107  60.2120781  47.6948977  41.1534929  60.2075768  46.5030718
  53.5911274  16.2057710  25.7338285  54.5452642  16.2725854  25.6965232
  53.4264565  15.3905642  26.2076998  83.7562656  60.8684826  57.8269863
  83.8969612  61.7317677  57.4381733  83.3542919  61.0509539  58.6763096
  61.2794065  46.3485336  22.4212408  61.9395208  46.0828304  23.0614614
  61.5208054  45.8824205  21.6208029  22.5403905  73.1399250  59.3066645
  23.2367945  73.6541986  59.7150421  22.3022819  72.4908686  59.9686813
  48.4466934  45.5388641  57.0609713  47.6848030  45.4612112  56.4867592
  48.6029005  46.4810181  57.1255684  69.4805861  30.9286785  62.2489691
  70.1768827  30.7638931  62.8847790  69.5306253  31.8690276  62.0773029
  78.4999275  75.0201797  57.7659893  79.0545034  75.7821655  57.9335070
  78.7090302  74.4113779  58.4744120  12.9100060  44.3753719  58.8983774
  13.1616116  43.4575844  59.0012980  11.9721282  44.3894577  59.0892076
  13.0888855  39.2956018  18.6813748  12.9102361  38.8835907  17.8360569
  13.6705685  40.0267506  18.4732890  87.1556854  56.8560982  63.7400341
  87.6273346  56.3185883  64.3763256  87.8399658  57.3554707  63.2943630
   1.4061058  73.0761147  56.1042261   1.8802519  72.3435116  56.4975643
   1.2053843  73.6542892  56.8402004  62.0469475  56.6754627  33.7417603
  61.1007404  56.5367842  33.7829447  62.1639299  57.3244095  33.0479169
  61.6582441  35.2308941  54.7908688  61.5435076  36.1198974  54.4550991
  60.9779453  34.7196770  54.3525982   2.1909551  46.7523384  65.3247929
   1.6639417  46.2584591  64.6966410   2.4813750  46.0982180  65.9604120
  75.4868650  80.9158039  61.0500669  75.1594353  80.8938122  60.1508808
  74.8163700  81.3944435  61.5374804  56.1360121  75.8890581  47.6665449
  55.4758596  76.4028406  48.1317902  56.8379259  76.5128231  47.4808931
   7.7468097  78.6510992  16.4894843   7.7568960  79.5057154  16.0584807
   7.3122919  78.0721235  15.8632171  70.5619621   0.5745944  12.7313411
  70.4784060   1.1312263  13.5055578  71.3908482   0.1126090  12.8568292
  46.0787296  12.0447826  17.2699511  46.2506485  11.4359248  16.5516424
  46.9383383  12.4030602  17.4911690  58.7726879  39.7900486  19.1217625
  58.2921505  39.5133710  19.9019969  58.8728905  38.9899778  18.6059320
  51.1509943  50.0888920  57.5937223  51.9606495  50.2245617  57.1014977
  51.4179564  49.5777464  58.3577204  52.0028448  35.6434083   2.9304299
  51.2849951  35.1946068   2.4837714  51.8867111  35.4207325   3.8540965
  73.7155724  49.8338890  57.1247339  74.4901133  50.3054905  57.4311781
  73.3321857  49.4614410  57.9187918  66.1532974  46.6234398  59.9864578
  65.2084303  46.7511272  59.9018669  66.5361309  47.2630548  59.3859959
  11.2917686   7.9726893  29.6998453  12.1606100   8.0366361  29.3032908
  10.7271051   7.6643640  28.9910984  42.7152920  64.5462894  53.3697796
  43.6406136  64.6902466  53.1715631  42.6400423  63.5993242  53.4873629
   1.0459937  80.4788017  24.8418617   0.6557623  79.6922445  25.2230144
   0.3544126  81.1385441  24.8937678  52.0899630   4.6619415   5.5519247
  52.8608227   4.1989943   5.8800805  52.4019814   5.1260471   4.7750828
  59.3783236   9.8866010   8.2350338  59.0109634   9.0082669   8.1360114
  60.0270796   9.7975683   8.9331925  72.4859953  43.1821632  66.6012144
  72.1645880  42.4256039  66.1107588  73.3670855  42.9311180  66.8785143
  57.2479630  44.3176603  50.6611300  57.6309919  44.3757439  49.7858334
  56.6981792  45.0978088  50.7342386  32.4861932  31.7989206   6.7050010
  32.4279952  32.4669552   6.0219359  33.1049228  32.1592188   7.3402876
  59.5804262  55.3745699  52.3285007  60.3065395  55.9160471  52.6379967
  59.4430161  55.6529808  51.4230490  23.7574458  24.6270156  42.1254730
  24.1212559  25.3369379  42.6545143  24.1304302  23.8308692  42.5039768
  22.2997880  81.5588856   8.9207768  21.8693066  80.7363987   8.6874908
  21.7252541  81.9519901   9.5777464  20.8455563  24.9336076  26.1334562
  21.2281919  25.0757313  25.2676487  20.8671355  25.7955027  26.5492702
   2.7963987  42.6909637  26.9414330   2.0232716  42.3857450  27.4161434
   2.7781811  42.2054911  26.1166787  62.0032692  19.5639503  10.0087106
  62.1275568  20.4248142   9.6090883  61.9134426  18.9661038   9.2665905
  78.7219381  30.3558660   1.6088419  78.9912319  29.5516062   1.1651323
  77.7652359  30.3292012   1.5932302  21.6571403  30.6535983  47.5544214
  21.2178493  30.5649185  46.7086124  21.1172962  31.2769151  48.0405045
  12.1326232  33.3934712   7.9987884  12.4400651  33.3779764   7.0924377
  11.4089918  34.0200329   7.9955643  44.4535446  14.1422749   8.9524835
  44.9764729  13.3704853   8.7354159  44.9485397  14.5799184   9.6450734
  27.4465084  64.1266108  43.2138681  26.8881869  64.2663956  43.9787006
  26.9446278  63.5319614  42.6564264  54.4197893   0.8299153  11.3465011
  55.2806807   0.4187417  11.2688410  54.2277813   1.1518333  10.4657435
  34.8168755  33.6341834  69.5164728  35.6785870  33.2637906  69.7075033
  34.8194242  34.4851375  69.9547672   5.3812420  21.9337201  16.6313255
   5.4218650  22.8898787  16.6128802   6.2797707  21.6593075  16.8145621
  11.1250114  40.6869173   4.9786752  10.2098787  40.7508039   5.2519554
  11.3994634  39.8149824   5.2626479  61.8405771  45.7973337   1.7413674
  61.7248821  45.2924538   2.5463164  61.9454575  45.1363373   1.0570353
  31.8607640  46.8181229  60.2512980  31.6380835  47.2849607  59.4458723
  32.7212477  46.4367771  60.0770044  25.0661826   1.6317268   1.5757500
  25.5853629   2.2544134   2.0846149  24.6524286   2.1638909   0.8961614
  82.4876118  23.7736917   5.8054066  83.0268860  24.5634604   5.8464646
  83.0644894  23.0736184   6.1109376  73.7184858  70.0945997  50.7538891
  73.3259296  70.9042072  51.0804939  73.7474823  70.2086973  49.8039579
  28.9337063  13.0848491  17.4799824  28.3320808  13.5338640  16.8861270
  29.5490599  13.7640357  17.7561653  61.5918303  42.3296881  50.9780884
  61.7867088  43.2470369  50.7864428  62.1215296  42.1284151  51.7495441
  68.5562420  73.2725859  47.2613049  67.7623415  72.8612852  46.9195652
  69.2715263  72.7469015  46.9031715   3.3084872  30.4604125  17.7359235
   2.8811526  31.2523651  18.0621588   4.2161202  30.7234716  17.5834942
  28.0673289  60.6020403  70.3209591  29.0239048  60.6366110  70.3219128
  27.8483295  60.0102472  71.0407162  39.2138720  36.8746734  16.0351229
  39.5384955  37.7683115  15.9243762  39.4023728  36.4461803  15.2002037
  23.7922692  26.9037700  55.8377886  23.6167431  26.0076427  56.1248064
  22.9346800  27.2473812  55.5873775  61.5253401   9.5550662  46.2568378
  60.9559536   9.9493366  46.9175816  62.2297335  10.1919806  46.1368132
  49.4884729  72.7280235  10.7303095  50.2740669  73.0654955  11.1606443
  48.7686205  73.2187080  11.1268854  16.5586352  32.4489856  10.3942907
  17.1338367  32.3561001   9.6348512  16.5320265  31.5746498  10.7829547
  76.7833805  63.0019093  30.5194426  77.1134806  62.1838570  30.1478958
  76.6205549  63.5613775  29.7600222  53.9828777  45.5147743  56.6241932
  53.4455156  44.8062944  56.2698889  54.5119476  45.8080673  55.8823729
   9.2376280   0.9861831  58.7949657   9.7115409   1.8148026  58.8658714
   8.4058166   1.2204675  58.3833408  16.1498773  10.8216381   0.5158279
  15.3376889  10.6873608   0.0274107  16.4612412  11.6808760   0.2312332
  70.3536892   5.7026374  46.9190025  71.2268686   5.4168105  47.1874952
  70.3908682   6.6581732  46.9614315  39.4354510  46.5264940  69.2937422
  39.2757940  45.6185818  69.0359926  38.7239861  47.0199728  68.8856697
  59.9856329  42.3773098  47.9759121  60.8588123  42.7299690  48.1474447
  59.8292303  41.7648506  48.6947060   3.7402815  54.4921541  52.1850824
   4.6039060  54.1082907  52.0333290   3.6898884  55.2206707  51.5662479
  22.1514297  60.0602913  41.2100172  21.3478088  60.2255726  40.7169580
  21.9747090  59.2525530  41.6922617  48.5124397  59.4817829  62.0097589
  48.8857603  60.0580740  61.3428640  49.1923952  58.8269901  62.1683264
  74.4622374  45.7079554  61.6631937  73.9186144  46.4252186  61.3372469
  75.0089979  45.4634237  60.9165430  34.8130941  25.9744549   9.6433043
  33.9516878  26.2715149   9.9365032  35.4018426  26.6979885   9.8580337
  81.1707306   9.9731970  57.5466156  81.1951637  10.0491893  58.5004807
  81.6781712   9.1842419  57.3561192  84.5574665  71.5149450  70.1344061
  83.7804699  71.6672850  69.5965338  84.9563885  72.3798609  70.2293348
  41.6094542  21.2167621  25.5576944  41.2223673  22.0799470  25.7036591
  42.5113106  21.4000988  25.2944922  10.3614783  24.9664450   9.2301530
   9.4570720  25.0370479   9.5355976  10.8601773  25.5240679   9.8273021
  74.9576283  71.9686508  53.9170456  75.2749586  72.1433020  53.0310249
  74.4000483  72.7186680  54.1239452  63.2138062  71.5328932  60.8433867
  62.5584030  71.4084148  61.5298176  63.0310965  70.8395767  60.2092266
  49.5139694   2.3150356  13.0132771  50.1881838   2.6173857  13.6217570
  49.7241592   1.3936245  12.8614450  60.9611368  56.4761972  46.6471148
  61.8753672  56.2243795  46.7775154  60.7866287  57.1122646  47.3407984
  74.4717979  31.4589643  52.9378510  75.1727915  31.1702824  53.5222340
  74.5602179  32.4116683  52.9101038  31.1353803  23.0043054  11.7024136
  31.3234115  23.7331605  12.2937214  31.9238377  22.9215145  11.1660242
   4.9062639  34.3537116  11.2700522   4.8612392  34.7901821  10.4193485
   5.0981164  35.0570917  11.8902779  86.5330505  78.2668734  23.5285091
  87.4437904  78.3127546  23.2375193  86.3486004  77.3297167  23.5913348
   9.0505779  55.3661823  55.5398417   8.3097392  55.8062458  55.9566545
   9.5685196  56.0762644  55.1606989  75.8696413  58.5348034  55.8208561
  75.0120831  58.4626627  56.2399340  76.4833593  58.6403036  56.5478086
  50.0894499  27.4719048  61.5015125  50.1691532  28.3283281  61.0814953
  50.1312256  27.6601386  62.4390936  74.8650360  74.5171261  46.3175440
  75.2927351  75.3640509  46.4441395  73.9303350  74.7060680  46.4003849
  15.9197712  37.1855783  38.0106807  16.2503660  36.4557123  38.5343528
  16.1545146  37.9661155  38.5125661   4.8313466  27.0589280  52.1025753
   4.6766427  27.1673751  51.1642075   5.1798207  27.9038239  52.3870850
  17.1221852  65.7894135  67.8690004  16.9378793  65.0476789  68.4452724
  17.0118225  66.5593576  68.4268808  23.0664968  31.8965721  34.0615153
  23.2086468  32.8390932  33.9738894  23.7125778  31.6161561  34.7097278
  85.5197239  74.2106056  58.9588547  86.2591171  73.7591934  58.5517311
  85.3753090  73.7410307  59.7803640  35.5562043  13.8357520  11.5348399
  35.4815030  14.1759586  12.4264181  36.3898492  14.1813123  11.2156880
  76.9525146  20.3002000  45.8628511  76.0641098  20.5736518  46.0913134
  76.8364716  19.7005200  45.1258659  59.3494225  19.0979898  55.9928131
  59.6859550  19.5525920  55.2205992  58.6028337  18.5946524  55.6680202
  68.9215040  57.4820566  58.3161211  68.4918070  57.0343542  59.0449238
  69.6092606  58.0049133  58.7282324  64.5443201  43.6454725  67.2149897
  65.1157951  43.1688404  67.8170395  65.1447153  44.0986633  66.6230631
  21.4835405  40.7833719  56.6465664  21.1792922  40.0530910  56.1077213
  20.9152174  41.5139818  56.4027500  10.5466425  80.3896427   2.0357491
  11.2739944  80.6551075   2.5985292   9.9175799  81.1080170   2.1025464
  63.4795523  46.6268778  58.2274866  62.7056074  46.1740065  58.5623789
  63.5870981  46.2912130  57.3375416  24.5663929  58.8883686  48.6445189
  23.8138270  59.3670368  48.2970190  24.2028928  58.3461428  49.3445826
  79.4920158  21.2204218  24.4043350  80.3902435  21.0289812  24.1345668
  79.4998789  22.1533704  24.6182942  32.3090672   3.9794824   8.4999031
  31.8465257   3.4584826   7.8435147  33.1242633   3.5019708   8.6537474
   3.9223865  10.3839922  14.2475653   4.6427017  10.1541197  13.6605930
   3.1753036  10.5251968  13.6660492  64.6389771  66.5609932  66.9248962
  65.0206661  67.3783684  66.6048336  64.2471600  66.7931509  67.7668095
  66.0139942  35.6194258  43.4935236  66.1814260  36.4975858  43.1514215
  66.2428522  35.0336170  42.7719402  20.4981017  59.6465778  71.4053631
  20.5301809  58.9429235  70.7572317  21.3209367  59.5656538  71.8876743
  70.5170345  51.4966059  69.7615290  70.9286785  50.7521915  70.2004242
  70.4777336  52.1783257  70.4323053  10.7759035  80.3269005  17.1403849
  11.2997103  79.8420286  17.7781630   9.9002022  79.9469566  17.2112834
  73.5334682  19.9666536   5.2180082  74.4856787  19.8767352   5.1801020
  73.3085775  19.7530532   6.1235648  64.5386887  64.1506004  34.0408039
  65.3526354  63.7254524  33.7706733  64.0552902  63.4683466  34.5067286
  72.6422501  60.8316135  50.4521608  72.7206659  60.0174046  49.9550247
  72.0595455  61.3786602  49.9254465  61.7641973  55.9757900  44.0724468
  61.1608076  55.9010363  43.3331490  61.2171984  56.2749863  44.7987413
  17.4046743  64.3258047  53.4423685  16.8763161  65.0788879  53.7068224
  18.0688500  64.6923399  52.8586292  60.4005384  50.4893160  53.5623837
  61.2131262  50.2208328  53.9911556  60.6746960  51.1385775  52.9146719
  84.7879410  52.2430038  53.8433409  84.5934868  52.9128361  53.1877899
  85.4791069  52.6283979  54.3818378  10.6883597   3.7576440  53.7341595
  11.2720978   3.0001584  53.7753534   9.8270690   3.3861905  53.5432911
  23.4165215   0.7158155  47.9378176  23.1079960   0.4120303  47.0841455
  22.7965236   0.3414538  48.5636711  48.8204861  20.9738827  20.2161574
  48.4745693  21.8062711  20.5381966  48.3562708  20.8241892  19.3925500
  81.0275745  51.0343409  47.7936268  81.4664459  50.1961994  47.6482248
  81.4377213  51.3855124  48.5840034  25.8836913  11.7681849  10.4260957
  25.7954812  11.4628863  11.3290036  26.4501143  12.5373495  10.4875946
  13.6232650  80.8724117  22.8270769  13.6578727  81.1162472  23.7520504
  12.7160454  81.0367680  22.5698376  22.5842762  29.6930337   1.4439154
  22.0750737  29.5462084   0.6468025  22.8349495  30.6158471   1.4014180
  17.7933311  33.7467003   1.8939961  17.2526026  33.3522439   2.5782847
  17.3039877  33.5957956   1.0852916   2.4055392  59.0609407  26.0072899
   1.7232969  58.4156656  25.8218360   2.3250858  59.2315865  26.9457150
  18.4144163  37.5518680   5.1481897  17.9424882  38.3781505   5.0443894
  17.8248143  36.8918490   4.7835287  66.4035988  11.2488556  27.1421456
  66.7961359  12.0361853  27.5193167  66.8404579  10.5249250  27.5908232
  87.1273613  32.0102096  70.8412981  87.8146076  31.3501072  70.9317541
  87.3486614  32.6770067  71.4914083  82.7916336  57.6025200  40.4229498
  82.1306324  57.2191381  40.9994268  83.4320068  57.9918385  41.0184240
  70.1546669  12.4444997   4.8434654  69.5860386  12.5411832   4.0795636
  70.4594040  13.3326924   5.0291604  23.9619017   7.5128210  53.8682747
  24.4625044   6.7900366  53.4898424  23.0732894   7.1682006  53.9568138
  60.9246922  57.5404930  71.1464882  60.3318405  58.0683136  71.6814280
  60.6381750  57.6963615  70.2465773  40.3427649  35.7276535  13.7923932
  40.9130383  35.1564837  14.3069696  39.7329426  35.1301885  13.3595157
  27.4250913  74.2159224  15.8715558  26.4866352  74.1887760  16.0580826
  27.7604175  74.9161291  16.4314651  41.9082689  79.4789076  16.7342925
  42.7938890  79.4214106  17.0929062  41.4152908  79.9704647  17.3912394
  12.7317429  79.0108728  48.7416506  13.1607211  78.1645393  48.8678503
  11.9179928  78.8009691  48.2834148  69.1005850  60.4657745  24.4468665
  68.3579397  59.8947906  24.6435499  68.7347126  61.3500643  24.4668961
  72.2986555  37.4365997  13.5229206  73.0757666  37.1224880  13.0606794
  71.5795565  36.9176602  13.1626022  26.0492420  62.3464584  69.2132998
  26.1505222  61.7099762  68.5055780  26.8767643  62.3053646  69.6926260
  19.1532350  67.2618532  65.0518513  18.7988269  67.6948929  64.2752552
  18.9121568  67.8371620  65.7778883   3.4860206  30.7374549  13.8409257
   3.7869552  29.9617553  14.3141687   4.2545623  31.0336208  13.3532155
  14.5933938  57.0298767  26.4091563  14.1792965  56.2046862  26.1565328
  13.9460218  57.6998425  26.1894107  55.9806252  81.9501305  62.8624535
  56.4826679  81.5188408  62.1709490  56.6131210  82.0871830  63.5677195
  86.5664387  46.0431862  39.6399331  85.6574059  46.0552549  39.3403602
  86.6845894  46.8846512  40.0806284  56.0631227  66.5750217  13.1327391
  55.8195305  66.0666084  12.3591685  56.7187023  66.0368443  13.5763741
  52.7598333  21.3962746   0.7613307  52.0125961  20.8995700   0.4279283
  52.6777411  22.2569919   0.3506500  72.3640347  65.0681925  37.3221874
  71.8658209  64.4348335  36.8055916  73.0412531  65.3849697  36.7244744
  62.6963139  63.3663702  71.5094042  62.0027256  63.7968493  71.0095453
  63.1568336  62.8281927  70.8655691  53.3345985   5.3178912  67.6910877
  53.4011030   4.4797826  68.1486750  53.9342499   5.2342409  66.9497013
  52.2408342  82.3736095  68.8290977  51.8889713  81.9184113  69.5940924
  51.5864134  83.0420208  68.6261368  24.9394941  14.5792770  11.5760791
  24.7727108  13.9166033  12.2463620  25.4252172  15.2656400  12.0334756
  72.7631855   5.1537818  57.9614162  72.5388527   5.0265187  57.0396185
  72.2905874   5.9463811  58.2157135  72.2713041   3.6266747  64.0980482
  71.9194031   3.6492893  64.9879313  72.9428816   2.9450756  64.1233158
   0.7394557  44.4938278  54.7291183   1.6916665  44.5297623  54.8198652
   0.5931540  44.3527651  53.7937403  52.3726797  51.7349148  51.2728357
  52.8177691  52.4034119  51.7936373  52.7190495  50.9053087  51.6014957
  70.1171160  22.6315069  -0.1438979  70.6834459  21.9461370   0.2107477
  70.3965473  23.4292960   0.3051929  53.3860636  10.9928358  55.7968903
  54.2728043  11.3053691  55.6173134  53.5110998  10.1244617  56.1796761
  30.8053231  69.1647577   2.1417707  31.7044377  68.9301014   2.3714623
  30.2778578  68.4320641   2.4598405  78.1244946  22.3755884  57.0093155
  78.5770893  21.7000341  56.5043211  78.2540226  23.1787539  56.5049505
  36.9673133  17.5880885  11.5855861  37.7855635  17.9614484  11.9131541
  36.4072514  17.5228369  12.3590863  55.4059458  49.9000406  62.3233795
  54.8383713  50.6672621  62.2494555  56.1761570  50.2164984  62.7954674
   5.4222983  17.2912407  50.7215261   6.1123240  16.6599441  50.9253883
   5.8071142  18.1424439  50.9303379  67.7690268  10.2113485  24.9409604
  67.1832848  10.7100999  25.5105066  68.3941126   9.8023307  25.5394650
  73.8919306   2.4560502  55.0986528  73.7876272   2.2235332  56.0213041
  74.1103554   3.3879298  55.1097107  35.2154350   2.6505190  35.1281404
  34.4489598   2.8596157  35.6620169  35.1578712   1.7056639  34.9861288
   0.8397248  75.3726768  61.3726854   0.6513397  76.3035011  61.4923096
  -0.0020605  74.9383163  61.5103817  68.7252522   1.3711993  60.5440521
  68.6616087   0.7051360  59.8595524  69.5837879   1.2251158  60.9413052
  55.7745266  55.5993032  11.6174197  56.3804102  56.0948658  11.0664582
  55.9457827  55.9141064  12.5050032  21.5403676  69.9561501  49.9115324
  21.4006591  70.8467436  49.5897293  21.5536642  69.4154501  49.1217852
   6.8758482  55.1135206  35.1563501   7.4645263  54.5498753  34.6543598
   7.0845348  56.0001802  34.8622155  65.9071493   8.9700323  52.9630423
  66.4094305   8.1910670  52.7239704  66.5329647   9.5250696  53.4283543
  68.9882851  44.5444822  62.7426815  69.3611431  43.7383032  62.3859072
  68.9768171  44.4045305  63.6895227  51.1896372  56.4810133  64.9956417
  51.7718554  57.2357941  65.0825834  50.4942083  56.7811203  64.4103622
  48.5729408  43.5360289  58.5449409  49.3592262  43.0460882  58.3042288
  48.5832930  44.3023348  57.9714441  87.0323944  10.8325005  58.6561060
  86.5210342  11.3325918  58.0199909  86.4797497  10.8023345  59.4370699
  22.6695180  75.2068472  69.9152040  21.8615723  75.6827831  69.7230148
  22.4397063  74.6288061  70.6427288  72.0008945  58.6230850  49.0261412
  71.7686939  58.1489801  49.8245955  71.5192652  58.1733322  48.3318901
  37.6358986  82.1064949  13.2568765  37.0185900  82.4332714  13.9113843
  37.9820585  82.8951931  12.8393137  64.0437222   9.2260110  18.3227158
  64.1432095   8.7948173  19.1714823  63.3627129   8.7225318  17.8766525
  70.1967335  17.8923786   4.7422093  69.7136974  17.1120632   5.0142729
  70.5026627  17.6886559   3.8583902  10.8108938  59.8614216   5.6768346
  11.1734807  60.5907822   6.1796218  10.2568579  60.2776957   5.0165373
  43.2996607  21.7267442   9.8167872  42.6199579  21.0531235   9.8384935
  43.2783985  22.0596266   8.9195859  80.4860497  42.2345591  53.0006075
  80.7211304  41.3606167  52.6888514  79.8775578  42.5683594  52.3414087
  56.1352158   4.6482402  57.3925495  56.6251326   5.1480734  58.0455256
  56.7439556   4.5492086  56.6605234  76.8977261  16.5260863   3.0530819
  77.7377748  16.8465388   3.3814973  76.8518019  16.8521535   2.1543038
  49.0113974  31.2516356   2.9877287  49.8069477  30.8688664   3.3576292
  49.3255901  31.8408489   2.3019135  15.6681728  75.8917713  23.1709743
  15.7986653  75.4926062  22.3108149  16.4747381  76.3811684  23.3327579
  38.5146952  14.9430645  45.9646845  37.9854059  14.1460860  45.9344959
  38.5878491  15.1468265  46.8970823  31.6670537  81.6645622  59.0455723
  32.0156217  81.2555027  58.2534838  31.8653941  81.0410881  59.7442675
  72.8342867  20.8442736   2.4358478  72.1702957  20.3778768   1.9280870
  72.9159307  20.3389955   3.2447118  10.6710517  55.7923746  63.3523893
  11.3712406  55.9630919  62.7224541  10.1990628  55.0432539  62.9886961
  73.9384651  68.0472898  66.0513830  73.2500744  68.0750179  66.7158937
  73.6931324  68.7271738  65.4238510  68.0298042  30.3662658  11.2407744
  68.6526012  30.9582043  11.6626298  67.7706051  30.8222938  10.4400957
  83.3808327  62.5658941  68.8936520  83.6742878  61.6854811  69.1281462
  82.4415588  62.5623274  69.0780354  73.3544493  59.6169996   0.1647564
  73.6145115  59.2914772   1.0265192  74.0901804  60.1600218  -0.1181879
  63.7020731  66.4390564  17.5544322  62.7807474  66.1794519  17.5542986
  64.1572762  65.7068920  17.1385539  14.4187486  16.7026412  39.5447636
  13.6032569  16.7435253  40.0442982  14.3059123  17.3498678  38.8486338
  63.1004620  18.7977159  27.8444505  63.9233065  19.2477369  28.0358672
  62.5219297  19.0382850  28.5680962  66.8649960  70.7023239  71.2787056
  67.4766207  71.2227392  71.7995834  67.3707390  70.4358387  70.5109549
  17.0903647  82.6380634  46.7606211  17.8769803  82.2604370  47.1541548
  16.4873266  81.8996716  46.6748953  25.1297164  57.2432232  70.9996986
  24.7176194  57.6140642  71.7800093  24.5881271  56.4851284  70.7801437
  15.7708752  78.1164360  42.9517984  15.2765143  78.6247778  42.3088169
  16.1063039  78.7690735  43.5664368   0.3620420  79.1868258  31.6937280
   0.1559677  80.0978661  31.4845181   0.4034875  78.7492847  30.8433938
  75.7578945   4.8567152  34.6846128  75.0101805   4.4364089  34.2597532
  75.6253242   5.7923186  34.5319533  80.8710957  62.0526934  69.0428066
  80.6378937  61.9158459  69.9610233  81.0438156  61.1735249  68.7059641
  84.4619274  53.3877373  57.3707819  85.4189682  53.3822775  57.3871136
  84.2327595  54.2616034  57.0544481  62.1892595  29.2939115   3.2797658
  62.3627996  28.6719298   2.5731868  62.9840374  29.2785215   3.8129824
  42.0812273  44.0969229  57.1386242  43.0189610  44.2758846  57.2083139
  41.7759943  44.6844625  56.4473486  33.6452603  76.0480833  69.1095352
  34.3004298  75.8214474  69.7695494  34.1128016  75.9856462  68.2766247
  29.9056506  76.5788174  47.4323130  29.7057819  76.3917542  48.3495331
  29.9997711  75.7167578  47.0270586  45.7023907  59.4000101  13.3186698
  45.8164454  59.3818283  12.3684633  46.2556410  60.1237583  13.6125016
  35.1604104  74.9309969  44.0572357  35.7206893  74.1649008  43.9330769
  34.3155336  74.6719790  43.6893702  72.0042801  68.8061190  32.9902673
  71.6193581  68.4819889  33.8045168  72.9385376  68.8866329  33.1824088
  20.5074430  79.1914415  68.2371616  21.3292599  79.6187210  67.9957533
  20.1559377  79.7310543  68.9453220  31.2435031  75.8032274  40.4627895
  31.0338855  76.1734962  39.6053576  32.1275806  75.4504919  40.3617144
  25.5007315   6.7944026  34.7410250  26.0697508   6.6771078  33.9803076
  24.6195650   6.8606436  34.3730712  25.2838898  77.5886679  25.5023050
  24.9136567  77.9851484  24.7136593  24.5573616  77.0991230  25.8879685
   7.7349651  18.3307219  56.1826611   6.9038898  18.5417926  56.6080952
   8.0045688  17.5031602  56.5810156  54.8939800   1.1781867  56.9839239
  54.9451876   2.1266863  56.8657780  55.5835247   0.9781049  57.6169586
  71.3983965  81.4898109  31.1264443  70.5062866  81.1598778  31.0191321
  71.2976170  82.4402618  31.1784482  77.0755863  38.5223103  57.2449350
  76.2927294  38.4442854  57.7901697  77.7954388  38.2657433  57.8213215
  29.0214396  75.7630587  17.5588953  29.4794035  75.2999830  18.2603657
  29.1443563  76.6899729  17.7637208  30.7040620  34.4631743   4.6239901
  30.0023341  33.9817572   5.0622243  30.6112909  34.2330599   3.6995050
  37.8681922  12.6995111  30.9061384  37.4212074  11.8553984  30.8435941
  37.5490046  13.0794811  31.7246580  17.3360944  71.0603571  32.8272390
  16.6940498  71.6833639  32.4868393  17.7894247  71.5388060  33.5213637
  28.4605932   1.0487157  47.8172207  27.9464889   0.4246382  48.3295250
  29.3650818   0.7510170  47.9147291  26.4193106  23.3241272  11.6506457
  26.6385269  23.5517359  12.5541782  25.4704261  23.4386158  11.5982854
  34.1431928  16.0989201  65.5998325  33.5850430  16.7462885  65.1690006
  33.6070800  15.7595074  66.3164997  68.4073353  78.2083416  61.2324858
  67.4952316  78.2857895  61.5123177  68.8648319  78.8979006  61.7135620
  21.3545394  73.8230658  57.0700121  21.8277621  73.4052849  57.7895594
  21.9626737  74.4812775  56.7336130  10.4520369  28.6986160   6.3903165
  10.0256610  28.5875010   5.5405581  10.9656072  27.8993177   6.5069383
  42.8892422   6.8147904  37.0825505  42.8527594   5.8874631  37.3169971
  42.7684164   6.8267274  36.1330819  54.4567728   4.8329404  22.1813416
  55.2075768   4.4368589  22.6236558  53.8919115   5.1352328  22.8925300
  85.3865528  67.0754337  45.8204556  84.6751976  67.6009178  46.1866093
  85.4095745  67.3157310  44.8941946  55.3879356  39.8366141  62.7115154
  55.2137661  39.4726586  63.5795212  54.7809219  39.3757915  62.1323729
  51.1004639  15.6489134  58.2869339  51.4266014  15.0221193  57.6411819
  51.5657377  16.4614832  58.0882359  71.0991764  35.0775027   8.7454295
  71.7373657  35.7853818   8.8340449  70.2889729  35.4391074   9.1046476
  37.1974111   3.8894477  41.1922264  38.0892086   3.5941333  41.3758612
  37.2102952   4.8263478  41.3878918  75.5647039  54.9321508   8.1124127
  75.8693314  54.6036768   7.2665173  75.0433779  54.2154264   8.4740108
  47.6762056  18.4261680  42.5775099  47.2150946  18.7698841  43.3426666
  47.3382282  18.9394379  41.8436432   1.3273454  52.8529024  46.5045452
   1.5484235  52.6730299  47.4183273   1.6997813  53.7179947  46.3338327
  50.4169464  57.5335264  55.0217915  50.4657412  56.7085266  54.5388603
  51.3215542  57.8445053  55.0566721  53.8338661  73.0907536   4.9087507
  54.5658112  73.1086302   5.5253243  53.2098103  72.4766159   5.2955604
  12.5140071  48.5557604   4.0510806  12.0314050  48.8808632   4.8111036
  11.9327462  47.9040480   3.6591113  16.1172509  62.4998808  26.2674332
  15.5572236  61.7692089  26.5295649  16.4119971  62.2714710  25.3858519
  62.7071667   6.2043577  55.6716061  62.0974922   6.5168679  56.3400841
  62.3089123   5.3987408  55.3420496  -0.0684720  50.0068045  17.6745951
   0.7812274  50.0739861  18.1101751  -0.5062037  49.2780638  18.1145477
  74.3544245  12.8841364  70.0618315  74.2515516  12.7992928  71.0096979
  73.8750839  12.1382225  69.7011709  22.0555067  29.0517616   3.9816287
  22.1908069  29.1297269   3.0372521  21.4028883  29.7214484   4.1861802
  39.4703794  78.2498264  52.7361155  39.5869017  77.8431702  53.5947704
  39.2382646  79.1578531  52.9306555  47.8138685   6.0514438  60.1377058
  47.8480530   5.5348837  60.9428358  46.9114304   6.3675696  60.0940943
   6.6620427  12.8334355  23.5982394   6.5295786  13.7807453  23.5623360
   6.7473400  12.5686383  22.6823568  44.6967459   1.8588273  31.2164545
  45.1944637   1.0467549  31.1213398  44.2981720   1.9974875  30.3573012
  68.6267376  54.4445133  11.0395503  69.4362593  54.2096233  10.5859745
  68.4602785  53.7088442  11.6288865  27.8835273  77.0293236  20.3337765
  27.2475004  76.9636297  19.6214652  28.6632919  77.4046898  19.9247527
  57.3207188  23.3042789  23.8446236  57.9052305  23.0348158  24.5531178
  56.7203856  23.9277411  24.2534351   3.6933199  24.9910784  12.3032677
   3.5585678  25.7450509  12.8773749   4.0043974  25.3689647  11.4806724
   3.4503159  82.7661243  64.9708176   4.3143472  82.4090568  65.1762009
   2.9456649  82.6500972  65.7758617  64.3984461  31.0275841   1.7454351
  64.2259979  31.0335755   0.8039170  64.8075199  30.1777196   1.9085997
   1.6685514  26.0345316   1.5907507   1.7163710  25.1861405   2.0314094
   2.2287585  26.6079926   2.1137626  47.4237967  65.5129576  49.5842886
  47.1436596  66.0095072  48.8153982  47.7371693  66.1777115  50.1975870
  78.3639336  68.5848475   8.6611950  78.6582613  68.2754803   9.5178705
  77.7237415  67.9321003   8.3778071  59.9361897  12.1117616  30.3186727
  60.2470255  11.2066841  30.3398418  60.1039457  12.4433124  31.2008095
  54.9342918  59.1066265  21.5006781  55.3256130  59.9783993  21.5564489
  54.9896860  58.7617636  22.3918772  12.8645372  82.0091057  31.4579368
  12.1101367  81.9364738  32.0426035  13.3937407  82.7114677  31.8359089
  84.6230793   5.7235438  62.4297142  84.4054413   4.7961795  62.3355865
  83.9038944   6.0871118  62.9462671   1.5118825  33.5823917  35.7534957
   1.1138862  32.8106594  36.1563087   0.7747846  34.1663408  35.5748248
  19.3349767  62.6600885  68.9347219  18.6611199  62.1372366  68.5002375
  19.7401905  63.1632519  68.2284212  15.9383452  74.3910933  58.4749269
  15.5749440  75.2738810  58.4052038  16.7473423  74.4240952  57.9643726
  62.0279932  40.3097963  55.9539223  62.5454330  40.6536722  56.6820955
  62.4569750  40.6552982  55.1710796  86.3337803  52.8683376  41.0156059
  85.4302216  52.8797960  40.6998968  86.8655777  52.8668451  40.2197266
  29.8784184  15.7969224  65.4978800  30.6718159  16.0417581  65.9741211
  29.2889071  15.4592419  66.1721802  49.6359682  66.7893791  52.6835060
  50.5603170  66.9353104  52.8847885  49.1679716  67.1331882  53.4444332
  86.0539532   9.5027149  54.3096542  86.6449356  10.1706135  53.9619780
  85.2691269   9.5708662  53.7659264  38.3243108  18.3720422   2.7361086
  38.2238555  17.4339855   2.8979430  37.7947354  18.5386276   1.9563454
  37.6823449  25.8935618  49.3494606  36.9266319  25.9870648  49.9294472
  37.3341322  26.0603356  48.4735775  15.3705919  80.4494095  47.8886652
  15.9549820  80.7046318  48.6025190  14.4909060  80.5428219  48.2542562
  86.1331272  38.7385392   6.4065206  85.4055786  38.1819105   6.1289287
  86.1333466  39.4624400   5.7802629  62.0588493  37.4030089   1.4192508
  61.4425135  36.7754030   1.7967042  61.5573835  38.2147408   1.3427268
  87.0202065  74.4200182  65.1179647  87.3225975  73.5736465  64.7886515
  86.5131760  74.7907782  64.3956804  24.9581051  80.9481335  21.2551451
  25.4947829  80.8906174  20.4646373  24.9502611  81.8804073  21.4720106
  77.3579502  27.9580450  40.0750446  78.2368469  28.0260563  39.7020102
  77.3121786  28.6712456  40.7118177   9.4722033  69.4786930  46.7052364
   8.9185703  69.9152946  46.0578537   8.9414841  68.7467527  47.0196056
  62.9051638  52.0048523   3.2380351  62.0274401  52.1845436   3.5750028
  63.1479597  52.8010845   2.7654952  24.5125008  80.7875061  61.8277025
  24.6365905  79.8577929  62.0186377  25.2450991  81.0142422  61.2548828
  37.9679298  66.4067316  30.0255322  37.9325724  67.1216869  29.3900657
  38.7099099  66.6242743  30.5897784  25.7347441  15.7955420  44.6105099
  24.7934556  15.7848668  44.4370270  25.8047223  15.6873393  45.5589962
  71.2855196  27.5576162  31.7051721  72.0532322  27.0234823  31.5013385
  70.5618954  26.9322014  31.7433357  54.3450880  45.5416679  61.5023565
  54.3611002  46.0726786  60.7061148  54.4474459  44.6418858  61.1922836
  79.2112970  25.4467487  52.4014139  78.4977579  24.8470306  52.6191998
  78.7733698  26.2651110  52.1674633  39.8054719  78.5426903   1.4858198
  40.0222921  77.6103735   1.4828876  38.9149690  78.5825968   1.1370433
  20.1595545  32.1673846  70.5225706  19.9602258  31.3222408  70.1197958
  20.8840203  31.9828963  71.1203575  10.3343499  24.0408683  66.1844873
   9.8667645  23.8379979  66.9946957  10.2615225  23.2435679  65.6598520
  44.2132998  12.6903236  59.3805456  44.8437977  12.4109161  58.7167406
  43.7208176  13.3958805  58.9611626  71.7982912  18.1143987  64.6165752
  71.4539003  18.9444649  64.9461460  72.7145958  18.2999289  64.4111633
   0.8849651  26.2178087   4.9010634   0.0248630  25.7984114   4.8773602
   1.3722321  25.7277322   5.5633533  86.6517067  46.6034079  57.9544783
  86.8929291  46.4178944  58.8620186  87.4782372  46.5611792  57.4735403
  50.3377247  18.9853692  41.4757872  50.3648710  18.5215938  40.6388855
  49.4046545  19.0768480  41.6687679  25.2568865  68.0499268  34.9317694
  24.5326900  67.4916315  34.6487856  25.7869124  68.1722593  34.1441536
   9.7308278  65.4671860  32.8026175  10.6512332  65.2852440  32.9923081
   9.2697769  65.2354479  33.6088181  79.9594021   5.4640257  64.2670059
  80.2240276   5.0883657  65.1067019  80.1854324   4.7932425  63.6226559
  51.5903521  48.0744886   1.4013819  51.9250631  47.9100227   0.5198205
  51.8793201  48.9639711   1.6052151  30.4704094  10.4465139  57.1764088
  30.4457569  11.2640727  56.6791916  30.1183414   9.7899586  56.5753937
  37.5348139  10.1902151  62.0285749  37.5980806   9.2410791  62.1352053
  36.8459415  10.3124523  61.3753176  63.1744242  38.3663559   5.9887284
  62.3488045  38.7574410   5.7030022  63.0275536  37.4227166   5.9238970
  63.7533236   4.3296239  32.7636814  64.4346809   3.7946332  33.1708288
  63.6397457   5.0684845  33.3615255  32.3407960  69.1882324  30.3666496
  33.0275631  68.5230350  30.4124045  32.5606298  69.8077059  31.0624623
  21.6446471  36.0683179  67.7645922  20.8029127  36.5132475  67.6658201
  21.4250207  35.2258539  68.1623936  82.5126362   0.5007610  17.1035600
  81.9519711   0.6631258  16.3449264  83.3267403   0.1615916  16.7315090
  19.3035483  73.5225677  70.5141783  20.1095319  74.0339327  70.4425669
  18.9454210  73.7585402  71.3699198  60.6499720  20.0750732  53.7608576
  61.4342356  19.6406853  53.4254932  60.4363298  20.7301164  53.0963945
   0.6015639  75.5994081   1.6932155   1.2824893  75.5210495   2.3613720
   0.6783551  76.4997435   1.3774160  64.9098873  52.4903488  30.3677440
  65.5437708  52.0079422  30.8985043  64.0896130  52.0096064  30.4784989
  69.9500513  36.0619807  64.0972328  69.7844648  36.2599492  65.0189829
  69.4536209  36.7246747  63.6169958  41.5864182  72.7865553  50.9284115
  42.1004534  72.1952391  51.4782667  42.2277737  73.1842327  50.3395557
  67.4240637  79.3116283  21.6420698  67.6137686  78.3735561  21.6258168
  68.2802725  79.7274208  21.7433381  55.1601505  78.1712961   6.8365264
  55.1924086  77.3518944   7.3302555  55.9613037  78.6323929   7.0850843
  11.4724076  79.9430370  45.1135874  11.4117897  80.4875660  45.8984804
  12.2217155  80.2964783  44.6341658  85.0121784  65.1451588  54.5080853
  84.5396900  64.3747234  54.1927624  85.7152843  65.2722311  53.8711262
  81.9789696  64.1694498   1.4347290  81.0646057  64.0271235   1.6795278
  82.3677731  63.2947969   1.4419243  18.4914637  31.8931866  64.3054962
  18.3084762  31.6711545  65.2184296  18.3490372  32.8384209  64.2557096
  52.5603390  17.0042813  70.1221657  53.0361176  16.5780056  70.8350134
  52.8009987  17.9280722  70.1923466  15.4732597  77.0033264  64.3150473
  15.7814622  76.8846798  63.4166241  14.9205649  77.7839375  64.2775440
  60.6949615  27.4162722  18.9331150  61.3905096  27.4594021  18.2769299
  59.9204683  27.7546597  18.4837902   7.0672536  50.6031084  51.8507433
   7.4139303  49.7256231  52.0122004   7.1188718  50.7100010  50.9009314
  19.7526026  16.1234748  59.0576601  19.8772144  16.1385882  58.1087303
  18.8852954  15.7371676  59.1792154  62.1467543  46.0850668  66.9622183
  62.5490189  45.7538128  67.7651405  62.6718044  46.8508530  66.7295694
  59.9038267  74.3879509  41.1281061  60.4768944  74.9605989  40.6183004
  59.5018673  74.9666500  41.7759991  56.1974049  12.1403015  51.4038324
  55.3762484  12.3785067  50.9735012  56.7035103  11.6949379  50.7243156
  38.6756825  77.4670506  55.5093622  38.0557084  77.3584700  56.2305212
  38.1467390  77.3537540  54.7196674  61.2111425  16.3624561  54.5460224
  61.1667728  17.3150682  54.4636059  60.2965260  16.0806227  54.5625925
  41.1356735  68.5600615  43.1009340  41.4173889  68.6826563  42.1943808
  41.9316387  68.6840630  43.6179447  71.8179369  56.0984087  19.0068066
  71.2865496  56.8755102  18.8336837  71.2717152  55.3661919  18.7209249
  37.2755909  20.6640530  23.0857563  38.0523014  21.2186146  23.0121613
  36.5397382  21.2679911  22.9857016  11.1624730  62.5081253  26.4162445
  11.2593269  63.4519768  26.2897849  11.8697667  62.2731209  27.0168614
   7.6236850  56.7226076  17.0508265   7.8366524  56.1554575  17.7919173
   6.8791366  56.2947273  16.6279793  75.7640266  37.3722959  54.8945904
  74.8728275  37.6246881  55.1360369  76.3237190  37.8702450  55.4904270
  52.0347261   6.2365568  39.8006105  52.1356344   7.1704316  39.9848032
  52.3460484   6.1348194  38.9011908  49.1030407   8.9282608  32.2884536
  49.1797781   8.0460829  32.6519156  49.9924183   9.1528094  32.0149255
   0.8246143  61.3866377   2.0292780   0.6227476  61.2263536   1.1074372
   1.5194409  62.0447588   2.0113908  73.4606743  14.9031007  54.1436577
  73.7106323  14.8091149  53.2244635  74.0349293  14.2966127  54.6112442
  64.4761848  58.2052135  16.2138557  64.9615192  58.9693785  16.5248752
  64.0305567  58.5099363  15.4234207  64.5269060   8.1536835  55.4250050
  63.9985895   7.3569739  55.3763533  64.4892025   8.5203904  54.5416403
  55.8261776  17.6326823  40.9795475  55.4042673  17.1864843  41.7138004
  55.7556438  17.0152044  40.2515507  21.2152934  38.1128120  53.4191179
  21.4540076  37.3127842  52.9509258  20.2646160  38.0586433  53.5166359
  57.2615480   5.4014736  17.4944842  56.7640543   5.8026928  18.2070541
  57.0036507   4.4798291  17.5116336  74.3462563  50.5524254   1.4740776
  74.5425272  51.4333868   1.7928445  75.2023745  50.1737022   1.2743992
  31.1038542  15.5629182  54.2946720  30.2916026  15.9991288  54.0373755
  31.4935493  16.1468065  54.9453926  32.4130917   7.6326096  45.4817820
  32.8121495   8.1634641  44.7924471  31.5459633   7.4114460  45.1420593
  84.7519970  57.9501390  49.2375422  85.1923180  57.4649191  48.5397530
  85.2707386  57.7669048  50.0208473  15.2364910  65.5403996  56.4689589
  14.9696195  65.2494383  57.3409414  15.5207288  64.7407627  56.0262108
  46.8271446   7.9825991  64.6125793  47.0562506   8.3010125  65.4857111
  45.8929729   7.7815282  64.6684551  27.5349212  69.4265985  66.7147684
  27.3301530  68.5243177  66.9601202  26.8616557  69.6596622  66.0755301
  58.2207060  24.9615717  46.3855267  58.0141354  24.1526604  45.9173155
  58.9874792  25.3116989  45.9319782  38.9538670  17.8033268  56.8435764
  39.3447232  17.1034658  56.3204575  38.7343574  17.3857665  57.6764584
  40.2300596  81.2795639  50.4999399  40.9087896  80.7400417  50.0943851
  40.5310869  82.1791744  50.3722429  81.8619823  36.8259525   2.4538119
  82.6193142  36.2910724   2.6916882  81.7423534  36.6686702   1.5172313
  85.4791260  65.0192881  47.6994848  85.4335117  65.7002544  47.0283413
  85.3512955  65.4872942  48.5246277  19.4350481  75.2734470  44.2966461
  18.9898932  75.5943108  45.0809431  20.2401686  75.7890749  44.2503595
  26.2182474  67.0119762  63.2664442  25.5728030  67.5296068  62.7851057
  26.9635534  66.9435310  62.6697350  67.9418993  20.1363516  63.0547047
  67.8752041  19.1991401  62.8719044  68.7574625  20.4053879  62.6319647
  34.0821958  67.2256088  62.6829195  33.4111452  67.2791815  63.3633995
  34.6061182  66.4612961  62.9228497   3.0540171  18.5358560  34.0080190
   2.5656304  19.1591692  33.4702563   3.8415620  19.0120852  34.2710996
   2.0227800  55.9472466   7.8746855   2.7188963  56.1206818   8.5083848
   2.4749953  55.5731058   7.1185446  24.6345806  81.8680573  68.6225653
  25.2857280  82.4776840  68.9698219  24.0532804  81.6915321  69.3622637
   6.1642069  15.5839753  22.9040551   5.7790589  15.7292128  22.0398784
   6.9811642  16.0825598  22.8890395  58.3500862   8.9448178   5.2625161
  57.6526260   8.5935032   5.8160108  59.1285467   8.4476995   5.5137223
  66.2280560   5.8439142  59.4929600  66.7219448   5.1275736  59.8919106
  66.7357445   6.0819411  58.7171888  61.8180609   4.4494498  27.2568583
  61.7510653   4.0217263  28.1105518  61.4098978   3.8339758  26.6479039
  46.0916090  13.6974514  68.8016081  46.7824507  13.0402803  68.8858509
  45.3488350  13.3265460  69.2779922  55.5364943   1.1903477  23.3816361
  55.8617353   2.0580404  23.6215520  55.4734564   0.7199213  24.2128754
   7.2426534  -0.0944522  61.1866426   8.1354678   0.2064233  61.3557243
   6.8258774   0.6366305  60.7305193   5.9687972   8.2302999  21.7466354
   5.6023592   8.4546566  20.8912873   6.8990576   8.4430629  21.6719437
  48.1951427   7.2956592  44.2067099  47.7460289   7.6273799  44.9841976
  48.8072586   7.9918945  43.9683676  19.3924415   4.7698161  26.4062285
  19.2712688   5.0281072  27.3199201  19.5808423   3.8321567  26.4453626
  43.9737463  19.3366957  40.5092239  44.8836517  19.6334445  40.5249023
  43.4603405  20.1303959  40.6598377  54.6905804  14.9560916  60.6823158
  53.7905455  14.6558583  60.8089304  54.7437429  15.1672328  59.7502089
  70.4029703   8.2963932  18.2962394  69.8933601   8.9982796  17.8914094
  69.8121881   7.5432712  18.3004892  40.2021456   6.4260501  50.6709099
  39.9064469   7.3007727  50.9232092  40.2960491   5.9566200  51.4997911
   6.1440665   2.6357508  66.2717009   5.2516228   2.3563574  66.4759445
   6.6112578   2.5730091  67.1047831  78.2619143  79.8984623  28.5107589
  77.9863310  79.9987555  29.4219279  79.0688992  80.4092789  28.4469914
  65.1215124   1.0593204   5.4536700  65.6344748   1.7816660   5.8160460
  65.7755280   0.4292670   5.1511347  61.4546633  30.0402474  53.4604454
  60.6197262  30.2386451  53.8844109  61.2242317  29.4525218  52.7409220
  81.2016487  20.1697564   2.3542456  80.7671928  20.2072787   1.5021500
  81.7334175  20.9649706   2.3871829  11.7545390  44.5541716  51.3589287
  11.5383101  43.9849281  50.6203890  12.0338571  45.3755379  50.9544945
  68.4075403   6.4421284  68.6649847  67.7428436   6.0913932  68.0722046
  68.7324047   5.6772518  69.1400242  62.0184755   4.0673015  36.7295098
  61.4892054   3.9691195  35.9380126  62.6530933   4.7494945  36.5101790
  57.9052019  72.7485132  67.9555702  57.6742840  73.6770391  67.9281616
  58.8267994  72.7384281  68.2139969  71.6507006  76.9814587  60.3704357
  72.0025063  77.6091099  61.0017204  71.7350626  77.4202967  59.5239496
  37.6325488  30.5688310  57.7099800  37.1223545  29.8010516  57.4521971
  38.4803700  30.2141786  57.9776573  44.4849873  26.1318350  49.1693974
  43.6448812  26.3510966  48.7664270  45.1342773  26.5841103  48.6307907
  83.9937401  19.0249693  13.6671948  83.7173462  18.7627685  12.7890790
  83.2235622  19.4509339  14.0435076  52.8845739  27.7403045  52.0274782
  52.1145344  28.0814719  52.4823093  53.0779696  28.3968854  51.3583517
  44.1780901  74.4352198  40.4753065  43.6767244  75.0977516  39.9999952
  44.2177963  74.7636318  41.3735247  43.9251423   5.8194017  66.8398190
  43.0331373   5.7435727  66.5009737  44.2272568   6.6732079  66.5300274
  25.9544206   6.1666059  57.5435209  26.9063807   6.2429154  57.4788427
  25.7738090   5.2476645  57.3456430  77.6744270  60.4459906  20.0917435
  76.9029236  60.1824856  19.5901632  78.3918333  59.9388599  19.7117722
   1.7481741  15.4955149  54.2961979   2.5087029  16.0531187  54.1321707
   0.9967176  16.0407960  54.0633631  17.7370942  52.1906328   1.0217690
  17.5040114  52.0880651   0.0990644  16.9672108  51.8813276   1.4990968
  12.4316418  64.7003126  59.6688223  12.0764387  63.8169479  59.5701694
  11.7031431  65.2781487  59.4416094  49.0161657  48.9438915   1.7486960
  48.8819027  49.2148209   2.6568821  49.8394442  48.4558058   1.7635752
  19.1865265  25.8363938  36.5537596  19.4312727  26.6541624  36.9868684
  18.8723993  25.2747631  37.2623682  31.6985416  69.5467234  41.0308695
  30.8867550  69.2817736  40.5983925  32.3780537  69.0230179  40.6063318
  68.0129957  75.1263142  57.8753901  67.7345848  75.7199669  57.1780396
  68.9176798  75.3796768  58.0586433  28.7166858  10.5366719  11.4417028
  29.5750427  10.6283617  11.0281229  28.0970693  10.5461705  10.7121706
  14.3828940  55.3632402  58.0606222  15.0245106  54.7697973  57.6702595
  14.1337538  55.9499359  57.3465157  30.5794191  29.4678044  58.0583620
  30.3568101  28.5926700  57.7408457  29.7338080  29.8868084  58.2184029
  68.1348562  37.5205541   1.2021453  67.6702833  36.7645121   0.8432534
  67.8680897  38.2520223   0.6453507  87.5292015   4.5581046  46.3978338
  87.5712776   3.7379953  46.8896484  87.0304012   5.1498502  46.9610929
  77.0393610  47.2852755  16.3312101  77.7220678  47.4532223  15.6816423
  77.4348497  47.5385094  17.1652913  36.2579179  11.3978684  71.3868618
  36.3056874  12.2912586  71.7271614  36.8866873  11.3824749  70.6653070
  14.0058291  71.5630579  39.6114612  13.9130509  72.4412298  39.9808335
  14.9460077  71.4645386  39.4611597  86.4545345  11.7349350  16.6568637
  85.5337429  11.4735126  16.6626704  86.4735413  12.5558949  17.1486914
  42.5806713  14.7923052  58.4594393  42.1835327  15.0389481  59.2947102
  42.6930046  15.6209695  57.9936838  49.9204779  13.3380783   1.8111105
  49.6244764  14.1493142   2.2240393  49.4522381  12.6465452   2.2788340
  47.5125504  42.0013428   3.4720322  47.1698141  41.4727259   2.7513891
  48.4495592  42.0746756   3.2907376  31.6046762   8.2444412  55.0677729
  32.0972252   8.4072822  55.8722067  31.2776566   7.3500043  55.1640701
  12.1671176  79.2022133  38.7798047  11.3723421  78.6795950  38.8867521
  11.9240940  80.0741673  39.0910435  32.7762127  71.5896511  23.2554388
  33.3585262  71.1909437  22.6087713  32.3407841  70.8477831  23.6752748
  11.2118578  62.2060537  35.3334665  10.2831888  62.1447659  35.1097488
  11.5357971  62.9406834  34.8122978  16.3225150  73.7795210  32.0538616
  15.7279217  73.9931297  32.7729344  15.7700431  73.7989378  31.2724328
  59.0995502   2.4731147  23.0935097  59.5934868   2.5402051  23.9106750
  59.1945601   1.5576197  22.8306890  51.1883688  18.6409891  11.3725901
  50.3517723  18.2903612  11.6782129  51.1052322  19.5883095  11.4816976
  31.0777330  80.9051037  32.6549816  30.1962757  81.1414051  32.9438186
  31.0035276  79.9903011  32.3831964  37.9489493   7.2946233  46.4370966
  37.2716594   6.9878876  45.8342505  38.7729049   7.1028531  45.9892654
  45.5893421  43.5116434  66.0581875  46.3995361  43.2524347  65.6192923
  45.3918886  42.7828360  66.6464758  51.4344168  16.5431535  49.0621328
  51.1017704  16.8991911  49.8860312  51.4197111  15.5943704  49.1879320
  20.3946137  31.5055752  10.7155240  20.7614517  31.2596560  11.5647495
  19.7581375  30.8175421  10.5212557  56.5965128  24.3052578  30.6994963
  56.6293097  24.0105033  31.6095924  55.6741238  24.5109344  30.5474401
  16.4443159  40.3202534  69.5826435  17.1284044  40.4757929  70.2338409
  15.7455266  39.8829174  70.0691223  16.8182969  22.6680398  61.2234783
  17.4937308  22.0041442  61.0846806  17.2336817  23.3173084  61.7910528
  13.0833364  41.5462828  57.7256584  13.2359815  41.6234970  56.7838669
  13.9525211  41.3968754  58.0977154  72.3510647  42.8350258   6.8340415
  73.2789564  43.0655766   6.8797886  72.1116734  42.9855585   5.9195679
  21.3918471  78.0583000  54.0146446  21.4486098  78.3696508  53.1112766
  22.1981215  77.5597334  54.1472578  19.2532492  48.3676481  26.8240833
  18.9258122  47.9352188  26.0353994  19.6776283  47.6687670  27.3217750
  48.8856030  13.7319267  54.6788406  48.2438755  14.0003133  54.0212822
  49.4296503  13.0834877  54.2318869  64.1524363  22.8011465  61.8895483
  63.3097696  23.0037308  61.4832115  64.5491648  22.1527815  61.3077736
  79.7318077  36.4045167  41.3689995  79.9812174  35.4803824  41.3670540
  78.9898539  36.4510870  41.9719648  86.5226460  14.1464794  57.2897005
  86.8729305  14.4111085  58.1402874  86.0575485  13.3286846  57.4661303
  87.7435409  38.9832854  38.8819098  87.8567752  38.6917043  37.9772615
  87.5845829  38.1783366  39.3748832  44.0248585  14.7199678  40.5954599
  44.8725128  15.0987804  40.8282995  43.9081860  14.9434054  39.6720457
   8.9027947  64.6858311  13.7859881   8.8081557  64.0291214  14.4759214
   8.2018757  64.4845533  13.1659627  44.0761423  28.2116413  61.0562992
  44.9036169  27.7341652  60.9968328  43.4426975  27.6495910  60.6101179
  74.6303892  50.1588678  32.2748399  74.4107294  49.2533493  32.4939656
  75.3975725  50.0884724  31.7067647  16.7888951  33.3280277  61.0561705
  17.3519361  33.6940789  61.7382431  15.9807026  33.0942273  61.5126753
  10.1908171  38.0313611  18.7143874  10.2168596  38.8204646  18.1732130
  10.0525665  38.3556962  19.6042907  77.3536873  63.1749105  45.0154257
  76.6574287  62.5600719  45.2465773  78.1630611  62.7149010  45.2379799
  61.8617105  38.2271385  39.9032736  62.4501705  37.4721909  39.9027514
  61.3971329  38.1681132  40.7380867  52.1804571   4.1275474  59.2401409
  51.3523006   4.0074548  59.7048616  52.0510674   3.6842906  58.4016800
  30.4029822  41.1028957  67.3909092  31.2509632  40.7082367  67.1874380
  30.5967665  41.7510366  68.0681086   5.1131618  41.7778254  34.2826796
   4.4264886  42.2170162  34.7844982   4.9838912  42.0806503  33.3838940
  85.3819084  18.1459224  53.9199448  84.8322773  18.6640108  54.5079184
  84.9567890  17.2889102  53.8877726  85.0228691  17.2681499  62.8332090
  84.1843128  17.6166737  63.1358624  85.6496620  17.9715323  63.0023575
  67.7812099  23.6645961  35.5941057  67.8191566  24.5859742  35.3374815
  67.0693398  23.6229372  36.2326479  55.3960943  49.1660643  54.8257685
  55.8174324  48.5145426  54.2652082  55.8052254  49.9953270  54.5784426
  27.6889563  75.3184605  28.7982035  27.6666927  75.0943422  29.7285295
  26.9333911  74.8649645  28.4244442   7.7076757  23.0465651  46.8592405
   8.3523101  22.6907849  47.4708748   6.8638951  22.8926587  47.2841835
  41.3049936  29.6953940   7.0971555  40.5336857  29.1870141   7.3478919
  41.2439060  29.7693157   6.1447716  48.0807161  72.1930742  56.8024492
  48.2554817  73.1341505  56.7945957  48.5323763  71.8591118  56.0273981
   3.3638227  39.6369362  37.9053068   4.1474900  39.1873217  38.2214427
   2.6969618  38.9518332  37.8588152   8.7976366  30.7956386  51.0766935
   8.6742967  31.7103767  50.8231688   9.6821845  30.5819869  50.7797766
  45.9105968  16.4693165  48.2496643  45.8365107  16.1743772  47.3420572
  46.8470907  16.6214764  48.3763742  74.1609859  53.1761503   2.5583500
  74.9634647  53.4970856   2.1469402  73.4577274  53.4953833   1.9928877
  35.5854964  26.1643171  50.7500887  35.1312375  26.7979717  51.3053942
  34.9000239  25.5591202  50.4670811  48.0881357   9.4356292  61.1741877
  48.6027288   9.0435421  60.4687166  48.1036186  10.3745437  60.9886265
  80.3275490  26.2463212  32.7395034  80.4583263  26.1768842  33.6851811
  79.3827200  26.3596201  32.6360583  58.6705112  51.8254328   9.0984225
  59.4169712  51.4578295   9.5716006  58.2326794  51.0657644   8.7144458
  51.1560440  22.0343804  65.5275774  50.9027910  21.1184335  65.4129791
  51.9456339  21.9988132  66.0675001  73.9811850  74.6608067  19.1646087
  74.0925455  74.5091963  20.1031423  74.0266991  75.6120920  19.0686047
  35.6068087  10.4239285  60.0906324  34.7456264  10.8056664  60.2605438
  35.4649973   9.4788980  60.1457596  68.4675264  43.8790798  38.6773801
  69.3056822  43.5469246  38.9989376  68.4180355  44.7727919  39.0165854
  46.1294079   1.2994896  20.8808279  46.0651922   1.7965461  20.0653267
  46.8892717   1.6712716  21.3287330   9.7566509  24.0291095  39.2892432
  10.4388404  23.8529158  39.9371672   9.1410685  23.3025146  39.3859577
  54.0096235  58.0692625  10.1845264  54.7793627  58.3169937  10.6967449
  53.8202190  57.1711063  10.4559541  61.4468575   3.0105844   1.3371964
  60.5456877   2.9254496   1.0259429  61.7215014   3.8784540   1.0412147
  56.6404390  26.5026283  65.5273485  56.8439341  26.0420704  64.7132826
  55.6862450  26.5783906  65.5275917  22.6161480  20.3375077  11.1180401
  21.6965699  20.0918078  11.0168469  23.0717707  19.8471475  10.4337978
  87.6536179  28.5034704  52.5419474  87.2149754  28.9413333  53.2714033
  87.0546627  27.8008986  52.2892141  76.8845701  24.4400311   5.2910894
  75.9509563  24.5897317   5.1421475  77.3071051  25.2445626   4.9903807
  65.7972097  41.6249371  42.7254105  65.6286621  42.5023222  42.3818731
  66.4153910  41.7633533  43.4429884  70.9687805  47.7195406   0.2900048
  71.2365866  46.8247414   0.4993902  71.7527676  48.1232834  -0.0822734
  11.4731109  77.3021173  46.2975597  11.0576284  78.1611681  46.2224770
  10.7850063  76.7324972  46.6414690  78.6165047  20.2092695  68.2334232
  78.1216478  19.5434070  68.7108946  77.9527473  20.6977439  67.7465487
  30.1112962  68.7008286  53.4759855  30.2372742  69.3433523  54.1742134
  29.9551225  67.8756189  53.9351988  20.8699751  57.5390768   0.8236719
  20.5227613  58.1756878   0.1988520  20.5587626  57.8452730   1.6755077
  72.9970551  45.2427101  54.8228073  73.2861423  45.8527660  54.1442108
  73.0907440  45.7318068  55.6402636  56.2652111  17.2019935  68.2889032
  57.0485258  16.7197883  68.5537195  56.4027548  18.0867362  68.6273432
  42.0627785  81.0592461  14.3436491  42.1349192  80.3530979  14.9858153
  41.3028574  81.5662289  14.6295083  59.7112608  51.6839409  34.8298931
  59.2109585  50.8679771  34.8411894  60.4315758  51.5317202  35.4416180
  57.5929451  38.7381768  48.0156708  57.7116489  39.3136740  48.7712812
  57.2561407  39.3123651  47.3278475  33.7242818  24.8166752  54.7839975
  33.8351870  25.7670832  54.8096752  32.7810979  24.6882343  54.6833038
  23.4109306  80.6893444  56.3081980  23.4871006  81.3262272  55.5976963
  23.6723566  79.8575306  55.9132719  58.9038992  57.8292227  19.0015030
  58.2139444  57.4508715  19.5465231  59.5819712  58.0940151  19.6230614
  38.9126253   0.8087669  27.1873903  38.5360599   0.3046983  26.4660406
  38.8999629   0.2074387  27.9320216  37.2573733  13.7241566  60.4000568
  37.9154992  13.0682695  60.6300831  37.2193742  13.7002385  59.4439077
  82.4235344  77.6687002   5.7027531  81.5123177  77.5905848   5.4202402
  82.6056099  76.8448448   6.1547929  37.0590234  21.3974905  26.5203738
  37.1211839  20.4787660  26.7817426  36.4388895  21.3976359  25.7912183
  82.1109581  28.1757259  35.3992009  81.4207745  28.7816644  35.1295590
  82.4729824  27.8440762  34.5775080  55.0807667  64.2781973  34.0186667
  55.7851076  63.7889719  34.4438720  55.4914141  64.6666384  33.2461929
  42.3261023  51.4065361  67.9817057  41.4764357  51.1925554  67.5963449
  42.7783251  50.5654001  68.0466032   5.2384549  68.8616419  70.7027483
   6.1807579  69.0265560  70.6695795   4.9931866  69.0549040  71.6075850
  52.7757502  35.4238176  68.2509899  53.6227465  35.1517129  67.8977394
  52.3044872  34.6043301  68.4012890  71.5133667  34.1701746  31.0940528
  71.2761259  34.0015817  30.1821733  72.4657345  34.2652225  31.0801268
  56.1438656  15.2542758  12.1505201  55.4558086  14.7485590  12.5830257
  55.7197142  15.6213641  11.3749075  42.1217728  81.8239784  39.4879961
  42.7168322  81.2899494  40.0142622  41.6784096  81.1965752  38.9170146
  73.7410927  19.2030036  48.6856651  74.4854403  19.2024946  48.0838537
  73.9462137  18.5169744  49.3208981  55.6855011  47.7046299  42.5522423
  55.3833580  47.6417732  41.6461563  56.4032555  47.0739508  42.6096725
  31.7786074  69.8114538  70.5066681  31.9459939  69.5850563  71.4215183
  32.5979161  70.2021694  70.2028513  30.8839679  25.9380698  54.8754692
  30.9421492  26.6860366  54.2810011  30.5142021  26.3002634  55.6806517
  41.7427969  59.4609356  19.5383096  41.5101910  58.8158560  20.2061415
  40.9774256  60.0329065  19.4809234  64.9467373  30.4912615  67.7418756
  64.4701195  29.7005105  67.9944372  65.8665419  30.2762103  67.8966093
  59.5181179  24.0386534   2.1219432  59.0212917  24.5726848   2.7417892
  59.4850874  23.1545448   2.4873078  35.3154993   4.9344563  31.8939495
  35.4076362   5.4146379  31.0710454  35.0302005   4.0596724  31.6301489
  70.1939344  46.9122314  56.5914869  70.1447344  46.1945200  55.9600592
  69.7585440  47.6448822  56.1557293  60.3876019  19.7430384  50.0116873
  60.8942890  19.6325541  49.2071438  59.4796896  19.5996213  49.7445536
  32.9141951  40.2696276  66.6266966  33.0076432  41.0960102  66.1527872
  33.8131356  39.9850392  66.7914677  16.9779527  63.1905985   2.4552429
  17.0464790  63.7520170   1.6830105  16.4228153  62.4632692   2.1740866
  78.0766392  17.9451632  42.3319054  77.8258085  17.3063934  42.9992056
  78.9724207  18.1922531  42.5615788  46.1744547  14.2026842  64.3329000
  45.9281349  13.4795964  63.7560987  46.6586494  14.8051846  63.7682915
  23.5438776  32.3288441   8.1735891  24.3115234  32.1667576   8.7219298
  22.9646921  31.5867376   8.3469546  66.4376163  43.4376669  13.8353848
  66.4138699  42.5951815  13.3816350  66.9586182  43.2719421  14.6210837
  62.1171904  71.1299753   7.4114031  62.8021669  70.5239868   7.6939201
  62.1009016  71.8058157   8.0890548  27.1980381  71.7199135  40.7077456
  27.2536945  72.3378706  41.4366245  26.4817739  71.1316061  40.9466791
  46.5587950  21.5409112   5.4595923  46.9686985  22.3293757   5.1038766
  46.4389467  21.7321157   6.3898116  78.5903931  36.1313152  27.6216817
  78.9724922  37.0007586  27.5021029  79.2967081  35.6096220  28.0027127
  30.7665777  58.1889153  26.7736268  30.3533721  58.5875225  27.5395274
  31.6301870  57.9152107  27.0826554  76.2381077  53.4170055  52.1355295
  75.6336927  54.1586113  52.1049500  76.9263649  53.6937475  52.7404690
  80.1459599  -0.1913353  56.1029959  81.0741806  -0.2227006  55.8713484
  79.9006653   0.7264131  55.9855270  69.6584511   6.6287893  62.8952885
  68.7743998   6.6030824  62.5291967  69.5491838   6.3513547  63.8048649
  36.2268186  76.5668344  20.4582691  36.5023255  76.9968033  19.6486676
  36.3202858  75.6316900  20.2766085  62.1559572  22.4802017  38.3679795
  61.2959766  22.6816010  38.7369037  61.9699526  22.1728396  37.4807572
  80.4620838  34.8642063  62.2558784  80.6792545  35.7959938  62.2848988
  81.2961674  34.4191051  62.4056149  67.0429325  19.8784268  43.5629940
  67.7589226  20.4491496  43.2839584  66.4436388  19.8637116  42.8167582
  47.9922819  13.6695063  71.4170837  48.1364012  13.7734520  70.4765224
  47.5148344  14.4580781  71.6748238  58.2145357  33.7047291  45.5066681
  59.1705513  33.7344766  45.5439425  58.0046892  32.7711082  45.4832983
  19.6904504  31.8255901  42.2494698  20.5748153  31.7516351  41.8907738
  19.4866610  32.7591801  42.1936941  63.3963203  64.9863052   4.5802218
  63.3698177  64.5316315   3.7383187  62.4765682  65.1075697   4.8159936
   9.0849090  32.9548550   0.5618635   8.3174354  32.4114299   0.7404848
   9.8121721  32.4830222   0.9676893  44.5101213  21.9290853  58.5095263
  43.6031866  22.1870947  58.3448124  44.8327923  22.5755572  59.1373682
  67.5264788  25.6924558  23.7683868  67.1379137  25.8839631  22.9148221
  68.4213781  25.4181337  23.5680509  38.5367608  16.3077331  67.5976515
  37.7917314  16.8967175  67.7170706  38.1749940  15.4325831  67.7371788
  68.9451981  19.2410243  19.7957075  69.7174835  19.7430277  20.0560904
  68.8839769  19.3694878  18.8491452  28.7930942  17.1280968  53.5413218
  28.6066031  16.4018047  54.1362619  28.7467861  17.9083037  54.0939188
  40.0142431  16.6042888  42.0954275  40.1845312  15.8672023  41.5089703
  40.8832693  16.9021666  42.3643064  83.0291367  35.5004978  38.3736444
  82.1680450  35.5798411  37.9632139  83.4340096  36.3588166  38.2487416
  13.1165040  14.3690109  19.9059260  12.4136114  14.1447127  19.2961192
  13.5067582  15.1627982  19.5400882  59.8823643  25.5335927  68.9552832
  59.5489693  25.6993961  69.8370934  59.2497921  25.9587359  68.3761978
   9.7754765  72.9416847  13.3079255  10.5840993  73.3397436  12.9855752
   9.2742014  73.6741924  13.6662328  32.3448062  13.7110424  52.7838564
  31.9874549  14.2833245  53.4628439  32.6302361  12.9287207  53.2558060
  58.6139774  21.4108324  59.1861439  59.3123770  20.7647610  59.0809774
  58.6534166  21.9381905  58.3882904  18.8111115  64.9001694  48.4984589
  18.3440721  64.3864489  49.1573954  19.3848109  65.4748821  49.0052176
  54.4528008  17.9899216  60.2258587  54.8121357  17.1439660  60.4931927
  55.1098299  18.6279619  60.5041599  41.9713783  82.6358891  56.0723829
  41.5125942  83.2810497  55.5343103  42.5204945  82.1547413  55.4533529
  11.8884254  70.1034880  55.4352093  12.4117732  69.8304367  56.1887217
  11.3607931  70.8324099  55.7615566  46.9104910  41.2953281  56.8415070
  47.1623898  42.2071218  56.6951656  46.2544966  41.1169672  56.1676502
  40.8785772  42.4600172   8.0583262  39.9864626  42.1165228   8.0095625
  41.1393881  42.5797176   7.1451557  34.7903323  77.9024696  51.7063904
  34.2856503  78.2374525  52.4475479  34.4676876  77.0100927  51.5806961
   3.7848124  56.5143204   9.9340355   3.9683104  57.1552229  10.6209183
   4.6136463  56.4230633   9.4639945  39.2770672  28.4740186  56.1850166
  39.2353964  28.6528158  55.2455854  38.4176826  28.1102133  56.3979387
   5.2112037  51.6069794  35.9448171   5.2696061  51.1615419  35.0995946
   5.7687175  51.0905075  36.5267682  78.8226509  13.4997392  49.8500252
  78.0954409  13.0985153  49.3741941  79.2295027  14.0880704  49.2139673
  23.6732221  24.3028188  57.4672031  23.8383341  23.4087873  57.1677399
  23.0250883  24.2058635  58.1648779  69.0461445  39.1878343  61.7478943
  68.4862185  38.9299726  62.4801636  68.6967659  38.7062430  60.9980726
  59.1636848  22.3519373  52.7558041  58.5160351  22.6541638  53.3925486
  59.6245003  23.1467557  52.4872065  62.4484158  26.9540977  60.6839657
  62.5972509  26.8960166  59.7401953  61.8907547  27.7246022  60.7915258
  58.1765556  11.1100781  57.7513123  57.4269247  11.5981615  58.0919933
  57.8065586  10.2780485  57.4562502  32.1410918  65.9083891  41.2223625
  32.1910620  66.2602139  42.1111584  33.0475664  65.7006598  40.9956837
  55.7208967  44.0175915  20.3103828  55.1947880  43.2267189  20.1922321
  55.8900309  44.3278599  19.4208002   0.4096352  47.5992060  62.4274111
  -0.0290275  47.1976709  63.1774616   1.0237914  46.9309950  62.1232128
  25.2872491   9.4018751  28.1144905  25.0573111   8.4825802  27.9793739
  26.0240960   9.3772322  28.7249684  23.5029888  61.0145473   1.7059049
  22.9847312  60.7838297   0.9349243  24.4117355  60.9421206   1.4140761
  85.7468319  11.6249919   8.2610124  85.3984737  11.3545740   7.4114519
  85.7296085  12.5816393   8.2334274   9.0401369  62.2794914  22.1577215
   9.9493694  62.5752640  22.1124935   8.5417461  63.0688286  22.3693585
  42.0916939  40.1996851  50.3896570  42.5269270  40.8055210  49.7898531
  42.7640486  39.5542717  50.6078529  72.6752424  45.1978254   1.3008296
  72.6357031  44.7784853   0.4412820  71.8861246  44.8963022   1.7509526
  41.2401819  62.9885817  55.9858847  41.1550570  62.5460815  55.1413822
  40.3814793  62.8879213  56.3966560  16.6131401  71.8804216  45.9417772
  17.3668897  72.3235035  46.3313532  16.0082543  72.5879955  45.7188654
   2.4098060   2.9500934  41.4809990   2.8723228   2.7498475  42.2947598
   2.9613242   2.5761816  40.7937956  32.3580265  35.0524879  61.6018343
  31.6871786  34.8820877  60.9406567  33.0786967  34.4674587  61.3681459
  82.0597458  77.5221109  64.3849897  82.3763752  76.8069601  64.9368382
  81.1345100  77.6098061  64.6140575  63.3369637  14.9233413  36.3625526
  63.1262159  14.7415078  35.4467177  63.3347654  15.8785820  36.4237309
  12.3236334  23.2555628  60.4876900  11.6899145  22.5409603  60.5507231
  11.7933154  24.0509534  60.5361652  83.3380604  51.6588020  16.5504193
  84.1687584  51.3502312  16.1885273  82.6778030  51.3546133  15.9277213
  51.3400841  77.4035311  62.6044703  50.7578325  77.9065371  63.1738567
  50.9524393  77.4853897  61.7331123  64.3382311  38.2372999  41.8941355
  63.5971451  38.4513116  42.4609041  65.0946045  38.6291718  42.3306704
  83.4467125  21.7288232  32.6803136  83.5584641  22.2367120  33.4839249
  83.6950207  22.3316717  31.9794917  74.8467445   1.3485149   0.5537106
  75.6399441   0.8139990   0.5168638  74.6554899   1.5566549  -0.3608009
  29.3086219  14.7792602  44.0511990  28.9092851  14.7016060  43.1847525
  28.6612201  14.4036114  44.6478510  10.9370375  66.3044834   2.8264582
  11.5159607  66.9706440   3.1970096  10.2375710  66.8031120   2.4041431
  57.0841503  38.0622935  44.6559334  56.2319660  37.7609110  44.9708652
  57.3085594  38.7919235  45.2334404  69.1402102  18.8246346  60.4423332
  69.9645853  18.6817276  59.9773502  68.9787054  19.7645295  60.3601885
  19.8723388  59.3197203  18.6220169  20.1911163  60.2219629  18.5982144
  19.9371994  59.0669966  19.5429718  76.4920425  17.4135911  52.4378252
  76.2389374  17.5167346  53.3551741  77.0094728  16.6084695  52.4211979
  44.3966341  79.3003368  47.6383734  43.8663673  79.3960524  46.8472433
  44.5580435  80.1980877  47.9285860  56.2364149  28.1703854  59.8004532
  55.3002357  28.2323813  59.9900723  56.6218567  27.8271627  60.6065941
  41.9680834  23.3552575  62.3153687  42.4054241  22.5769210  61.9701767
  42.1164417  24.0279341  61.6507435  44.5079851  56.0515594  37.1618748
  44.2711449  55.3795815  37.8010821  45.3136158  55.7264948  36.7599797
  74.6680880  23.9640307  58.6041069  75.2484894  24.5863032  58.1657648
  74.6447945  24.2586613  59.5145321  11.3427246  81.3832760  47.4747419
  10.7079232  81.5191174  48.1781673  12.1197379  81.8658733  47.7568293
  13.7926781  76.6772127  66.7841864  14.5624018  76.4956903  66.2449217
  14.1502929  76.9165087  67.6392221  54.8113728   9.9614340  69.6963215
  54.9339342   9.3005186  69.0148544  54.4406605  10.7143092  69.2359066
   3.2636252  27.3536754  65.4923630   3.1538406  28.2104111  65.0798368
   2.7544835  27.4101782  66.3009501  74.1732693  79.0787840   6.0863101
  74.4294786  79.1929483   5.1711291  74.1754818  79.9650192   6.4479917
  27.1787858  19.8472643  59.5172882  27.2310042  20.7687187  59.7711086
  26.4640975  19.8141229  58.8813972  37.7539659  80.7275200  51.1010456
  37.6802206  79.8138475  50.8253813  38.6211944  80.9991455  50.8004332
  67.6023674  34.7128224   0.3215716  66.7228270  34.4874477   0.6246281
  67.6819277  34.2779493  -0.5274207  51.0546064  75.2297497  68.8152075
  50.4356766  75.0097895  69.5114660  50.5038357  75.5186510  68.0875969
  55.5435944   7.0833856  42.3594999  55.1674461   7.1953166  41.4864492
  55.9000587   7.9442191  42.5788784   1.8146345  55.2291775  18.0934429
   2.3022488  56.0523558  18.1225669   2.4220914  54.6048784  17.6966107
  44.7112751   1.5739787  50.6766272  45.6488991   1.5296927  50.8640480
  44.4459677   0.6610857  50.5649567  28.1437850  65.9802341  27.4522018
  29.0344930  66.3207579  27.3690248  27.5898051  66.7606068  27.4709606
   6.0210121  66.7220926  15.2045608   6.5569520  66.5284157  14.4354761
   5.1655811  66.9596291  14.8467267  75.4869127  63.1477642  17.9147577
  76.1799431  63.7955379  18.0425417  74.7478819  63.4845734  18.4213364
  64.2577076  17.8104687  44.9691820  63.4970570  17.2644031  45.1678181
  64.8463488  17.2333765  44.4826698  58.5413074  18.2769799  48.1091022
  59.1460085  17.6387787  48.4876108  58.2124805  17.8541470  47.3158073
  47.9885149  34.6895933  14.2981100  48.8996553  34.5650816  14.5637310
  47.5623178  35.0604534  15.0707996  42.3437452  57.1763945  48.9710712
  43.0733442  56.9453478  48.3961487  41.8571997  56.3593960  49.0807199
  74.3097448  37.2715759  18.5062313  74.4867849  37.3970509  19.4385111
  74.4383240  36.3340688  18.3620787  33.5672355  31.4847875  70.5176353
  33.9511847  30.8336592  71.1048746  34.3158340  31.9844627  70.1918173
  44.8206949   7.8923929  41.2039042  43.8903236   8.1136793  41.2447929
  45.0357914   7.9328728  40.2720642  60.4012203  28.9754963  60.7554817
  59.9279594  28.9529181  61.5871954  59.7141838  28.9791894  60.0890017
  52.7187347  15.4477465  51.8254089  52.7013731  14.6488857  51.2983894
  53.5126114  15.9028029  51.5444899  12.0300806  24.3090200  48.0234575
  11.9521058  23.4338474  48.4032249  12.6903427  24.2142487  47.3369408
  36.8676257  14.6996474   3.9307800  36.5074563  15.2485931   3.2342392
  36.4991498  13.8316441   3.7663797  48.2239866   3.3706766  37.9395628
  47.9922438   3.0466118  38.8099122  48.9386415   3.9878890  38.0962515
   0.9982903  70.0280809  17.1485734   1.1716336  70.9690952  17.1746337
   1.8357211  69.6238995  17.3756790  59.1859818  27.4034667  71.3214397
  59.8520374  27.7955151  70.7567263  59.6638489  27.1392632  72.1076155
  65.7968998  47.0819807  55.8529711  65.7191467  47.5369310  56.6915464
  65.1358128  46.3909149  55.8932066  41.5443182  25.2352524  67.3278189
  41.5389919  24.8104572  66.4700603  41.2307835  24.5612407  67.9308414
  76.5291357  10.1970696  57.6563311  75.9437323  10.9420216  57.7926493
  77.1054506  10.4726446  56.9434834   5.0153720  67.3291826  20.8430982
   5.0521034  67.2923470  21.7988849   5.5808896  68.0654097  20.6098747
  16.8752503  70.2288580  39.1102767  17.1603501  70.8733845  38.4625626
  17.0876002  70.6273842  39.9542642   3.1903461  38.6829948  17.9972684
   3.4710962  38.4186459  17.1211803   4.0035552  38.8944697  18.4557462
  58.7915325  18.8477767  70.9937859  59.5852852  18.6041129  70.5175304
  58.2288122  19.2494535  70.3317928  65.2198267  75.8008718  26.0589743
  65.3933430  76.2140226  25.2131462  65.6365013  76.3790894  26.6979384
  20.4203796  82.7507305  11.0695183  19.5863163  83.1857109  10.8924305
  20.1743960  81.8973160  11.4264488  82.0200825  38.4070325  58.2497978
  81.2857056  39.0202427  58.2798195  82.4882221  38.6331463  57.4460888
  74.5642471  78.5552549  67.9143381  74.2758608  77.7886057  68.4096336
  74.4793606  79.2836666  68.5295153  81.5841103  80.0427151  37.8271055
  81.7026997  79.3107986  38.4324646  82.3488712  80.0047779  37.2527003
  21.3918614  40.2169275  40.8269596  21.1336541  39.3289328  40.5799294
  21.6016388  40.1548719  41.7588282  67.4512005  13.1695843  58.1698132
  66.8063641  13.8314939  57.9202318  67.1727514  12.3781836  57.7089643
   9.8767895  23.2210183  44.7222567   9.4679153  23.3518028  43.8667202
   9.2084849  22.7734756  45.2412081  69.4725704  59.7691011  46.3556194
  69.5575285  58.9303684  45.9022522  69.7275734  60.4211092  45.7028627
   4.7578868  36.7533040  54.5357132   4.8885450  37.4918175  55.1304865
   4.6209225  37.1572328  53.6787939  62.8398132  55.4187632  68.3122253
  63.6362267  55.1151848  67.8765631  62.1277332  55.0008821  67.8279257
  79.2222977  22.5937915  28.6628008  79.4082403  21.6560292  28.6152577
  78.8465691  22.8070712  27.8086495  73.3880329  50.0987482  53.8313484
  73.4102726  50.1484728  54.7869968  72.5338411  50.4587221  53.5925961
  49.8613310  37.4328899  50.0878096  50.4971981  36.7563987  50.3207541
  49.0564442  37.1686888  50.5334330  41.2602854  32.8281569  62.6057196
  41.2684202  32.0870876  61.9999266  41.4776468  32.4451613  63.4556007
  66.4461422   3.5992536  41.0145140  66.7150640   3.0380353  40.2872276
  66.8741035   3.2188225  41.7815542  86.3082218  58.9787531  60.2402830
  85.6130409  58.6004543  60.7786560  86.9984913  58.3156061  60.2397776
  21.7941022  20.5016065   1.6529654  21.8309641  20.4959655   2.6094386
  22.6132464  20.9175086   1.3841544  19.4057965  51.1636066  63.1941032
  18.4815609  51.1124849  63.4378386  19.5819676  52.1013880  63.1182051
  41.4034224  51.8232870  38.8003778  41.9686699  51.1841011  38.3665919
  41.3031483  51.4885235  39.6915054  65.0823927  16.0225296  47.9232645
  64.6263218  15.1809680  47.9243803  65.7665682  15.9232938  47.2612286
  62.2449303  51.9688368  43.4836102  62.9341888  52.6255798  43.5828352
  62.6943493  51.1311531  43.5956049  66.3608265  30.6230259  63.6510611
  67.0991516  31.0449433  64.0904856  66.7642498  29.9738979  63.0747700
  39.5782948   7.3288649  25.8010721  39.4068837   7.8913695  25.0457978
  39.3878436   7.8812557  26.5592456  78.2938862  35.3135157  52.6442337
  77.9113770  34.7770214  53.3385658  78.0737972  34.8511386  51.8355322
  30.6657290  52.3049736  35.0638747  30.1089740  51.6405916  34.6578503
  30.2557755  53.1373405  34.8286533  85.9618378  55.9497976  30.8271956
  85.9513664  55.5432367  29.9606895  86.8637180  55.8447218  31.1301732
  18.6008811  53.1816244  18.7586927  19.5424330  53.0209589  18.8211250
  18.3983552  53.0611897  17.8309476  84.2455196  53.1513977   5.3104484
  84.0371895  54.0700340   5.1403546  84.7177601  52.8642273   4.5289379
  79.1489220  25.3119159  64.7236395  78.6418438  25.2138638  63.9177322
  78.7248516  24.7218752  65.3467321   8.1112278  49.2201805  63.0352640
   8.9728123  49.1612673  62.6224279   8.0097651  50.1482725  63.2464075
  52.8627157  40.8131361  52.2007465  52.3010111  40.0422096  52.2807026
  52.3925447  41.3907242  51.5994406  51.2629223  33.2944059  53.0688858
  51.7216349  33.3944750  52.2347355  51.0839272  34.1908240  53.3528328
  12.5491750  51.1993599  52.1543789  13.4718382  50.9529352  52.0895720
  12.0964336  50.3809738  52.3581028  65.9627581  24.9379301  41.6594839
  65.3399038  25.2284598  42.3257256  66.0715008  25.6966829  41.0861635
  62.3680925  25.7935047  67.9548454  62.5873184  24.9294734  67.6061010
  61.5582418  25.6551290  68.4459877  12.4081481  64.2688036  64.6400309
  12.8029931  65.1113701  64.8645544  12.5872242  63.7110615  65.3970528
  59.9527979  23.2379270  41.4908457  60.7718992  22.7496791  41.4076567
  59.3857718  22.8718710  40.8120871  18.0554545  38.6681652  58.6814404
  18.5139358  39.5084023  58.6868238  18.6886370  38.0474997  59.0421104
  72.9701662  46.7047691  57.3260641  72.0134068  46.7027473  57.2969866
  73.1939936  47.5117540  57.7896452  13.1991589  15.0545204   7.4556422
  12.7483320  15.7699335   7.9041648  12.8583944  14.2607725   7.8680444
  50.1587439  16.1193240  52.5954771  49.7315836  15.6655383  53.3220053
  51.0472393  15.7635570  52.5800943  54.9149752  81.8049240  42.7733612
  55.2284622  80.9366226  43.0263710  54.6487808  81.7064762  41.8592072
  76.5778399  65.3886127  19.7192991  77.1450186  65.6924009  20.4280019
  75.8076096  65.0346851  20.1639390  35.7398915  19.9488902   3.4971839
  36.1505795  19.8865879   2.6348117  35.4541349  20.8602023   3.5611084
  52.1435928  62.1478415  59.0345955  52.2948456  61.9596386  59.9608421
  52.9926872  62.4467754  58.7091637  73.2534552  51.2525606  66.3539982
  72.8268433  50.4598570  66.6793537  72.5512028  51.9014788  66.3095856
  44.2044163   8.3702374  66.1773396  43.9974928   8.9356387  66.9214725
  43.5080338   8.5435724  65.5439043  40.6081438  25.0999665  53.3820248
  40.3636026  24.6147990  52.5939608  41.2248611  24.5252180  53.8354111
  42.9275751   1.6390343   7.3510188  42.3473930   1.6513351   8.1122506
  43.5404444   2.3579255   7.5053376  26.7191911  49.6210957   2.8918839
  27.5829673  49.9553299   3.1335726  26.1151505  50.3247595   3.1290030
  61.4758730  19.5220971   0.7291049  60.5739975  19.7469378   0.5004233
  61.7449617  18.8970935   0.0559067  82.6926994  17.0580697  49.6640635
  82.5461006  17.8031147  50.2468586  83.5798645  16.7636633  49.8702097
  47.9194784  36.5647101  64.6445799  48.7942982  36.6322088  64.2619991
  48.0270576  35.9668636  65.3843403  77.2500896  44.6923971  65.9305906
  77.5626945  44.9706936  65.0697422  76.5415239  44.0774632  65.7408094
  67.8652620  42.7746773   2.2443649  67.8589439  42.5260115   3.1686792
  66.9510460  42.9755449   2.0441231  64.9963427  31.3045549  46.8782663
  64.9279451  32.0369029  46.2657166  65.9158611  31.2997770  47.1441555
  26.9970560  30.7734179  52.8818417  26.6347575  31.1212277  53.6967039
  26.2569809  30.3405857  52.4561930  59.6593523  13.9514828  60.0725937
  58.8969707  13.4110367  60.2797794  60.0158501  14.1997719  60.9255266
   2.4007402  29.0799093  43.1554127   2.2043706  29.8001575  42.5563192
   1.5601338  28.8714933  43.5630608  71.9130850  35.8689165  42.4366665
  71.0437536  35.5377841  42.6621628  72.0883179  35.5090976  41.5671492
  12.2631919  26.3694406  45.3559303  11.3838875  26.6067386  45.0614023
  12.7973974  27.1390414  45.1595306  34.2409706  37.8554130  64.0270567
  34.8559093  37.1553922  64.2462730  34.3220949  37.9572129  63.0787516
  22.9017186  78.3756685  58.0530453  22.8066492  79.1637230  57.5181007
  23.6425352  78.5649967  58.6288738  11.6460097   9.2833287  20.6855536
  12.5249279   9.6590430  20.7362819  11.5661168   8.7529784  21.4783835
   9.9842584  12.9995966  48.2841158  10.4747009  12.2225833  48.0158854
   9.2537558  13.0464768  47.6673508  66.7346764  10.2411294  48.7471724
  66.4434576  10.8734190  49.4041586  66.2090731  10.4412615  47.9726267
  79.2324924  46.1192322  67.0330143  79.7919607  46.2427950  66.2662315
  78.5016584  45.5900621  66.7134905  64.1375542  63.8767004  10.3263962
  63.6462021  63.8738203   9.5049351  64.0907717  62.9723835  10.6366396
  73.9144230  40.6887674  21.6963863  74.4938612  40.4338837  22.4143791
  74.5046377  41.0107183  21.0150480  74.3453741  19.3065941  59.3845892
  74.5896292  20.1099086  58.9249611  75.1561594  18.7996972  59.4283247
  76.7679596   0.7052503  63.9856720  77.0976448  -0.0815147  64.4198847
  76.5547562   0.4174141  63.0980206  76.3696098  33.2282257  66.8667173
  76.5308428  32.4750972  66.2983561  75.5788517  32.9959631  67.3535299
  17.9733157  15.6770647  44.4450855  18.1495786  14.8184180  44.8296499
  18.3680987  15.6350183  43.5741043  67.6628780  64.5190668  42.7605104
  67.8665924  64.2919970  41.8532228  67.4358654  63.6847067  43.1710482
  29.9035668  55.7788801  22.3858452  28.9828706  56.0055304  22.5169253
  30.0054264  54.9310350  22.8183055   7.6129931  37.8304267  35.3461862
   8.2715416  38.1092167  35.9824419   7.7312160  38.4230232  34.6038342
   0.8931949  55.5379248  65.4888439   1.8249261  55.3273678  65.4274130
   0.7262008  55.6136990  66.4283133  82.8080082   8.8409424  35.3239346
  82.0680046   9.3930954  35.5764151  83.2906055   9.3648857  34.6845460
  10.3499448   0.3765586   4.0699020   9.8949701  -0.1989191   4.6847638
   9.9345243   0.2012442   3.2255548  52.7568054  38.1792665  67.0656967
  52.6628637  37.3132539  67.4624681  52.9933786  38.7524295  67.7949095
   6.4203334  32.2644019  71.1483908   6.1265469  32.0863652  72.0418262
   7.3750764  32.2149897  71.1958885  17.6114571  38.1527686  65.3270483
  16.6907263  38.4115005  65.2877665  18.0927730  38.9415836  65.0773716
  64.7160816   9.3861514  57.7576208  65.2580643  10.1524055  57.5696278
  64.7198439   8.8843149  56.9425297  79.4551754  49.6744108  51.8915844
  78.9949036  49.3587828  52.6692486  80.3628254  49.4001389  52.0226622
  25.8522344  10.0637174   5.7152617  25.3668118  10.2045465   6.5281349
  26.7669463  10.0012732   5.9902811  74.1282701  28.0914378  17.2733772
  73.2907200  28.3815408  17.6347339  74.7864962  28.5224438  17.8185451
  61.2747717  41.8718529  40.1902437  62.1499252  41.6315889  39.8859262
  61.2554121  42.8271866  40.1336718  67.0253944  57.2189093  39.4564962
  67.0030689  56.9154215  40.3640366  67.7048540  57.8930473  39.4460320
  48.2926130  25.0561833  64.4903374  47.8457355  24.3560052  64.9660301
  48.3468390  25.7760429  65.1189041  31.1755753  39.4798708   8.7679309
  30.4612780  39.9493980   8.3371681  30.7591224  38.7058997   9.1470957
  62.6706791  12.8146338  28.6461735  62.2678566  12.2876561  29.3362904
  62.9094791  12.1810687  27.9695630  13.4622109  42.0137405  55.1322126
  12.6530612  41.6544247  54.7683430  13.6793375  42.7464867  54.5558691
   9.2228025  41.7202759  59.3023109   9.1119742  40.8850098  58.8481379
   9.7848153  42.2350693  58.7232065  39.9276519  68.0176353  22.1968555
  39.2947817  67.8113413  22.8847146  40.3123856  68.8512659  22.4675512
  51.3730335  45.6368113  49.6766329  51.9920778  46.3655901  49.7201824
  50.7552242  45.8044910  50.3882694  29.6976185  80.8238029  52.0303154
  29.1422892  80.3789616  51.3900375  30.4788828  81.0738659  51.5370274
  54.3096018  19.5263517  64.0785789  54.1231251  20.4057264  64.4074535
  54.4407034  18.9987934  64.8664379  81.2615871  13.9900923  55.5414534
  81.8772507  13.2605672  55.4708147  80.6618786  13.8695323  54.8052168
  39.1295862  41.6551542  70.5805492  39.0208602  42.4938393  70.1321888
  39.8777533  41.2462234  70.1455164   0.4793698  61.0168743  65.3688145
  -0.0194021  61.0597038  64.5529604   1.3782325  61.2213993  65.1110411
  51.5792084  70.8301878  62.3381472  52.0800447  71.6458941  62.3338461
  51.4928102  70.5973053  61.4137411  64.2979717  58.0417824  21.8966198
  64.0943146  57.9919767  20.9626627  63.5075712  57.7218246  22.3315072
  61.7428589  47.8906918  63.7527657  62.5000477  47.5768661  64.2471457
  61.0885096  48.0949116  64.4208670  21.0893202  62.8075552  41.8521166
  21.5690112  63.3960962  42.4349928  21.4196587  61.9353819  42.0675802
  24.8093152  10.6717288   8.1690753  24.9476886   9.7275245   8.2436585
  25.3012490  11.0444236   8.9007396  28.9091015  32.6857448  46.7342710
  28.4229851  33.2108164  46.0984850  29.3098259  31.9896507  46.2135983
  79.4728184  75.7081366  61.4329815  80.2347946  75.2771473  61.0458517
  79.7946310  76.5691471  61.7000580  46.2321854  70.2431822   5.0747722
  46.1471272  69.3111944   5.2757543  46.9747639  70.2915764   4.4727206
  73.7891674  11.9663322  49.7015619  73.0555773  12.5641572  49.5577383
  74.5178032  12.5361729  49.9477386  57.9433107  36.1597013  54.5542145
  57.4861383  36.2717795  55.3876781  57.7365303  36.9523931  54.0591240
  71.2955904  26.0109496  70.2023935  71.0855818  26.2639427  69.3034363
  71.2963820  26.8351245  70.6891823  72.4780226  46.5400696  31.5123153
  73.2948589  46.6850805  31.9897938  71.8368006  46.3327694  32.1920848
  63.2789040  50.1922464  59.8863506  63.6862469  51.0472298  60.0253105
  62.4538326  50.2386856  60.3693962  67.0715666  23.4323239  30.3403234
  67.9054785  23.0044413  30.5346060  66.9130754  24.0012622  31.0935974
  19.7993231  19.5440733  10.9596753  19.7701383  19.8264492  10.0455403
  19.5544004  18.6191356  10.9325778  75.2485323  36.8048501  52.0778179
  75.7262897  37.3879194  51.4878941  75.4931021  37.0990038  52.9552555
  16.7441308  66.9284391  54.1806698  16.3494921  66.5574551  54.9698877
  17.3177230  67.6233530  54.5036554  41.9926786  39.7712064   2.1143781
  41.9624805  40.7256222   2.1807434  42.9263830  39.5604300   2.1159454
   2.4904217  71.3159895  63.0943203   2.6383877  71.8799686  62.3352003
   3.3063841  71.3656712  63.5922861  17.0004451   0.7820130  38.7190151
  16.6682589  -0.1127546  38.6463881  16.5669990   1.2567240  38.0097866
  57.2571325  38.3248925  41.9321394  57.2661400  38.5028076  42.8726149
  57.1656895  39.1869044  41.5261745  62.1940756  67.0643568  48.3263111
  61.9476318  66.1486483  48.1960106  61.9850016  67.2404575  49.2436504
  62.4303818  47.8467035  70.4338837  62.5378752  47.8789663  69.4832897
  63.2020617  47.3743200  70.7462931  64.4134188  25.2171707  56.0174656
  64.4005489  25.6855845  56.8521214  64.3507099  24.2933965  56.2602472
  38.7691617  79.1496515   4.4596308  39.4794750  78.9635181   5.0736678
  39.1879797  79.1403818   3.5989699  83.1910229  20.1685977  50.4712963
  83.1585789  20.9957099  49.9906063  84.1195679  20.0406075  50.6653452
  47.4979115  25.3830910  69.9823523  47.0993185  25.5062842  69.1208553
  46.9407654  24.7351289  70.4135895  53.5007381  64.8116636  13.0359197
  53.8905382  64.4680548  12.2320426  54.1298151  64.5879030  13.7217975
  78.9162064  57.6058817  40.6625652  79.4499540  58.2490206  41.1291695
  78.5236311  57.0733404  41.3543129  58.8593006  49.3296671  26.3706303
  58.4682846  50.0158119  25.8297563  58.3556700  48.5431671  26.1608481
  80.4054928  20.3349304  49.7648191  80.1380634  19.6640229  49.1366482
  81.3120079  20.1146317  49.9791431  56.6716909  29.1401291  64.4591713
  55.7688236  28.9953899  64.1761303  56.8615055  28.4036016  65.0403118
  77.6053429  20.9519625  65.1886845  76.9564819  20.6431031  64.5563698
  77.7578306  20.2006078  65.7617855  53.0384398  75.4141712  46.1495161
  53.8430214  75.0284958  45.8029270  53.1271982  75.3398895  47.0996952
  13.2752287  44.8238659  43.8425541  13.6730051  44.5141888  44.6562529
  12.4221087  45.1669788  44.1084290  18.6891353  81.8514729  55.4404402
  18.4387064  81.5861988  54.5554876  18.0599272  82.5343418  55.6728649
  38.1437612  71.1187220   0.6011910  37.9105449  72.0220280   0.3869878
  37.5714040  70.8908749   1.3338038  71.8860245  25.4752946  60.1129723
  72.7265644  25.2700806  60.5223799  71.9909811  25.2033949  59.2012262
  20.5426455  21.5524554  69.8736811  20.6299758  20.6126308  70.0328588
  20.6087995  21.6415143  68.9229298  30.9134555  59.0288258   1.7784226
  31.2493968  59.8122501   2.2138828  31.3466048  59.0249014   0.9248435
  57.0400667  32.3988128  53.4013319  57.1379042  32.8956318  52.5890303
  56.3045692  31.8093801  53.2344675  10.2632511  51.2427855  68.1008530
   9.9708110  50.8653259  68.9304495  11.2107217  51.3353968  68.2006264
  48.6647844  17.2060382  26.8097711  49.2658091  17.7580523  27.3100519
  48.8963366  17.3675203  25.8951449  77.9113674   2.8825063  30.5404258
  78.7467241   2.9789224  30.0831366  78.1543684   2.6512611  31.4369226
  74.6493673  24.7264099  61.4245939  75.0735188  25.5482078  61.6715288
  74.7645378  24.1589594  62.1868086  66.6703939  28.0631375  49.2202330
  66.5438080  27.3133636  49.8016548  65.7872105  28.3984900  49.0660954
  14.8857355  28.8075399  48.9841032  14.6102190  28.4823704  49.8411798
  15.8285344  28.9472365  49.0726805  24.7832680   0.6183388   7.6402771
  24.0054798   1.0932757   7.9330468  25.4916930   0.9591597   8.1863582
  83.5880470  37.8979397  50.7351017  83.0113792  37.3487043  50.2040386
  84.1547298  38.3350015  50.0994301  55.2432108  31.0987329   4.0948427
  55.8210611  31.0038042   3.3376706  54.8666811  30.2275729   4.2194906
  41.4568806  76.2059164  48.6835337  40.7231092  76.6103268  49.1464186
  41.1237526  75.3526688  48.4056330  20.5111194  72.1917963  52.1272421
  19.8092282  71.5751791  52.3354769  20.4513383  72.3115826  51.1794519
  33.0430174  80.2420807   3.4252566  32.3144650  79.6508503   3.2358247
  32.6269031  81.0321045   3.7701386  70.1048422  80.6736088  51.7895126
  70.5223036  80.3717709  52.5962639  70.7536793  80.5046272  51.1063671
  61.0795832  38.3185911  57.9321480  61.7746449  38.9580846  57.7766848
  61.5255308  37.4717498  57.9171801  73.7376261  50.0755882  50.9956598
  73.8139820  49.7193480  51.8808126  74.6324444  50.0666714  50.6558752
  65.2993345  17.0289695  60.3306341  66.0632420  17.0690167  60.9060287
  65.0381088  16.1081886  60.3430939  27.3210073  22.5631070  66.1604738
  26.7737794  22.7243614  65.3918600  27.5253296  21.6289663  66.1173010
  11.1547256  55.4029512   3.4372988  10.7773459  55.9391260   4.1346747
  12.0833790  55.6349325   3.4327295  16.9907117  63.3930540   8.8965440
  17.1498191  64.1233015   8.2985055  17.5143635  62.6745558   8.5418791
  10.3975034  52.2023869  30.6379247   9.7288764  52.8708220  30.4883814
   9.9423361  51.3723707  30.4960561  73.0965424   8.3930928  63.6877298
  74.0482378   8.4956205  63.6883545  72.8701305   8.2530034  64.6071577
  24.6475029  77.1927977  15.7329965  24.6127534  77.0648575  14.7850215
  23.9961386  76.5837717  16.0809112  32.6382208  82.7158356   9.0235645
  33.2111526  82.6986122   8.2569587  33.2303596  82.6064014   9.7676253
  20.3748775  61.7885828  50.0563765  19.4509578  61.9092607  49.8371935
  20.7506132  61.3643646  49.2849541  60.6666470   9.8703790   0.4486738
  60.2991581   9.4752240   1.2392660  59.9050188  10.0692749  -0.0959276
   0.8638148  21.5452170  46.6227102   1.5072292  21.3525915  45.9406948
   0.1682661  22.0206571  46.1683989  77.7182579  55.4559565  49.8464870
  78.4293604  55.6839418  50.4453182  78.0501938  54.7041845  49.3556833
  29.6349549   7.4475408  52.2529650  29.9965477   7.2841865  53.1240559
  30.3366280   7.8981310  51.7830133  84.2236423  44.6772623  52.8319931
  84.7865295  44.2075014  53.4473896  84.1778374  45.5674458  53.1808615
  76.8923569  80.7366085  55.9437370  76.1235714  81.0665607  55.4786158
  77.1182919  79.9257565  55.4879904  51.1076593  16.3886452  66.3409328
  50.3241110  16.0201681  65.9328794  51.6464806  16.6797161  65.6052780
  70.4936457  66.5015554  65.8293390  70.2727461  67.2847700  65.3253460
  69.7179842  65.9450626  65.7593966   3.2976800  63.9853048  51.4477777
   3.7779397  64.5901585  52.0132256   3.8531035  63.8883924  50.6742525
  85.3190422  31.8831658  14.6333539  85.5840683  31.1480379  14.0805578
  84.5414829  31.5681505  15.0942218   4.6493250  47.7337408  52.2202730
   4.4284832  48.6603928  52.3139286   4.5314509  47.5524807  51.2878132
  85.4274750  47.4811077  32.3763776  84.8948002  47.8872108  31.6925883
  85.1498413  47.9128075  33.1843281  10.5130339  47.9510260  69.0697479
  11.1636949  47.3938608  69.4968796  10.9640372  48.2997274  68.3008289
  48.5052252  39.3255520  52.4071217  47.7958393  39.4089007  53.0443430
  48.4172678  38.4356022  52.0658255   2.7813476  45.1126814  45.5872679
   2.1000871  44.5463181  45.9496880   2.5200975  45.2489471  44.6765471
  60.8402872  29.4512415  48.8399887  60.3692913  30.2727413  48.9797354
  60.4951429  29.1149735  48.0129242  55.9437323  73.1466627  13.8507712
  56.6206169  72.8797245  13.2288361  55.1214743  73.0285358  13.3751953
  68.2175016  44.8511505  49.4088125  67.8939629  44.7867584  50.3073740
  68.8332176  44.1232777  49.3232107  42.1683979  27.3257780  48.2358027
  42.3565960  28.1210160  47.7373981  41.3100672  27.4863434  48.6278725
  20.2093625  18.4855676  17.9126668  20.8422446  18.3958697  18.6251593
  20.6480742  18.1026113  17.1529901  53.2639885  34.9010587  61.6820765
  52.8837824  34.1117477  62.0676422  54.1583252  34.6486115  61.4525795
  75.9760952  23.6717391  55.4086065  75.0901699  23.3682752  55.2104187
  76.1417246  23.3621240  56.2990761  70.7004356  73.6366129   5.6732112
  71.2236166  73.7961054   6.4587528  70.4242039  72.7234221   5.7507479
  67.0143461  50.6406069  54.3717766  66.6553974  51.2495947  53.7263966
  66.4687777  49.8581457  54.2921019  29.7433591  14.9924326   4.7563317
  30.4058146  15.6262815   4.4813368  29.0126610  15.1332033   4.1542563
  61.6148233  51.0056019  47.4780798  61.2241459  51.4734983  46.7400551
  61.8277693  51.6915178  48.1108522   8.5111117  16.0113108  57.9614353
   8.8857269  15.1306581  57.9800415   8.7415910  16.3876295  58.8108444
  10.0065994  70.6609344   0.7489431  10.7330227  71.2584734   0.5714794
   9.7319764  70.8758640   1.6403586  54.1060352  12.2753310  41.5369225
  54.6286154  11.9859576  40.7889891  53.7598562  13.1274712  41.2718821
  61.8709612  13.8912928  43.7262201  61.7583227  14.4821799  42.9816437
  62.8170633  13.8633752  43.8688517  43.7969255  38.1690741  50.8299828
  44.3043089  37.5109863  50.3548908  43.7265730  37.8213835  51.7190266
  21.9396091  73.0414629  37.7222753  21.0018492  72.8565693  37.7737570
  22.1194029  73.1084204  36.7844987  13.9373004  35.1256609  50.6400251
  14.8369181  35.1791811  50.9626007  13.4773660  34.6048689  51.2984085
  79.6312666  31.5916991  16.1521971  79.9352789  31.1542201  15.3569472
  79.2305708  30.8941984  16.6710091  42.4958277  78.2437754  42.5347900
  41.6160011  78.5723257  42.7197027  42.4065542  77.2911596  42.5627708
  77.8897285  54.0358686  41.2127972  77.3619318  54.6361780  41.7393875
  77.2514296  53.4511900  40.8041954   7.1641904  70.6996012   8.2566512
   6.5508676  70.8358955   8.9787942   8.0275261  70.7134819   8.6697984
  57.9868174  38.7094045  53.8335466  58.3504486  38.8527322  54.7073078
  57.7453566  39.5838737  53.5282040  82.9503918  67.6812029  51.7353106
  82.7893066  67.6455450  50.7924366  83.8158989  68.0820894  51.8154335
  79.6073294  60.2365637  41.6818237  79.2731762  60.1710606  42.5764084
  80.4748917  60.6293154  41.7783689  82.9985523   3.8342285  44.4114256
  82.1655655   3.4130245  44.6234369  83.4755039   3.1789505  43.9021540
  80.1788330  31.1493731  35.3887868  79.9031210  31.7850924  34.7284269
  79.7457600  31.4361095  36.1928153  64.1872358  50.4650736  10.1561952
  63.9614820  49.5920277   9.8351598  65.1443291  50.4788303  10.1598930
  67.5466204  46.6166449   1.0204019  67.8442907  47.5118017   0.8581717
  67.0937300  46.6637278   1.8623680  58.4988260  20.9972763  28.1206203
  59.3396425  21.4237046  28.2862067  57.8463125  21.6679406  28.3222771
   2.8664210  29.9383664  64.9844742   2.6629704  30.1782322  65.8885241
   2.3022945  30.5015087  64.4545078  69.5075130  34.8899007  43.6098623
  68.9969778  35.6124663  43.2445097  68.8592005  34.2133164  43.8052034
  76.1579466  30.4519439  54.8509502  75.8211946  30.3357124  55.7393885
  76.9619179  29.9328947  54.8297310  74.7919035  18.9572060  70.9031343
  75.0698423  19.8344243  70.6395578  74.2103624  19.1042399  71.6490698
  82.0852089  59.0722466  49.7723866  82.8599262  58.8925457  49.2397070
  81.6064262  58.2435036  49.7860289  55.6450605  60.7059383  45.4451704
  55.1038408  61.4583111  45.2058935  55.6175137  60.1368046  44.6760416
  10.9709394  70.5507374  48.8978720  10.5148017  70.3199959  48.0885983
  11.3729179  69.7319317  49.1880512  66.7920494  15.7110250  45.9076595
  67.1116400  16.6129029  45.9343004  67.5839567  15.1749635  45.9495020
  61.0574102  46.9157648  48.1084538  60.3632069  46.7679405  47.4662256
  60.9289694  47.8196001  48.3962297  86.8715477  70.3211880  48.2098770
  87.2067833  70.4159021  47.3183203  86.4039040  69.4860315  48.2024670
  56.9794369  60.4116249   9.3501526  56.2780046  60.6386662   9.9606258
  57.7145767  60.9652662   9.6133757  53.4811258  22.1679544  67.4702883
  54.3322277  22.1815228  67.0324755  53.6685133  21.8348956  68.3478928
  47.1011591  59.7223806  29.2603230  46.8948078  60.2549314  30.0284648
  46.3703203  59.1080856  29.1914248  17.9094088  63.4108543  71.1799669
  17.2333229  63.5420179  70.5151844  18.6488843  63.0387831  70.6993723
  57.5031137  39.9627256  11.1174119  56.7605400  39.7170901  10.5656147
  58.1930161  39.3430018  10.8803332  42.8934574  67.3518848  26.4806676
  42.7751923  68.1847620  26.0239863  43.0654907  66.7188358  25.7836080
  83.8225079  46.2341070  68.6609173  84.1201973  46.5728569  69.5052242
  83.9119244  46.9744492  68.0608130  55.0330496  48.6603546  17.7739537
  54.8673296  47.7195215  17.8339553  55.6322289  48.7512350  17.0330369
  31.5600204  82.7280235  37.4471712  31.1572027  82.1025085  36.8449283
  31.8185019  82.2004795  38.2028937  71.3039827  28.1057477  13.6973214
  72.1697760  28.0581880  13.2918918  71.1213779  27.2090387  13.9780402
  49.6464586  64.0719175  33.9106965  48.9548349  63.5242414  33.5392976
  50.3749895  63.9876461  33.2955742  69.4548464  76.0679007  17.2509241
  69.3736219  77.0165491  17.1524298  69.9389029  75.7870483  16.4743650
  68.2414675   4.1195500  11.5873361  67.9106903   5.0177729  11.5908039
  68.9999819   4.1413897  12.1707880  47.9614687  11.5006196  34.8852658
  47.9278088  11.7823911  33.9710951  47.4744892  10.6766880  34.9000239
  74.2079020  52.5899315  47.9699945  74.6619225  53.3993673  47.7356720
  73.4438086  52.8795910  48.4684849  44.7065735  36.3080812  16.4860773
  45.3968859  36.9688630  16.4306927  44.6091890  36.1414433  17.4236178
  83.3459663  46.7041492  58.1858587  83.9139843  47.0836067  57.5153351
  83.8134575  45.9230471  58.4817648  67.9704618  57.1008825  46.8193913
  68.7586212  56.9306421  47.3351955  68.2973480  57.3092031  45.9441853
  70.7841577  62.5812095  71.8762512  71.1150970  63.0341357  71.1006428
  69.8894920  62.3319715  71.6445544  56.1673307  72.2898436  63.4243727
  56.1169052  71.7652893  62.6252890  56.0586357  73.1926632  63.1254816
  86.6245270  60.0111437  70.0338125  85.8613014  59.5017719  70.3063202
  86.2625313  60.7171488  69.4983244   4.4542292  79.3215609  67.5114536
   4.0102166  80.1682949  67.5575638   4.0848517  78.8993406  66.7358780
  30.4537678  82.0258713   1.8227515  29.7971225  81.6848946   1.2154761
  31.2579012  82.0709133   1.3054775  51.6428757  51.8305159  65.7773209
  51.0517502  51.5969038  66.4930201  51.2951279  51.3637733  65.0174189
  84.4932365  14.1284251  26.4434123  85.4215717  14.3544447  26.5011048
  84.0365124  14.9116433  26.7503524  78.2448292  38.5964513  62.3943567
  78.5754108  39.2611694  61.7901230  77.5343990  38.1695843  61.9155025
  26.1395741  68.8215351   1.7436776  26.6055012  69.0241289   0.9324431
  25.5335045  68.1207657   1.5031886   6.7021793  42.9060555  64.0286493
   7.3856771  42.6384497  63.4142780   7.0923042  42.7751017  64.8928738
   9.6878374  37.5653315  56.5360975   9.0815008  37.5863624  55.7957315
  10.5370247  37.7915835  56.1567259  43.2930660  17.5356543  23.4763575
  44.1966867  17.5604749  23.1615806  42.7681255  17.7915156  22.7179313
  35.3751254  11.7748952  66.6514874  36.0112906  11.0949218  66.8732119
  35.5013537  11.9246268  65.7145357  33.0653954  13.9022613   0.9829383
  32.5225306  14.4576526   0.4234115  33.7902784  13.6307383   0.4198650
  23.2621574  56.2192488  52.9708529  23.1789804  55.5782747  53.6768723
  22.3738623  56.5525579  52.8440809  74.0320444  67.6094389  56.6893244
  74.6308661  67.4325132  57.4148178  74.4989586  68.2407427  56.1418915
  60.2411699  22.0163918  14.2646170  60.8167505  22.1415997  13.5101211
  59.4649458  21.5869546  13.9050555  24.4882727   5.4429597  64.4779348
  24.6412587   6.2415040  64.9830627  24.0177965   5.7389396  63.6986542
  13.6099768  46.6278601  65.4483175  12.7121174  46.5903616  65.7779789
  13.5656202  47.2227287  64.6997261  82.3518562  47.3522711   9.2924124
  82.0324039  46.5934515   9.7806549  83.0463123  47.7156019   9.8419076
  27.5274086  66.3975334   8.1500423  26.7414927  65.8995056   7.9252392
  27.4192977  67.2333336   7.6961911  74.7625494  68.1615925  44.6239185
  73.9741659  67.7481127  44.9756527  74.7349596  67.9710531  43.6862803
  79.9416828  70.0071859  54.0448809  79.1219044  69.5135784  54.0683651
  79.7653246  70.7362509  53.4502411  75.7033396  56.7114305  51.1777115
  75.9431744  57.4272299  51.7662239  76.5151167  56.4970922  50.7180262
  35.9391117  68.2220221  28.4195018  35.3643394  67.5326967  28.7522173
  35.4341054  69.0279293  28.5277200  59.3281794  59.7357035  66.4463949
  59.8182917  59.9929523  65.6654692  59.4877100  60.4417801  67.0726824
  12.5389624  13.9314067  11.2580001  12.4297535  13.4008980  10.4687810
  13.2412529  13.4978020  11.7427766  82.7247143  39.3425035  55.5766392
  82.5656509  40.2765560  55.7125473  83.3647060  39.3095040  54.8656130
   2.3402184  45.5932188  61.3926125   2.6254368  46.1935186  60.7037544
   3.1526896  45.2318048  61.7468691  80.6369209  53.8866949  40.0411892
  79.7600460  54.0844917  40.3701258  81.2262058  54.3495226  40.6368065
  75.5342150   8.1498981  23.7361622  76.2507629   8.1173092  24.3699861
  75.6226826   9.0066069  23.3184838  80.7578850  42.8251362  61.1185360
  81.4397049  43.2393694  61.6474676  79.9585199  43.3018160  61.3422012
  80.1835346  35.1435471  37.5308275  80.0195026  35.7392907  36.7997909
  79.5673370  35.4209423  38.2087564  87.4749565  19.9318326  32.9584169
  87.5776482  20.8687472  32.7914524  86.6180706  19.7155285  32.5907207
  53.3785439  19.1806376  13.3192146  53.0606127  18.7506402  12.5253308
  53.9355421  18.5255551  13.7397504  78.7854290  82.4143124  43.2919693
  79.5135260  82.1580124  42.7259159  78.2235384  81.6400814  43.3247995
  70.2240419  46.9484520  47.4166775  70.7320547  46.5062284  48.0968237
  70.3228235  46.3920736  46.6440725  70.3563404  50.2409410  41.2391281
  70.4269266  50.7349253  40.4222870  71.2626362  50.1011419  41.5135670
  46.6296482  11.7286730  27.4369335  46.4099741  11.1888719  28.1962681
  45.9222603  11.5641582  26.8134165  70.3640890  68.9041042  59.0901899
  70.3753281  69.8595572  59.1468668  71.0615253  68.6927605  58.4695816
   3.9321947  12.1578193  42.5909901   4.2352766  11.3697803  42.1400261
   3.7946418  12.7962887  41.8912268  31.4744759  77.0309782   4.7248924
  32.4058175  77.2342777   4.6382836  31.0436463  77.6085091   4.0947527
  30.1767850   7.4930078  31.3221979  31.1256671   7.6067060  31.2680984
  29.8470950   8.3526540  31.5840101   2.6948866  66.1788845  48.0816650
   2.8326976  67.1035242  48.2872868   2.0375103  66.1836386  47.3859167
  76.1853361  43.0837631   8.5508305  76.9178963  43.1450367   9.1638803
  76.4542627  42.4136162   7.9224896  80.8692265  12.7183580  33.2410192
  80.2101231  12.0304561  33.3337736  80.3781700  13.5346985  33.3342052
  49.2067575   8.0032182   7.1801978  48.7462902   7.1641189   7.1694636
  49.7342396   7.9767656   7.9785061   0.7178847  64.3620825  15.7814455
   0.7892444  63.9180756  14.9364626   1.4784124  64.0579891  16.2767816
   5.9600490  48.9353132  54.8747635   6.4744818  48.1281137  54.8794079
   5.6066382  48.9889908  53.9868164   8.1532359  59.6936989  67.4407053
   8.9543414  60.0919151  67.7811289   7.9600656  60.1877260  66.6439295
  83.6078167  63.4995985  56.6805649  84.0567112  64.0211344  56.0151863
  82.7457809  63.3219481  56.3043165  76.1172628  40.1298809  33.9638090
  76.2311125  40.6966257  33.2008743  76.9011307  39.5806170  33.9732623
  31.2654185  71.3328123  60.7576704  31.2950230  72.2895479  60.7606459
  30.7860756  71.1104965  59.9595261  70.8983326  12.0835757   0.2846420
  71.0086441  12.3028409  -0.6405532  71.7893028  12.0636284   0.6339425
  79.0457821  60.7955980  65.5314445  79.6024752  61.5274143  65.7974720
  78.8802862  60.3136587  66.3417387  58.4130478  44.6803045  54.8894501
  58.4258795  43.7823915  55.2208471  57.5479650  45.0120211  55.1299191
  78.0852842  68.2988024  52.9176664  78.5840845  67.6427984  52.4307537
  77.6572847  68.8244629  52.2418499  28.3344555  80.3302288  57.2491217
  28.6967778  79.7179031  56.6088057  27.5358224  80.6615257  56.8384409
  -0.0738053   0.3175895  18.7951469   0.7202144   0.3554408  18.2619154
  -0.2811103  -0.6152661  18.8501859  43.6400414  23.3458352  12.6751530
  43.6288452  22.8090096  11.8827355  44.5388985  23.2786536  12.9972851
  52.7188873  40.6135654  49.4278049  52.1664190  41.2860012  49.8263454
  52.2183323  39.8035336  49.5253849  53.6920547  23.2557845   4.9705210
  53.0610800  22.6248360   5.3169399  54.5418072  22.9355216   5.2731597
  60.1841593  35.4342365   2.4889134  59.2609835  35.2159739   2.3610869
  60.2875662  35.4909348   3.4388208  59.4328785  42.7731466  56.7561293
  59.5677471  42.1821976  57.4969578  58.9078617  43.4892941  57.1135092
   2.3455253  20.6705046  50.9954453   3.0542633  20.3550506  50.4347181
   1.8781880  21.3076329  50.4551697  31.7224193  72.6349878  10.1775956
  31.0005498  72.3438263  10.7346940  31.3891387  73.4211874   9.7451097
  56.2980080  52.2646189  54.1038895  55.8870697  52.5990152  53.3066797
  56.1203384  52.9345655  54.7640657  85.9780025  43.2386637  54.4297266
  86.4618206  42.6364565  53.8644886  86.6508579  43.6526871  54.9701595
   1.8556134  32.6589108  53.5238123   2.2596177  31.7950034  53.6055183
   0.9166223  32.4931026  53.6076880  17.2380662  56.7298508  52.3068047
  17.7078557  56.3170290  51.5821648  17.4048436  57.6661015  52.1979332
  70.3932333  55.1406479  59.2590857  69.6202564  55.1830673  59.8220587
  70.1516151  54.5257568  58.5664368   8.3134228  18.4324050  17.9401481
   8.5832256  17.7503276  17.3251605   9.1342211  18.8242579  18.2384324
  81.6842461  26.5195966  30.5152202  81.0609913  26.3207674  31.2139750
  81.2786007  26.1645079  29.7242737  21.0133195  41.5793324  35.5008125
  20.9364319  41.6651487  36.4510536  20.6451273  42.3929405  35.1562738
  85.7034397  52.8672552  65.2392817  86.4013958  52.8259897  65.8930302
  84.8948860  52.8636265  65.7515907  78.0454397  56.2519646  61.3874054
  78.4283638  56.5551567  60.5641937  77.1008444  56.3362932  61.2575769
  58.2106590  35.8116364  58.3080196  59.0294170  36.2814903  58.4664583
  57.5286388  36.4732838  58.4233522   1.3340348  80.2153397  44.4528103
   0.7095701  80.8705807  44.7641563   1.6982652  79.8331785  45.2512598
  11.7904711  56.4923143  67.9454947  11.7353868  57.4478340  67.9319048
  11.2597752  56.2111855  67.2001362   5.7560199  47.0364237  63.8526773
   5.5913067  46.7535830  62.9531765   6.5293080  47.5970411  63.7896681
  18.7568307   5.6756729  58.9863014  19.5013309   5.1311260  59.2420721
  19.1527104   6.4769769  58.6436272   8.0808586  19.9098551  67.6392269
   7.4415505  19.5858526  67.0047665   7.6560414  19.7919512  68.4888506
  67.3046684  23.6595702  27.5644827  67.4449825  24.5650744  27.2876978
  67.2141743  23.7112546  28.5159922  38.2743645  67.6958418   6.6364777
  38.5329700  68.5863209   6.3989925  38.5245228  67.6111031   7.5565165
  76.0153866  31.2397194  64.5336199  76.8816233  31.5976882  64.3394041
  75.7815361  30.7405758  63.7510586  54.1067553  11.2498164   1.5476096
  53.3801794  10.6289494   1.4942929  54.5769119  11.1398458   0.7211153
  30.1702499  50.6076145  24.1258287  29.6063232  50.1898241  24.7767305
  31.0595250  50.3844404  24.4008112  19.1686451  40.2660894  51.1847448
  19.9856842  40.7440138  51.0423851  19.4232106  39.3437052  51.1595964
   1.3282633  74.6055222  33.0108929   0.4441942  74.3373489  33.2613683
   1.5176156  74.0986872  32.2212744   4.1690254  46.7313147  57.5928736
   3.6550784  46.4853525  56.8237209   4.4166726  45.8973598  57.9921484
  65.7939959  77.1150684  23.7654352  66.1162996  78.0160189  23.7909102
  66.1580467  76.7532158  22.9574990  69.6529770  61.9767857  67.3378134
  68.7432003  61.8969870  67.6244688  70.0905561  61.2131977  67.7142429
  84.5006371  57.3674631  44.1849709  84.7440624  57.0232010  43.3256340
  84.3104553  58.2922506  44.0274048  21.5019655  25.4801536  30.8909440
  20.8730054  26.0966086  30.5159426  20.9608340  24.7979951  31.2885189
  74.4552565  76.0988092  60.4255247  73.6250782  76.5568256  60.5569077
  75.0844955  76.5862846  60.9571791  41.0684824  77.7809429   5.7349157
  41.0760069  77.0442533   5.1237977  41.7574787  78.3638191   5.4159081
  54.2019463  73.0853081  70.1752186  53.6435890  73.0395555  69.3990898
  53.6060762  73.3242512  70.8852005  46.5526152  63.3493853  63.5656738
  46.9326544  62.6827240  62.9935169  46.3196421  64.0665197  62.9760361
  15.8151317  65.5606365  23.6738348  15.9650874  66.5060091  23.6782765
  16.6893983  65.1798391  23.5908675  34.1985226   9.0157485  22.5955844
  33.7700868   9.8546237  22.4253964  35.0542617   9.2521060  22.9534626
  71.8091202  40.4383516  66.7056561  72.0880604  39.9108744  65.9571981
  72.2450018  40.0368786  67.4573612  83.4661293   5.3910720  69.7119331
  84.3073273   5.7743394  69.4635105  82.9043770   6.1442590  69.8946285
  82.6511383  42.7881145  51.3104200  82.0635414  42.2923565  51.8806744
  83.4509945  42.8947687  51.8252897   2.3917766  63.3905745  33.6780500
   1.7622980  62.8398705  33.2125282   1.9332695  64.2206097  33.8086033
  10.6415820  23.1971526  36.6251063  10.0122392  23.5419965  37.2585440
  11.3545537  23.8358259  36.6238451  25.4504776   1.3483095  66.3289452
  26.2411880   1.8657225  66.4815664  24.9987006   1.8049510  65.6192923
  53.0244303  66.7295170  45.4848766  53.0922651  67.4687004  44.8805285
  53.9185095  66.5938330  45.7986259  17.0737493   5.2311850  49.1327620
  17.1398580   4.4359094  48.6041832  16.4770675   5.7961577  48.6418343
  70.0606441  80.1282024  62.4720812  69.8350334  80.9858990  62.1119642
  70.0481033  80.2558708  63.4206486  58.6099768  41.9245481  51.4047527
  58.2321262  42.7761316  51.1850643  59.4982052  42.1254873  51.6995478
  37.0870852  13.5418057  34.4924879  37.9503655  13.6048329  34.0838265
  36.8680024  14.4429064  34.7296643  28.7019944  15.5348933  27.7622557
  29.0712714  14.8768449  28.3511877  28.4993148  16.2780678  28.3304501
  14.9262524   0.4069176  59.2711687  14.5674515  -0.4804792  59.2666674
  14.2159891   0.9541494  58.9360619  19.9596274  28.3018541  37.8728485
  19.2101860  28.8972187  37.8622770  20.7008386  28.8450551  37.6049495
  29.4776917  27.7830219   1.7786600  29.1481876  26.8957901   1.6355510
  30.0063372  27.9702115   1.0029505  63.5954142   7.5352955  23.1449080
  64.4046354   7.5904042  23.6532021  62.9895687   8.1243825  23.5945272
  74.4934464  46.3305044  45.8528805  74.7202301  47.2602558  45.8339739
  75.1882505  45.9249926  46.3715696  61.6525459  16.6841364   5.7237071
  62.4027681  17.2515059   5.9011608  61.1833096  17.1225345   5.0138807
  46.0160303  68.5368824  53.2373810  46.9265413  68.7541199  53.4374142
  45.5685568  69.3825912  53.2096148  36.2043762  71.5353060  64.8971987
  36.0740829  71.8319511  65.7978964  35.4357600  70.9968090  64.7088337
  78.9514112  18.9225829  30.8552051  78.5862923  19.5277071  31.5007639
  78.3375692  18.9560640  30.1215076  63.6604404  31.6940975  40.5061674
  62.7862167  31.5971923  40.1285839  64.2349434  31.8198013  39.7509313
  75.7940388  76.8273306  41.7170334  75.9134817  75.8835363  41.8229342
  75.1300812  76.9093990  41.0324430  63.7035799  73.0339146  20.4662919
  63.2491016  72.2069216  20.6267977  63.6132526  73.1779528  19.5243132
   4.6287140  31.7989683  49.5981503   3.7929612  31.3359833  49.6563959
   5.2514219  31.1333179  49.3059587  51.2635899   6.3553095  23.9707732
  51.6611814   6.8339145  23.2433867  50.4727745   5.9660196  23.5975480
  41.2335062  58.2201624  12.3045158  40.8215523  58.7557697  12.9824901
  41.6730070  58.8513756  11.7347455  20.7512879  22.9384804  36.6263652
  21.4296603  22.2668791  36.6970277  20.3039598  22.9170156  37.4723363
  65.5422449  14.3213511  61.0977125  64.9355412  14.6457291  61.7632341
  65.2814627  13.4108222  60.9592867  85.9035301   2.0311312  26.2490702
  86.6807652   2.4845818  25.9227014  86.1279678   1.7871410  27.1470284
  42.9921865  65.5512905  28.7317348  42.8285122  66.3917017  28.3037710
  43.0555153  64.9240446  28.0114698  44.4066525  63.5168695  66.6034937
  44.1269732  62.6611614  66.9287205  43.7945747  63.7155199  65.8948803
  75.5519438  20.6054258   2.1182121  74.6018696  20.6662488   2.2176498
  75.8779812  21.4580536   2.4062312  86.5784073  31.5301919  50.7161856
  86.0238361  30.9967875  50.1468372  85.9956455  32.2144556  51.0454321
  14.7189260  47.1625280  53.4206152  15.3581738  46.7246723  52.8585863
  15.1555693  47.2340918  54.2694139  75.4102802  40.0425386  68.0258751
  75.9584045  40.7573223  67.7020216  74.6129131  40.4729986  68.3343220
  20.2815652  61.8475914  60.0774574  19.6741354  61.1967468  60.4291201
  20.5577064  62.3546314  60.8409262  73.7099075  54.7776031  37.6705027
  74.0686750  54.2021704  36.9949341  74.2946577  55.5354166  37.6749134
  70.0231504  33.6790013  61.9695425  69.2755747  33.7301207  62.5651503
  70.6036949  34.3854308  62.2526646  38.0208564  78.8605022  11.5511227
  37.2435999  78.4355831  11.1884248  38.0632234  79.7051811  11.1028481
  79.4607639  67.6226187  14.9208975  78.7516117  68.1268883  15.3197074
  79.1282701  66.7255878  14.8890328  34.2749238  47.2470427  62.4171686
  33.6076236  47.9287529  62.3383379  34.3563700  46.8882751  61.5334892
  12.5676632  10.5527389  33.5959029  11.7191839  10.1317966  33.7341881
  12.7605367  10.4044783  32.6701307  59.3732977   4.2421982   8.5374999
  59.8370409   3.4322047   8.7498307  59.6746445   4.8699376   9.1942823
  55.4076576  35.4323506  67.5842619  55.2501488  35.7139206  66.6830730
  56.2078428  34.9093342  67.5353909  67.0615101  62.4786139  47.9137897
  67.0070028  61.5900421  48.2655001  66.5587664  63.0113506  48.5299635
  57.5393963   3.3561862  20.8989382  57.9511166   2.7950856  21.5561199
  57.3293924   4.1625056  21.3700843  73.6162615  36.0791850  46.2713766
  73.4358072  36.9807887  46.5374231  73.0691910  35.5453849  46.8475771
  31.8300605  12.6805902  66.2510872  31.5889955  13.3446014  66.8970060
  32.3039484  12.0181906  66.7539692  54.6281290  28.7923717  69.1970015
  54.1846085  28.8661814  70.0420284  54.3723106  29.5832515  68.7223434
  56.1033773  63.5022640  62.2103977  55.3453588  63.4938240  62.7948427
  55.8400917  62.9573631  61.4687824  42.0394850  70.0092363  38.4604621
  41.8305063  70.9359789  38.3433723  42.4451971  69.7488594  37.6335192
  36.3780642  11.8100965  10.2602577  35.6996751  11.5159643   9.6523869
  35.9621859  12.5108695  10.7624483  39.2016220  20.9822392  17.1627760
  38.3483672  20.5681753  17.0333982  39.6087074  20.4771280  17.8666067
  26.8108726  27.9792809  65.3206444  25.8784628  28.1751060  65.2284861
  27.2513223  28.6781096  64.8370409  62.1384573  50.2881527  28.5529280
  62.1577358  50.8134985  29.3528461  61.2804317  49.8640442  28.5655355
  63.3302021  59.8239565  50.4767513  62.6483727  60.4955578  50.4938364
  63.5727119  59.7054338  51.3951063   0.5313841  65.5857134  71.1266851
   0.5328040  66.5153837  70.8987761   0.7298030  65.5683231  72.0629311
  79.5153141  21.8893480  59.3619967  78.8361979  22.0801187  58.7149715
  79.8247766  22.7497339  59.6451950  49.1288519  64.0729332  51.4037466
  49.2225838  64.8979425  51.8799925  48.2648659  64.1288471  50.9955406
  35.3055763  34.4852781  11.3451254  35.6325483  34.9066401  10.5502820
  34.4080877  34.8058867  11.4343250  13.7313700  71.2915850   3.5689124
  14.5559728  70.8377743   3.3947954  13.6395311  71.9084883   2.8428069
   4.1625696  34.8614621  28.1103611   3.3253109  34.3994260  28.1522298
   3.9229709  35.7857561  28.0432343  25.0351143  73.2590151  24.2642307
  24.6746230  72.7998781  25.0228310  25.7243562  72.6798630  23.9390206
  16.5303373  10.9771264   3.1315804  16.8483937  10.0791287   3.2246971
  16.4332926  11.1001408   2.1872914   2.4215059  65.5281544  67.5534344
   2.7591434  65.9375715  68.3500576   2.5946170  64.5942640  67.6722383
  53.4424877   9.3519223   7.0603526  54.3633938   9.5044839   7.2722292
  53.1559134   8.6961800   7.6960480  78.8095665  52.9043388  55.9225178
  79.5243645  53.1359005  55.3294945  78.2013273  52.4024105  55.3799868
  80.6794357  24.1364741   8.3556217  80.9715748  23.8732457   7.4829262
  79.9307394  24.7106957   8.1944972  33.6899018  59.4947147  39.2575955
  33.4241009  58.7649441  39.8170710  34.6467042  59.4756079  39.2774558
   2.7482271  78.2176447  59.9301720   2.0178868  78.8363600  59.9252748
   2.4439952  77.4922991  60.4756546  60.1220417  73.0100346  69.8963356
  60.5852556  73.5190964  69.2311144  60.8142281  72.6734495  70.4653883
  26.3790059  74.9544668   1.2485137  26.6704774  74.1427565   1.6637276
  27.0493269  75.5968094   1.4815313  15.7422578  66.6973257  48.6675215
  16.1941385  67.0523977  49.4329977  15.9929597  65.7737350  48.6484385
  50.5250120  70.9938812   0.5047142  51.3229561  71.4663506   0.2674679
  50.5414724  70.2071714  -0.0403018  84.1804123   3.6793944  54.1604471
  83.2689953   3.4591672  53.9679623  84.5195580   4.0348473  53.3389473
  52.2249842  66.1322927  58.3343220  51.3733292  65.8581972  57.9940462
  52.1403503  66.0522270  59.2844009  62.0839673  12.4968129  -0.0963516
  61.7227995  11.6375190   0.1213675  61.3765156  13.1108266   0.1004534
  86.7600536  34.6634078  38.5560870  86.6994381  33.7686133  38.2215691
  85.9563923  35.0868702  38.2543540  30.7023501   8.5169560  12.9936099
  31.4605832   8.4774458  13.5764921  30.0652313   9.0533328  13.4654284
  56.1266661  18.6459839   5.4503065  56.8565989  18.4782100   6.0463589
  56.4865637  18.4816897   4.5786917   4.8878759  64.8443842  65.2234602
   4.0394157  65.0566435  64.8344994   5.1040542  65.6082964  65.7581902
  33.9068890  70.1950550  64.5336533  33.7630010  69.5015764  65.1775551
  33.1268787  70.1727533  63.9792871  54.3683672   3.6371458  55.5705166
  54.4897604   3.9098096  54.6610403  55.1652765   3.9256001  56.0154486
   3.4023166  69.0177774  42.7988672   4.1800892  69.3408632  42.3439837
   2.7097794  69.0458584  42.1386862  50.8125639   1.8687107   3.9877161
  50.7534552   0.9633408   3.6826858  51.4745712   2.2687010   3.4238175
  25.4708743  22.3173261  36.6953230  24.7712302  22.1007967  36.0790062
  26.0423779  21.5494919  36.6882968  46.8260241   1.9284381  42.8141117
  46.8665552   1.5772316  41.9245958  47.7303457   1.8953750  43.1261063
  52.0494175  38.4586287   8.6776352  51.3992214  37.8252864   8.9815360
  51.5452099  39.2523241   8.4985912  81.9062805  42.0015526  19.4831419
  82.5945663  41.4805412  19.8967111  82.3664951  42.5355625  18.8356328
  23.7873220  59.7599363  70.1032782  24.5753002  59.8623848  69.5695877
  24.0878320  59.3029404  70.8888245  46.9042635   7.5061315  23.5141730
  47.1993780   7.7606684  22.6399016  46.0562134   7.9382032  23.6159348
  40.2476358  73.5191488  27.7947664  39.3902111  73.8763905  27.5635958
  40.3032351  73.6253691  28.7444282  65.7682037  52.2581339  52.4675417
  65.2240515  51.8851042  51.7740154  66.6535616  52.2576618  52.1037006
  22.8694725  76.2140179  32.9168677  22.8230977  76.8194103  32.1768832
  21.9576049  76.0834980  33.1770539  48.4090614  80.5448437  61.9080448
  47.6422548  81.1048698  61.7871666  48.5227203  80.4959679  62.8572178
  20.3871202  62.2040129  28.2085919  19.5508027  62.0967531  28.6616921
  20.3987026  63.1231403  27.9415703  79.9873304  35.9183836  44.9821234
  80.5707550  35.2010703  45.2297163  79.8935747  36.4374495  45.7808781
  68.5100365  33.4447956  51.1701202  68.4993505  34.3316245  51.5301991
  67.7174520  33.0356860  51.5174913  57.8188610  21.4543796  17.5361657
  58.4998369  20.9038854  17.9227626  58.1501245  22.3473859  17.6312351
  85.4418850  63.6332369  67.1938515  84.6699619  63.3512688  67.6846313
  85.3361702  64.5803833  67.1046114  66.3071775   6.6323930  25.3111124
  66.7586756   7.1066576  24.6129346  66.3559771   7.2165316  26.0678363
  37.4622178   1.6203393  23.8132024  38.4062767   1.6644980  23.9649677
  37.0806789   2.1307880  24.5274162  54.1413069  41.7757273  11.5780568
  53.6518049  42.3118019  12.2019494  53.9998579  42.2024202  10.7329774
  17.7319074  74.0310478  53.0195284  18.6248970  73.7795305  53.2551956
  17.5021136  73.4484386  52.2956514  22.1226954  69.0047455  38.0862021
  22.3316503  68.0892992  37.9003692  21.5877795  69.2839241  37.3431325
  15.3284991  51.0341740  27.5203395  16.1283064  50.6264257  27.8524256
  14.7799945  51.1521482  28.2958770  85.4926395  14.3795681   7.8408307
  85.9418774  14.6440828   7.0380557  84.7404766  14.9686587   7.8996056
   5.6696552  59.3577671  41.2024689   4.9594918  59.5561695  40.5921125
   5.7432556  60.1414156  41.7471790  34.1734600  18.9459252  46.2696552
  34.3737340  18.3829975  47.0174742  33.4030080  18.5448146  45.8674812
  30.6885767  19.7992468   9.7060817  30.6105185  20.7023263   9.3985313
  29.9036527  19.3641627   9.3731755   1.6867846  33.1266499  15.5091691
   2.1559802  33.1117916  16.3433552   1.9461113  32.3144794  15.0740123
  21.1528063  65.5196762  55.5761194  20.7705283  65.9685755  54.8220730
  20.4933572  65.6041336  56.2647581  15.4987526  69.4566917  68.3698320
  15.6045353  70.0801659  69.0883875  15.8242595  69.9218988  67.5992060
   1.8140714  48.8844347  50.3099012   1.5078607  48.0958033  50.7577038
   2.1017484  49.4639826  51.0153008  59.3963242  11.4685273  41.7020798
  60.1647758  11.2321877  41.1826038  59.7444344  11.6529858  42.5744438
  62.8702450  12.9105902  18.4113836  63.4846973  12.6219678  17.7365661
  62.0408487  13.0243182  17.9472733  73.7730455  34.9484873  37.2186852
  73.4754896  35.5436134  36.5305591  73.8824511  34.1066384  36.7764711
  13.8759661  50.5953932  44.3680525  13.0195701  50.8048582  44.7408009
  13.7500668  50.6695461  43.4220695  35.7725596  65.6428003  31.9677138
  35.9541202  64.7043753  31.9164705  36.4978290  66.0531425  31.4967203
  38.4632230  67.5428820  57.3469782  38.6503553  68.4083176  56.9833374
  37.5076675  67.4995422  57.3825502   8.5248190  73.4952354  51.2623024
   7.8719175  74.0366459  51.7059565   9.2001951  73.3443356  51.9236088
  38.7551212  64.8075867  54.9113560  38.5716772  63.9888000  54.4507313
  38.0124307  65.3731012  54.6996117  67.7710104  13.8643229  70.3976297
  67.8548813  13.4631741  71.2626600  67.0669794  14.5050240  70.4979753
  59.6656179   1.3437763  58.6665869  60.1398802   1.6364896  57.8883696
  60.1070499   0.5350315  58.9260101  54.5957422   1.8581536  52.5285387
  54.0028238   2.0166090  51.7939854  54.6739960   2.7085358  52.9609251
  53.7789154  25.7257223  27.4362040  53.5864639  24.8699594  27.8194332
  52.9341269  26.0388160  27.1128845  17.2694004   5.3643161  45.9716225
  18.0137146   5.0338489  45.4686117  16.5903151   5.5255896  45.3165913
  26.3731551  70.9887552  63.2484007  26.9573784  71.0106802  62.4904823
  26.3152647  70.0616646  63.4794474  13.4035170  26.6860127  33.3967376
  14.1436613  26.5542293  33.9892340  13.2253206  25.8162618  33.0389500
  24.5899224   3.5312515   5.8848709  24.5369077   3.3930960   6.8305635
  25.0224853   2.7449918   5.5518287  48.4633350  16.3810861  65.5740070
  48.3595657  16.2756145  64.6283150  47.5822258  16.2572730  65.9269238
   9.4409162   1.7646150  19.2044044  10.3497601   1.5616953  18.9829135
   9.4627953   2.6768473  19.4935155  54.1051531  10.0871968  48.3256578
  53.2943964   9.8432863  47.8790998  53.8345003  10.2855206  49.2221212
  55.6394482  27.5535989  57.1367788  55.8281565  27.4781871  58.0721569
  55.3680801  28.4640455  57.0198298  62.3506117  20.9856510  58.9161158
  61.5848875  20.5992770  58.4911346  62.8443670  20.2356863  59.2477655
  70.0401402   1.0049244   7.7030838  69.9159718   1.7016986   8.3475369
  69.7554493   1.3912022   6.8748486  19.8181283  19.1606390  54.7196102
  20.7135940  18.8618350  54.8779964  19.9094510  19.8566186  54.0688372
  65.9844065   2.7044493  36.3270831  65.1675320   2.6489106  35.8312368
  66.6542196   2.3867777  35.7215524  74.4808245  10.3365827  54.2033482
  75.0868988   9.9912047  54.8587990  73.7553072   9.7122478  54.1954565
  36.6501188  20.9563065  37.5701261  36.8779373  20.1757646  37.0650649
  36.3592863  21.5896845  36.9140172  34.2871141  11.0725331   8.5891652
  33.5250878  10.6836975   9.0185279  34.0637732  11.0720491   7.6583862
  34.3652678  17.2780430  71.4779902  33.7072849  17.9561985  71.6309500
  34.3182898  17.1065354  70.5374527   8.6521262  36.7479897  28.0193639
   7.9232967  37.3147321  27.7666974   8.3203387  36.2498021  28.7663293
  49.9363947  53.4383965  48.8226700  50.6429243  52.8071404  48.6864328
  49.4640589  53.4525728  47.9902458  80.4673862  61.6911840  24.7243953
  80.6449795  61.2256002  25.5416608  80.6364536  62.6104403  24.9308157
  69.7745275   3.3978668  62.6524973  70.6190634   3.6622801  63.0172873
  69.6665621   3.9469999  61.8759441  56.9919348  24.5403385  51.6241884
  57.5444031  24.8552012  50.9087372  57.1745777  23.6019778  51.6727018
  34.3467164  70.0888205  35.3828621  34.4924736  71.0280132  35.4964447
  33.7968040  69.8402071  36.1258411  71.5505457  46.9944859  20.8023477
  71.7046642  47.5304794  21.5802884  70.6072140  46.8321896  20.8063507
  45.8603954   6.1739963  13.9880097  45.5034113   5.7876343  13.1883132
  45.1401234   6.1310542  14.6169734  46.1795568  16.7061067  51.3077211
  45.6038141  17.4695075  51.2633133  47.0396662  17.0669758  51.5227032
  49.4688654   5.1468676  22.3174238  50.1074886   4.4458941  22.1869397
  48.8303518   4.7785401  22.9280496  29.5596552   4.6515319  66.5139341
  30.1851606   4.6913391  67.2373915  29.6085691   5.5166113  66.1071444
   3.6747515  50.0050783   6.2509161   2.7230111  50.0455046   6.3446581
   3.9730093  49.5413589   7.0333713  36.1051512  60.8454847  36.5388274
  36.2953758  61.2284136  35.6824327  35.4607201  61.4367962  36.9277883
  36.2202811  79.0632534  28.2210636  36.3972855  78.6517668  27.3751450
  35.4911041  78.5604954  28.5840654  72.7321482  27.4592257  24.2917871
  72.3465681  27.2438407  25.1410031  73.6632347  27.5832152  24.4760180
  77.2028494  18.4653866  20.8160615  76.5276337  19.1326702  20.6933784
  76.8264055  17.6711857  20.4368973  76.1363173   6.0674417  45.2566338
  75.3228474   6.4276749  44.9034595  76.5765524   6.8173629  45.6566858
  51.0784245  10.6536257  48.5959959  50.6777811   9.8932278  48.1746769
  51.1443424  10.4089534  49.5190477  42.7633286  14.3353093  65.8560991
  42.7628231  14.6207941  66.7697334  43.2241201  13.4963977  65.8675575
  61.3177824  18.9508379  63.1689167  60.6836224  19.1151989  62.4710226
  62.1689272  18.9866865  62.7324533  78.6447430  12.5836885  58.9292765
  78.5245752  11.7436910  59.3722153  78.7094736  12.3580313  58.0013084
   8.7224692  38.0306578  64.2094183   8.4044993  38.8250947  64.6383667
   8.7356526  37.3722672  64.9040985   7.1238548  33.6186957  48.9225864
   7.7517903  33.6322284  49.6449041   6.7055577  32.7599907  48.9849138
  67.5059891  15.7398903  41.0462236  68.0376244  15.1019621  41.5222931
  67.0918131  15.2329457  40.3478670   4.6091935  19.4976652  31.0964537
   4.8811999  19.8298109  30.2409291   4.4524977  20.2836800  31.6197681
   8.5639679  10.7824540  44.5972013   7.7753454  11.0245681  44.1117239
   8.2598317  10.6432307  45.4940557  69.9501324  26.9338965  64.4407892
  69.2341089  27.1829176  65.0252008  69.5146227  26.5702963  63.6698437
  46.8259907  14.9087679  16.1876118  47.1649027  15.1167262  17.0583153
  45.8861828  14.7842574  16.3198578  70.3947067  29.8430467  15.4437268
  69.9047899  29.3200564  16.0783064  70.8195686  29.1977572  14.8786354
  86.3249683   0.0166764  28.6415410  86.8997478   0.7770925  28.7288451
  85.7534218   0.0591838  29.4081950   5.3695190  50.4306984  57.0137405
   5.6921649  49.8056936  56.3645124   5.8238196  51.2473297  56.8064833
  81.3761616  29.0858769  24.0199542  80.5563545  29.5795107  24.0418077
  81.6876698  29.1786480  23.1196284  67.0446014   5.9369171  46.4090538
  66.9960308   6.4393073  47.2223663  67.4522448   6.5346169  45.7823086
  76.7702532  45.3892756  47.3371220  77.0650339  45.6663895  48.2046175
  77.1353436  44.5110273  47.2293329   0.9087162  28.2676435  32.4445796
   1.4400253  28.4095144  31.6611171   1.5445536  28.0735612  33.1332541
  69.2405558  59.3577337  35.8610964  68.5230923  59.4032669  35.2291107
  69.8520184  60.0378704  35.5786967  20.7358241   6.0469443  14.1633594
  21.3846207   6.7460585  14.2441916  20.1553941   6.3389397  13.4604573
  61.4210987  23.0041194  23.2888198  61.6787434  22.3020029  23.8862205
  60.6603575  23.4073424  23.7070489  22.4638820  80.6232548  43.7332487
  22.2267580  80.2261353  44.5712805  22.3692513  81.5645504  43.8789606
  84.0400791  58.0390739   5.7067692  84.3513203  57.1999598   5.3672940
  84.6991348  58.6720467   5.4217768  18.6168206  69.6718597  23.0329823
  17.8670061  69.8553085  23.5989833  19.2891693  70.2906513  23.3180714
  77.0417786  14.7135520  52.0488596  77.4620152  14.0369141  51.5180159
  76.7019939  14.2438054  52.8105116  43.5800934  11.3636065  52.4795771
  43.4834480  11.1683059  51.5475082  42.7209902  11.6909873  52.7460289
  61.5206671   8.7118429  49.9032974  61.2328863   7.8538120  49.5915318
  60.9975815   9.3368638  49.4013357  50.5049324  17.7223575  39.0802622
  49.6576595  17.4471104  38.7301278  50.8657837  18.3000326  38.4077191
  79.1516399  41.6860342  42.8329468  78.2584143  41.3786364  42.6783848
  79.5361233  41.0251045  43.4087658  42.9657459  69.0668535  44.9993372
  43.2648563  69.4217491  45.8364868  43.7509060  68.6853027  44.6066952
  66.9815016  13.8311315  67.7378321  66.4183235  14.5816028  67.9271889
  67.4828482  13.6988521  68.5424328  29.3169045  32.8835535   8.6020547
  29.1525054  32.5143099   7.7343786  29.0533543  33.8006043   8.5259581
  75.4380655  39.2429590  37.9364777  75.4871655  38.4236526  38.4289789
  75.9328318  39.0708542  37.1353436  48.2275534  75.6810093  50.1148748
  48.7220716  76.4760017  49.9157047  47.3103714  75.9439802  50.0383568
  54.0107012  15.2584076  29.3343639  54.3133211  16.0673523  28.9217401
  54.7992945  14.7222269  29.4171715   3.8947725  10.7107270  38.0392027
   3.8967803  10.7131243  38.9963961   3.1181467  10.2036786  37.8025889
  63.4729767   5.9636801  65.8558798  63.5298634   6.8934244  65.6354904
  63.9389229   5.5205154  65.1468420  67.2486448  22.3952103  59.8881721
  68.1151867  22.0885801  59.6211243  67.3798323  23.3157587  60.1153564
   2.2934484  75.3514862  64.0082836   1.6524303  75.2249289  63.3087730
   3.1297460  75.1026678  63.6146736  69.7983456  26.1126328  61.5470266
  69.4904995  26.9992542  61.3589716  70.5214453  25.9753203  60.9350586
  49.0238953  34.6335840  59.6251774  49.2390585  33.7490320  59.3293667
  49.8728800  35.0461173  59.7841501  67.8033590  57.0449352   3.9084995
  67.7656746  56.8910313   4.8524940  67.7280855  57.9948187   3.8174954
  44.1590118  81.6123867  22.8558803  43.8773012  82.4660206  22.5269556
  44.2987299  81.7508888  23.7926459   7.4829364   8.2220197  51.6600084
   6.7474794   8.8062143  51.8445396   7.0879811   7.3524153  51.5965223
  73.1758308  30.3475308  44.7857428  72.2817373  30.0713587  44.9871349
  73.7190199  29.8838973  45.4230976  87.5198078  14.6107960  31.6895366
  86.9016743  14.6448159  30.9594750  88.1157780  15.3433144  31.5331030
  78.4831333  20.9090233  12.3026979  77.6264763  21.3202620  12.4178112
  79.1029501  21.6382742  12.3184550  61.7763472  74.0301657   3.1177399
  61.1584091  73.3283138   3.3221602  61.6660547  74.1804695   2.1788701
  17.0815814  45.2438688  10.8442664  17.3460090  44.3334436  10.7122481
  17.0259833  45.6076717   9.9606431  54.0755558  14.8220634  68.8921738
  54.2956448  15.6772518  69.2615557  54.9214458  14.3957567  68.7544823
   2.2098134  35.5967140  44.2996454   1.3250008  35.2987885  44.0885067
   2.7693290  35.1593542  43.6578608  74.0412664  29.3170905  31.4856172
  73.9662981  28.3671141  31.3952899  74.9410725  29.5122981  31.2239361
  66.5441418  27.0933843  31.8173289  65.9068108  27.8011394  31.7218232
  66.0133600  26.3131022  31.9775176  70.6500673  19.2874670  47.7421188
  71.3487387  19.1882634  48.3888435  70.9903526  19.9288750  47.1183920
  69.3994379   6.3601524  35.8391213  68.6151218   6.3086122  35.2928376
  69.4350529   7.2740781  36.1214375  40.5400133  13.7679386  30.9547281
  39.6533084  13.5493600  30.6680155  40.9520578  14.1570938  30.1833582
  33.9423037  15.2668619   8.0540025  33.7866426  16.1546254   8.3763015
  34.5323563  15.3824675   7.3092175  35.7990885  74.6125984  57.0679092
  36.6285038  75.0657177  56.9163084  35.1435184  75.1635218  56.6401958
  66.8494225  35.7010579  46.1861610  66.6284084  35.4553390  45.2878284
  67.0351839  36.6388798  46.1391449  27.7079582  78.3102942  34.6972704
  27.2001123  77.5199080  34.5139194  27.0561695  79.0102434  34.7356391
  74.8444414   9.6219391  17.0405614  74.0910101   9.6268380  17.6309395
  75.3446817   8.8472116  17.2970593  73.7300873  22.6350260   7.5375670
  74.6734762  22.4819064   7.4846572  73.6386776  23.5865188   7.4871778
  86.1902523  10.7279265  22.8235841  87.1144009  10.5183601  22.6884556
  86.1865425  11.6569638  23.0540347  33.9738560  45.1778841   9.7920430
  33.5065889  44.3972731   9.4944823  34.4490170  44.8900175  10.5715227
  37.6008773  41.4383364  13.8936353  38.4901738  41.4071703  14.2463577
  37.5116348  40.6250525  13.3968091  45.6896830  71.6447067  49.6812582
  46.4312840  72.2480631  49.7284412  44.9560881  72.1376753  50.0487471
  51.5214872   9.2731011  50.9963512  52.2993135   9.4990492  51.5064144
  51.1033154   8.5714447  51.4953899  54.9206543  29.9200559   9.0771616
  54.7679090  30.4751897   8.3124864  54.3343210  30.2698612   9.7480446
  72.1290064  61.0475206  56.0570812  72.9407358  61.1869526  56.5448189
  72.0825720  61.7882204  55.4525661  86.3272667  30.1651335  23.9868116
  86.2208176  30.4740882  24.8865032  87.2572136  30.2916217  23.7985873
  53.6450291   2.8571740  43.3477926  53.3303928   3.1060991  44.2168570
  52.9948425   3.2182211  42.7451801  55.3000832  12.0565009  54.0236855
  55.7085848  12.2204137  53.1736898  55.3342915  12.9011440  54.4727230
  68.0370235  45.2800751  12.2822070  67.4382973  44.7488499  12.8071415
  67.4759769  45.9375763  11.8709290  58.8309240  13.5832369  40.1660061
  58.8966370  14.2339730  40.8649015  59.0369844  12.7516460  40.5928850
  62.2671127  46.6387558  15.4959798  61.5367413  46.9644070  14.9699116
  62.2492456  47.1751022  16.2886000  81.2204170  44.7558260  68.9207554
  81.6837120  45.5934000  68.9282942  80.4556751  44.9101067  68.3661413
  68.0652094  10.6945038  43.4060431  67.2958374  11.0949898  43.0011797
  68.2839870   9.9611342  42.8311205  29.0883732  15.0950861  25.3229666
  28.8237309  15.2404428  26.2312984  28.7451625  15.8527803  24.8493242
   0.5614531  14.4682550  43.6397123   0.0911332  15.2204573  43.2802343
   1.2189120  14.2576790  42.9766607   0.6573106  46.6796112  51.5283155
   1.1568569  45.9487152  51.8922901  -0.2567466  46.4051485  51.6018057
   3.6248839  76.1439943  12.5866926   4.1755590  75.4339886  12.9166591
   2.7749205  75.7336235  12.4273574   9.1474736   6.8183684  28.2079530
   8.6421978   6.0173357  28.3467865   8.5752356   7.5195467  28.5195994
  80.2618694   4.9513596  32.5788307  79.6271944   5.6023109  32.2793579
  80.8145332   5.4242641  33.2010508  44.6487379  25.9900999  58.6676884
  45.6054306  25.9619927  58.6809683  44.4208813  25.9522152  57.7387762
  62.3984861  25.8953643  51.0928631  62.9717875  25.7201505  50.3466320
  62.9890966  25.9319377  51.8452406  68.8214588  13.1880391  42.0914221
  69.4802570  13.6673582  42.5938797  68.6333179  12.4131906  42.6209879
  69.2117167  22.4718857   7.7166700  68.2616520  22.4869323   7.6009595
  69.4427156  23.3784389   7.9192328   5.6882137  16.0969293  57.6668406
   5.5228257  16.5943015  58.4677744   6.6163522  15.8677721  57.7145576
  87.9960155  13.9944124  66.3963890  87.5386047  14.0167415  67.2369242
  87.6337719  14.7329187  65.9068823  20.4192400  15.6692183  45.8199596
  20.0591564  16.4820647  45.4652071  19.7726870  15.0012338  45.5919313
  73.4478951   0.5160062  16.9351280  73.5407829   0.1636152  17.8202415
  74.2438412   0.2380069  16.4819002  39.1224027  23.9665270  51.0357857
  38.6593366  24.6518993  50.5540562  39.9231029  23.8191891  50.5323982
  75.9793901   4.3270579  41.5359116  76.8163967   4.7718209  41.6694736
  75.4243183   4.9828842  41.1139870  70.1913071  36.3030005  20.6423068
  70.6539822  36.7786050  21.3322091  70.8866310  35.9127188  20.1127434
  17.5570822  40.7382393  55.2759647  16.9654799  41.0955286  54.6137094
  17.8110635  39.8814392  54.9330139  58.2547045   9.7790724  50.4635811
  58.0702066  10.4245615  51.1458826  58.5104465   8.9907497  50.9425163
  62.9964685  22.6662993  15.7124770  62.7621746  23.2926345  16.3973427
  62.1951962  22.5615120  15.1994371  58.0562115  -0.0785376  42.6157236
  58.9477158   0.2348443  42.7681780  57.5128078   0.4525628  43.1978559
  22.8014565  55.7222939  41.1614895  22.4091816  54.8500204  41.2000465
  23.1869745  55.7730913  40.2868319  47.6240921  16.5081835  11.4185059
  48.2772875  15.9091651  11.7800915  47.9709721  16.7509663  10.5600393
  76.2456036  17.6173079  60.4587317  77.0208549  17.1089268  60.2204704
  76.0452652  17.3433077  61.3537264  47.7615976  11.3438332  67.6264858
  47.5510359  10.9342825  68.4656286  48.6927271  11.1626101  67.4984694
  76.8993711  41.8622971   5.6698442  77.2595930  41.0433292   6.0100871
  77.6532984  42.4490356   5.6101280  45.7116318  25.8588386  42.3112202
  46.5830374  26.1869121  42.0892954  45.4685116  26.3405871  43.1018162
  34.1384721  20.2639556  52.7856922  34.2643547  21.2089014  52.8720808
  34.5182204  20.0486279  51.9338369  85.1133251  63.7432480   8.0935943
  85.1226902  62.9366064   7.5783569  85.5374813  63.5057116   8.9181536
  25.4916573  78.1128931  54.5359516  26.3231659  78.3265638  54.1126633
  25.7413149  77.6341391  55.3263283  24.5864391  29.2589545  57.3103476
  24.6953440  29.9156833  56.6225433  24.1775894  28.5148025  56.8684053
  77.0639086  78.7154341  71.0449505  77.7071190  78.8501740  71.7409039
  77.4682617  78.0682564  70.4671192  63.8516045  29.7484756  52.1051121
  63.0251408  29.9544621  52.5418711  64.0430069  28.8479424  52.3670959
  71.9820023  30.9800124  23.1792188  71.9407701  31.3588309  24.0573001
  72.8577757  31.2023973  22.8633070  77.2602463  41.5816259  51.3180637
  76.4377689  42.0522785  51.1829758  77.9351521  42.1842670  51.0057163
  52.4585962  81.9888306  19.5725489  51.5942001  81.7048454  19.8698699
  52.2846985  82.4937344  18.7781572  71.6414165  23.0957747  13.2878518
  71.0071802  22.7160907  13.8959777  72.0778561  22.3402143  12.8942978
  55.6041288  12.5395572  58.2385111  55.5574989  13.4447157  57.9307032
  54.8186779  12.4279392  58.7740803  32.3959041   6.3566470  29.0856624
  33.2874918   6.4763010  29.4127464  31.9881248   5.7609409  29.7142196
  67.9370785  53.4357548  69.7928381  67.7292824  52.9007769  69.0267754
  67.8327703  52.8411388  70.5356550  46.8527603  69.3316889  42.6561594
  46.1996460  69.8733950  43.0991268  47.6363659  69.4080782  43.2005453
  40.7286930  38.2528996  19.0687227  40.9751511  37.8829312  18.2210124
  40.0123501  37.6961589  19.3738854  71.9823647  18.4063327  34.8141932
  72.5020123  19.1302514  35.1636815  71.5424919  18.0359578  35.5794168
  53.0291939  32.8310037  49.8303223  52.5138903  32.0462346  49.6437025
  53.3059597  32.7249670  50.7404804  59.6569109  29.6424484  41.1349154
  59.6093702  28.7404847  40.8180046  59.7428846  29.5584440  42.0845366
   4.3839401   8.1011206  19.1213989   3.8095444   8.0770332  18.3560753
   3.8275269   7.8191537  19.8474371  79.2642736  23.2942867  40.2564716
  78.6627197  23.7369943  39.6578264  79.7707844  22.7065897  39.6958542
  34.6306062  71.5194082  39.6560025  35.1998377  70.8688021  39.2450047
  33.7636280  71.3444757  39.2899704  67.3096848  17.9517305  53.4126186
  68.2478857  17.8357422  53.2624149  67.1660042  17.6188970  54.2985153
  67.2918415  74.9509954  66.5120983  67.3098373  74.7352600  67.4444962
  66.3705158  74.8703432  66.2653399  42.8979492  10.8366168  49.5940113
  42.1899176  11.4717424  49.4865894  43.4948015  11.0182321  48.8680553
  41.0350523  16.9406635  -0.2909346  41.6288100  17.6306134   0.0051432
  41.1747084  16.2230521   0.3269320  70.4940653   4.1427398  27.5887012
  71.3555717   4.5523003  27.5093341  69.8756790   4.8439708  27.3835063
  19.7521508  35.3136826  18.0561900  19.4758952  34.7066712  18.7428141
  19.6147335  34.8315525  17.2407770  73.2740641  23.2895064  54.6952629
  72.7010918  22.6277208  55.0825310  72.7852345  23.6174679  53.9404678
  86.4754868  26.5501571  30.6430912  87.0894718  25.9485364  30.2220130
  87.0326805  27.1768522  31.1046243  64.7866011  56.4246893  53.3845425
  65.6960821  56.3379145  53.6700916  64.8267317  56.3498878  52.4311113
  75.5077982   4.7319889  25.1061368  75.5562305   3.8140664  25.3731656
  76.0467529   4.7804999  24.3165779  31.3783145  63.5843849  56.4693308
  32.2019935  63.6657000  56.9501352  30.7349491  63.3426189  57.1355629
  63.5354996  70.2406788  23.6963773  63.7240171  71.1787081  23.7245107
  63.4714031  70.0371408  22.7632666  13.2175994  10.8376920  58.8792467
  13.1253576  10.3751040  59.7121525  13.4537888  11.7316890  59.1266632
  44.3797541  72.8295803  44.1278410  45.0183201  72.2191906  44.4964743
  43.7421799  72.2702217  43.6841679  67.1253538  39.5575142  38.6945462
  67.3805571  38.6667800  38.4543443  67.7572060  40.1175404  38.2435822
  15.1314425  36.0471630   8.5872763  15.9927666  35.6756926   8.7779695
  14.5172179  35.3384352   8.7787551  52.0952177  37.8642654  14.1824520
  52.6562929  38.2446337  14.8582792  51.6848898  38.6185026  13.7593818
  77.7747011   8.5032874  46.2668848  77.3408604   9.3347269  46.0752535
  78.5280991   8.7448424  46.8056583  39.7145462  82.5391197  69.7277546
  40.3456259  82.2814274  69.0557671  39.6919346  81.7972374  70.3321838
  51.6196108  12.0267713  12.6017118  50.9724808  11.7695224  13.2584262
  51.3898277  12.9290497  12.3796189  80.2459812  44.1313314  42.5688744
  79.8648834  43.2591248  42.4676037  81.1750221  43.9692307  42.7327013
  70.7305527  56.5518045  47.5266790  71.3418722  56.6438437  46.7958879
  70.6842184  55.6085682  47.6828432  59.8479414   2.0284519  19.7192013
  58.9278269   2.2006929  19.9190748  60.0282383   1.1831751  20.1305795
  79.4719696  43.0607843  39.6765971  79.8030090  42.2334909  40.0262117
  80.0203514  43.7302256  40.0856972  24.2273951  65.4279232  65.4208422
  23.7652111  64.8206902  65.9986734  23.5412288  65.9988356  65.0752068
  25.3983212  81.4277744  36.9563007  25.7181811  80.6663895  37.4402618
  24.4801307  81.2275600  36.7744493  70.8321571  18.5899031  69.6842861
  71.3725519  19.3692827  69.8137903  70.3462887  18.4964705  70.5036974
  50.3133869   9.3150234  38.8543558  50.8162260   9.1938072  39.6597695
  49.8248148   8.4983134  38.7518167  51.5240574  15.2944100  46.1874151
  51.1588049  15.1424444  47.0590401  50.7927990  15.1361990  45.5903721
  59.6508694  67.5782967  41.1823511  60.4448938  67.5095463  40.6522322
  59.3988991  66.6711521  41.3550615  67.2696400   2.4517959  38.9269447
  66.9021654   1.9062306  38.2315636  67.9228926   2.9946235  38.4855485
   3.3064064   2.7016693  38.3568382   3.2112691   3.0296710  37.4626374
   3.3414057   3.4899807  38.8986611  41.3277578  19.7322512  28.1220531
  41.3863993  20.1487231  27.2622013  40.6111813  19.1035771  28.0353093
   1.8633804  20.2261806  11.2337291   1.7835321  19.9660516  12.1514380
   2.6254481  20.8050656  11.2143040  14.0809405  36.2044048   3.7856716
  14.0141308  35.6117225   3.0370092  14.9999797  36.4716864   3.7982917
  70.6644773  42.7120209  40.5001831  70.0003052  42.3528719  41.0885048
  70.9178829  43.5423231  40.9034491   5.8342248  26.5028501  14.6214533
   6.3666117  26.8089342  13.8872123   5.4094297  27.2930765  14.9551046
  11.9902825  21.6010714  25.9902978  11.9092906  22.3681068  25.4234385
  12.8511953  21.6944885  26.3981390  49.4075108  20.3497386  46.4374781
  48.5464525  20.4224420  46.8492126  49.5204067  19.4119644  46.2823486
  29.4818163  70.5766201  42.8878641  29.3401814  70.7569838  41.9585419
  30.3564239  70.1895428  42.9261351  58.6345434  45.3236628  25.7910490
  59.1493034  44.5194149  25.8576775  58.5002899  45.4449224  24.8511004
  11.1407721  73.4983253  49.3503332  11.8584359  73.6520481  49.9647903
  10.9882450  72.5542545  49.3915462  53.8786268  24.2311502  29.9119949
  53.3745432  23.9754605  30.6844926  54.0365219  23.4098530  29.4464064
   7.9329234   7.2888392  42.0435047   7.0810950   7.3563629  42.4748516
   8.0391061   8.1254697  41.5907288  61.9928074  76.8960667  54.5908642
  62.9225111  77.1213055  54.6247911  61.5438223  77.6861954  54.8914337
  64.2698002   9.6546644  36.4857912  63.6510897   9.4536358  37.1879435
  65.1113367   9.7573310  36.9302058  66.8154192  53.9357662  60.3065348
  67.5218534  54.4497395  60.6977081  66.8564939  54.1436815  59.3730879
  40.9884977   5.4328990  56.0961151  41.7495012   4.9326888  55.8013439
  40.2860117   4.7857124  56.1585188  83.6345196   2.5036654   7.4605185
  82.9210472   2.1073052   7.9605991  83.2369709   3.2653254   7.0385534
  86.1117363  23.7957978  60.0852966  86.3507462  23.1317425  59.4386578
  86.7153931  23.6491776  60.8135319  74.4118166  12.4060738   1.0252310
  75.0899506  13.0247271   1.2965852  74.0885019  12.0306611   1.8442336
  70.5157566   1.3004704  53.2659960  70.6701708   1.2813982  52.3215294
  70.7839727   2.1791112  53.5348463  72.3274469  28.7336540  42.4111700
  73.1777287  29.1682339  42.4773836  72.3554945  28.2795382  41.5690184
  46.5131378  68.6016321  71.2816477  46.5556240  67.6714373  71.5033770
  46.2443733  68.6168623  70.3630781  55.4807854  80.9178638  24.1423678
  55.5625963  81.3133812  25.0101805  55.5938482  81.6485691  23.5344911
  87.0399857   4.6813497  43.4879446  87.1397018   4.3273449  44.3716669
  87.3382473   3.9768577  42.9126549   8.5556608  76.9716692  50.3900528
   9.5085293  76.9995308  50.3034639   8.2998961  76.1553907  49.9605036
   4.1344076  20.2293658   1.9494495   4.4745678  21.0671854   1.6354674
   4.0897754  20.3301811   2.9002786  77.3165798  33.9889669   4.3339449
  76.5821266  34.3661499   4.8182356  78.0901241  34.2378378   4.8398408
  60.4702568  71.4876127  46.6826582  61.2050819  72.1009111  46.6938019
  60.3385544  71.2884331  45.7557201  60.1684189  15.5533230  31.6413069
  60.5582619  15.8694339  30.8262444  59.2320776  15.7251096  31.5413570
  50.7360315  12.9667461  51.8175173  50.6071424  12.3542535  52.5417233
  49.8841143  13.0064356  51.3828945  69.4198132  41.0357094  53.6894083
  68.7295628  41.1725378  54.3383026  68.9514589  40.9143686  52.8634834
  74.5211649  59.4849634  27.9218245  74.4145346  59.3989658  28.8691711
  75.4456949  59.7029591  27.8036714  79.3362617   4.2650664  50.2714062
  79.7037745   4.3127024  49.3888521  79.1351604   3.3377481  50.3973818
   5.7484752   7.6973301  26.5305161   5.0973320   8.0522305  25.9252977
   5.3174925   6.9417042  26.9299102  44.9799395   7.7847981  46.6127396
  45.4171467   8.4520143  46.0836792  44.1032553   7.7158999  46.2347031
  68.5776424  79.6879148  38.8113689  68.8291264  78.9282131  39.3365788
  68.7252712  79.4129705  37.9064703  57.3234653  13.2488298  44.7456264
  56.4067698  12.9735708  44.7340298  57.8179979  12.4404573  44.6107101
  52.2786522   7.4981344  48.9010954  51.4555740   7.0408016  49.0731812
  52.2667313   8.2457680  49.4987011   8.6968398  28.2785273  48.0114079
   8.0718595  27.8676009  47.4141026   9.2739868  27.5646281  48.2824802
  20.7439423  15.9566391  48.4827328  19.8493993  16.2960029  48.5120535
  20.8554149  15.6527364  47.5819302  49.9019623  45.2298737  65.3289318
  50.5416918  45.1134205  64.6264982  50.4088306  45.5883694  66.0574961
  81.9336700  63.9017534  29.9493742  82.2415161  63.0017281  29.8425174
  80.9799004  63.8266754  29.9795246  55.9591579  31.1800933  47.8461695
  56.7985630  31.1696553  47.3862553  55.7909489  32.1068549  48.0166197
  72.8723431  44.2383575  36.4244866  72.1478748  43.7657261  36.0146046
  73.6393976  43.6896849  36.2607217  15.8021283  47.0590687  55.9186602
  16.3215148  46.2962723  55.6644726  15.8679378  47.0863485  56.8732023
  78.4188557  68.3020878  27.1539140  78.2708788  68.9440775  26.4595175
  79.3041372  67.9753876  26.9933748  55.4683924  23.7039423  37.5112295
  55.2810907  23.0592585  38.1935287  54.6311808  24.1425633  37.3598266
  10.4174435  31.6961622  64.5500803  11.1477280  32.0989776  65.0198221
   9.7263718  32.3582101  64.5686769  10.4225087  42.7288485  37.9635096
  10.1184225  42.4694633  38.8332701  10.3212786  41.9408989  37.4295402
   2.3216735  24.0990853  55.6585979   2.2324485  24.0348411  54.7077322
   1.5744650  24.6302176  55.9339333  81.0987282  10.2596962  36.8366885
  81.5088463  10.2137327  37.7003574  80.3028774   9.7346205  36.9212055
  70.4952431  35.3345275  36.4509678  70.5772018  35.0640464  35.5364442
  71.0357952  36.1216974  36.5172887  79.5166397  77.8630018  15.2483332
  78.7670517  77.2678185  15.2585232  79.4676733  78.3241987  16.0856688
  79.4968891   5.9390044  47.7791977  79.1644907   6.5396798  47.1121693
  80.4175472   6.1802363  47.8813505  86.6334343  31.6657829  42.4623489
  86.5318680  32.2161627  41.6858149  87.2273636  30.9680891  42.1854019
  34.7081542  50.1076317  27.7691627  34.8225355  49.6791458  26.9209003
  35.3610301  50.8076048  27.7738905  84.9182224  19.5147955  32.2389150
  84.3419075  20.2275538  32.5147367  84.7515202  18.8143003  32.8695869
  60.7432699  16.9517970  29.3919683  60.0061798  17.3592854  28.9371228
  61.2770033  17.6880825  29.6907091  27.2991586  81.4403915   8.1283396
  27.3405194  81.5216446   9.0811878  26.5761232  80.8332157   7.9708928
  57.4875021  71.4378881  56.2430620  57.6740170  71.0190296  57.0833015
  58.3035374  71.8804455  56.0096836  79.6592426  60.6808615  62.1333742
  79.8858023  60.1347160  62.8861237  80.3865051  61.2986517  62.0581436
  45.2888250  71.9218779  40.1856661  44.8584509  72.7748394  40.2445316
  46.2142515  72.1290159  40.0555944   7.7832031  13.1060004  34.4016361
   7.9159743  12.1607113  34.3306947   7.0405412  13.2874453  33.8256478
  85.0511456  55.9621334  14.4668877  84.8345566  56.0734940  13.5411882
  85.9864807  56.1586571  14.5193458  71.3466740  22.5936508  68.1600761
  71.0056639  22.5248718  67.2683287  72.1912622  23.0329180  68.0603123
   2.2909309  37.9510140  34.0819287   3.1741920  38.2609653  33.8819003
   2.0053189  37.5091910  33.2822728  87.2987366  23.2616925  45.2479458
  86.5536690  23.6916590  44.8281431  87.4239349  23.7436056  46.0654545
  83.0755043  57.2773266  58.5781002  83.4364605  56.4958334  58.9966917
  82.5762844  57.7108431  59.2702484  70.6692362  36.8241572  47.3562431
  71.0335159  35.9393620  47.3303652  70.1579762  36.8491173  48.1650829
   3.0748284  30.1608610  53.8194227   3.7477356  30.0939059  53.1419659
   2.6830745  29.2882228  53.8549566  44.7790289  13.8378406  19.3555498
  45.2212715  13.3888054  18.6351204  45.2088070  13.5065687  20.1440811
  72.2054052  10.5352128  69.5737457  72.8716278  10.1063490  69.0366650
  71.3849878  10.3824437  69.1049099  41.2396097  19.5549583   2.5035417
  40.9015465  20.0161242   1.7359021  40.9272051  18.6561394   2.3998037
   3.2716724  49.1827393  27.3848224   3.1588188  49.0417051  28.3248234
   2.4736018  48.8291168  26.9920564  68.4789610   5.7485867  57.8490019
  67.8535461   5.9444475  57.1513462  69.2443466   6.2848502  57.6420355
  81.8813705  32.8451753  22.8107142  82.2119236  33.2257104  23.6244440
  82.4798012  32.1217799  22.6241636  77.0100021  38.1716943  48.1382656
  77.5893593  37.5008488  48.4995794  77.2214317  38.1933713  47.2049618
  82.7821159  11.9446349  46.2633419  81.8884468  11.7186201  46.0054398
  83.1840420  12.2828257  45.4631519  10.7222903  58.7449837  44.4012737
   9.8676938  59.1760874  44.4080830  11.2883031  59.3429327  43.9130926
  37.3160553  81.7345524   4.5484364  36.7231631  81.0613632   4.2144731
  38.0539584  81.7276764   3.9387769  51.2887144   0.7021670  51.4356279
  50.6814337   1.1739907  52.0055628  51.7439842   1.3895799  50.9493923
   3.2418844  61.6365767  11.4407551   2.7244112  62.2598314  11.9506621
   3.8915139  61.3021851  12.0591366  73.1437731  65.2330446  41.2069225
  73.2299662  65.6783867  40.3640270  73.7649107  65.6825733  41.7799377
  66.8712807   1.9035910  51.3241434  66.7047834   2.6472613  50.7449532
  66.3499737   1.1908626  50.9547043  -0.2513841  30.2811599  33.7883139
   0.0068368  29.5263147  33.2593870   0.4003778  30.9515238  33.5832524
  85.3440285  29.1448569  35.7540107  85.7609653  29.2491770  34.8987269
  85.6963444  28.3221292  36.0934615   0.2791814  54.6921062  42.2715521
  -0.3941373  54.0166521  42.1901035   0.2203352  55.1886082  41.4553070
  67.7883959  34.3463516  36.9357872  68.6363840  34.2969441  36.4945364
  67.9628372  34.0382481  37.8250980   1.9080901  17.4524271  68.2748556
   1.2762633  17.4988234  68.9924002   1.9103158  18.3333218  67.9003525
  11.0696328  44.8908138   1.3316411  10.7316637  44.1370106   0.8481191
  12.0175016  44.7586536   1.3492841  67.5989628  30.6330943  36.8325853
  68.1714869  31.1524200  36.2680054  68.1291008  30.4506135  37.6083994
  64.5469093  28.4586596  46.4004660  64.6005821  29.4001508  46.5646219
  65.4454756  28.1995058  46.1963844  10.7107008  27.8054667  61.5193224
  10.6857276  28.3230686  62.3241186   9.8116797  27.4975109  61.4046192
  86.3885021  21.9027162  30.2266598  86.0371685  21.0449338  30.4654169
  86.8686867  22.1895194  31.0034466   3.6793756  75.9524250  37.0195246
   3.7475666  75.5761099  37.8970027   3.1704962  75.3115702  36.5229583
  68.2993078  24.0102100  44.7752285  68.7268257  24.4321966  45.5204725
  68.8638496  24.2125225  44.0291786  45.4309368  47.4259901  49.1246891
  44.7183847  47.6495886  49.7234440  46.2075186  47.8251219  49.5169163
   6.8339312  43.6098194  32.4859452   6.3365066  44.0777540  31.8152428
   7.7107990  43.9913177  32.4435997  57.2088528  27.7010083  48.3651733
  57.4724865  26.8856192  48.7916374  56.4085960  27.4753904  47.8909159
  80.8132648  11.4723802  50.1407814  81.4893246  11.9173932  50.6518030
  80.3072262  12.1814728  49.7441244  70.6413269  27.5814605  22.5706744
  69.8745775  27.9009652  23.0463243  71.3842106  27.8234076  23.1236863
   4.7745934  13.4107888  53.6690998   4.3654647  12.9119134  54.3761826
   5.5238247  12.8780460  53.4025097   1.9998105  12.0409906  66.2885904
   1.3146910  12.6974273  66.4148188   1.6386947  11.4401889  65.6367731
  64.6004725  27.8653383  23.4041095  64.1837597  27.1032763  23.0018139
  65.5388927  27.7079940  23.2999897  50.5835581  14.0636778  40.9033012
  50.2118587  14.0202975  40.0222826  51.4867878  14.3503666  40.7683325
   1.1204389  40.0783205  25.6073213   2.0638242  40.1732016  25.4759645
   1.0373443  39.7000957  26.4826894  69.4725275  12.6223898  36.4819598
  69.4384766  13.1133091  37.3029780  70.3712702  12.2963810  36.4349294
  50.2686310  21.8983626  25.2492881  50.1695728  22.0652270  24.3119645
  49.4548512  22.2201443  25.6371689   2.5377697  42.1929312  44.6181393
   3.4422371  42.4083376  44.8456669   2.4326706  42.5153875  43.7230349
  73.2844687   5.3921461  26.7160869  72.7536821   5.1008004  25.9747267
  74.1714621   5.4615277  26.3630080  54.1077375  11.6408050  60.6097460
  53.6846876  10.8770990  61.0021973  53.7913561  12.3818088  61.1265135
  67.2989607  44.1383648  36.1291742  67.1726608  45.0818920  36.0290027
  67.8273535  44.0503311  36.9224501  78.3555984  24.3230486  15.0888622
  78.0293798  24.2805934  14.1899681  78.9947081  23.6127234  15.1455188
  42.4637175   6.2525678   4.5326981  42.9834890   6.4048398   3.7434673
  41.5831757   6.0656506   4.2072165  56.1947680  70.9436083  53.8461971
  56.5940142  71.0585213  54.7085381  55.3235722  70.5924797  54.0304708
  84.6125317  41.2837791   8.2558382  84.3029308  40.7342815   7.5358140
  84.7501850  42.1437788   7.8587389  70.8163309  46.1329937  33.5852981
  70.9353447  46.0695219  34.5329452  70.2073479  46.8622255  33.4686971
   0.9801044  17.6120460  28.4430456   1.3911743  18.0942738  29.1604805
   1.0557809  18.1954658  27.6879787  74.7182989  25.2778912  46.4164495
  74.2232275  25.1176238  47.2198486  74.1941071  24.8706269  45.7268238
  22.7408934  25.2008963  18.9114535  22.4764037  26.0605836  18.5840237
  22.4714613  24.5900655  18.2255054  72.4968481   3.5876942  39.4192815
  71.6763401   3.1415427  39.6289039  72.4032784   3.8423565  38.5013366
  39.4440842  80.2722549  26.7270112  38.8978696  80.5545139  27.4606395
  39.8978949  79.4944954  27.0516276  76.8908739  11.1640561  46.3655615
  76.6860104  11.6869545  45.5904245  77.7355051  11.5004444  46.6650200
  71.4174652  52.8696394  22.7620339  71.2273884  52.5633478  23.6487627
  71.5850306  52.0700598  22.2632146  65.1842690  73.3877516  60.1742744
  64.6300650  72.6440477  60.4108953  66.0112190  72.9921436  59.8988247
  85.7038593  13.4360957  33.2244039  86.3815212  13.7544429  32.6280355
  85.8420181  12.4896097  33.2605839  82.8881645   9.1597348  63.0964947
  83.0831814   8.7653404  62.2464085  82.7186680   8.4146410  63.6729813
  30.7237720  21.6949177  17.0391750  31.0341477  21.5920496  17.9387951
  31.2222958  22.4370480  16.6971993  51.8968582  50.4716444   2.5596762
  51.6606236  50.7625437   3.4404737  52.7381325  50.8937693   2.3856083
  68.3314276  50.4304600  18.7105083  68.1273794  50.4929972  17.7774024
  69.2360973  50.1188898  18.7374961  75.2892399  36.0336161  69.0575886
  75.7762671  35.2963281  69.4256115  74.8255873  36.4113522  69.8049688
  59.1173315   7.4145198  66.5598345  58.3873081   7.0415503  66.0656786
  59.2795753   8.2616311  66.1447334   9.6345174  55.5686665  60.8339643
   9.6677715  56.1257076  60.0562572   9.0106934  56.0047340  61.4144182
  67.6656628  65.9842920  25.6157875  66.8114519  66.1030722  26.0310578
  68.2007885  65.5592823  26.2860370  74.4610548  30.6447029  42.2306204
  74.5539999  30.6625032  43.1831312  73.7657833  31.2761593  42.0459747
  66.0889339  12.0001578  42.1748114  65.2938509  12.3830509  41.8040419
  66.6608334  11.8584716  41.4204311   0.5160067  35.7338858  50.5348444
   1.2375062  35.1562238  50.2858925  -0.2270749  35.4263854  50.0157070
  80.9072495  33.2018375  45.6020212  80.1943302  32.7647901  45.1362228
  80.6259060  33.2102537  46.5169048  80.2746964   8.9483577  50.4068565
  80.5150032   9.8586607  50.2341366  80.8712196   8.6709583  51.1021566
  21.3978720  35.6940222  15.3104627  21.7582822  36.4954972  15.6898999
  20.8560538  35.3221345  16.0064256  76.9481945  30.0299454  41.7722511
  77.4103308  30.8677816  41.7459345  76.0551882  30.2570176  42.0315075
  63.9980459   2.0680173  26.4902210  63.8931274   1.1244468  26.3681650
  64.0476274   2.1827152  27.4392319  83.2281208  31.9772005  44.7882318
  83.9635658  32.5890470  44.7567701  82.4659348  32.5278687  44.9673128
  73.8242912  18.4283006  -0.0758454  74.4115543  18.1182492   0.6135168
  73.2274103  19.0290821   0.3702769  54.9183989  14.4205642  35.0830555
  55.7003403  14.0231133  34.6998692  55.0534916  15.3625596  34.9799633
  87.2570038  14.6027696  60.1101780  88.1439304  14.9616849  60.1378107
  87.2496700  13.9297426  60.7907772  68.9166212  55.3801489  33.2557893
  69.1232204  54.4457102  33.2363272  69.7499704  55.8055353  33.4577918
  12.5742304  54.5133829  45.8741999  12.3935044  53.7228107  46.3826990
  11.8752372  54.5429802  45.2209282  61.5260601  55.6145811  62.7236032
  61.7350864  55.0837755  63.4922314  60.6438971  55.3387451  62.4747419
  54.4761229  58.8427877  26.5778756  54.7030449  57.9143763  26.6307497
  53.6313391  58.9086008  27.0231152  79.2058563   5.5841100  39.4599581
  79.7672939   5.2606446  38.7554073  78.3843422   5.8133727  39.0254641
  10.7998085  19.6224558  18.6310840  11.4546335  19.1213417  19.1172123
  11.1869228  20.4925942  18.5349917  21.0320377  28.8915944  61.9945621
  21.4192224  28.2524729  61.3963604  21.2536335  29.7412395  61.6134739
  61.3763142  43.4775257  54.8976040  60.7312441  43.1176090  55.5063534
  60.8539629  43.9265966  54.2329884  62.0029593  18.8721955  47.9384947
  62.6382971  18.5039246  48.5524607  61.6536045  18.1132615  47.4713755
  23.3814478  82.8281212   6.9206625  23.0558538  82.5324440   7.7708340
  22.6964951  82.5765133   6.3011730  74.2642021  51.6578865  19.8932254
  74.2598295  51.2952709  19.0073788  73.9857388  52.5668287  19.7813344
  13.0192983  79.8579359  12.4864209  12.6978254  79.4159555  11.7005813
  12.2281229  80.1650715  12.9290736  85.9703922  39.5642424  47.0922852
  86.9126511  39.4574380  47.2225618  85.8850098  39.8468781  46.1817598
   7.1349043  13.5847247  40.9178400   7.5816101  14.4218099  40.7914495
   6.9870853  13.5322988  41.8621016  18.8917744  49.4340944   3.9807343
  18.3318901  50.1769781   4.2063206  19.2276561  49.6432972   3.1091553
   1.0706674  68.9048290  64.1530991   1.7078552  68.4947586  64.7379637
   1.4181465  69.7832155  63.9984131  65.7722139  18.7250400  64.3506956
  66.3007355  17.9317641  64.2634869  66.2087584  19.3665171  63.7901926
  80.5384159  19.3347824  13.4357333  80.5564594  18.4110940  13.6861432
  79.7441769  19.4247043  12.9091096   6.5293765  24.5814919  44.7630835
   5.5881482  24.5634747  44.9362803   6.9141388  24.0738058  45.4775381
  67.9468679  59.2137814  67.7298069  67.9172802  58.4363222  67.1722174
  67.7126360  59.9358082  67.1466684  73.4513664  71.9768429  69.6256018
  73.6651707  72.8009653  69.1881657  73.7374306  71.2992716  69.0129900
  71.4277840  23.8053966  52.6501465  71.3340616  22.9342508  52.2647238
  70.7205677  24.3179297  52.2585106  85.3014660  37.3126864  44.3814135
  84.6988487  37.2226667  43.6431885  85.2376366  38.2343841  44.6316814
  70.2317572  29.7653961  33.1724024  69.4376087  29.9912024  32.6880765
  70.6726503  29.1187334  32.6213384  77.2470856  23.8049936  52.9935265
  76.5137196  24.0308118  52.4213314  76.8403769  23.6056423  53.8367844
  78.3210182  20.1697755  26.5658903  78.3285809  20.3734779  25.6306481
  79.2202187  20.3287697  26.8529272  35.0912094  80.8854866  53.6419535
  34.2880154  80.3955555  53.4656382  34.9862027  81.7015839  53.1528950
  66.5159130  24.8989463  53.5822296  67.0393991  24.2749643  54.0850639
  66.0394430  25.4000306  54.2441416  66.5476465  14.4843841  38.5110450
  65.6347561  14.2084169  38.5929012  66.5505028  15.0844991  37.7653337
  62.7356482  22.7073669  52.6882505  62.5770473  22.2326112  51.8723583
  63.5707426  23.1534529  52.5473452  76.7173624  67.6450872  38.0994534
  77.4130392  68.2982063  38.1749749  77.1751833  66.8046188  38.1149840
   9.4109881  25.4855657  48.1150198  10.1987064  24.9429870  48.1516361
   8.6877835  24.8585272  48.1205845   0.4853176  50.5741882  31.6737604
  -0.2832123  50.8918476  32.1477699   0.1614221  49.8333454  31.1614347
  72.8589582  55.3780890  68.0404806  71.9154549  55.3286505  67.8869009
  73.0060339  54.8250055  68.8077450  66.5638161   0.2060348  37.4012876
  67.0992422   0.3138979  36.6152120  65.7627153  -0.2149928  37.0895100
   4.4852063  67.8956842  46.0086489   3.8799527  67.7377272  45.2841187
   3.9249846  67.9393101  46.7835569  50.4709816  16.5589619  23.9124918
  51.3799047  16.3336086  23.7142372  50.4929781  17.4965537  24.1039896
  17.3426437  35.9337854  55.5103064  18.2529581  35.6393170  55.4811811
  17.1949649  36.1651134  56.4273167  87.3502827  21.9445920  58.7251234
  88.0246258  21.3765359  58.3525610  86.6548061  21.3451385  58.9956713
  70.7839727  33.9671803  33.9942670  71.7090273  33.8940549  34.2291236
  70.7782173  33.9555907  33.0371547  65.1576996  21.1020470  36.8738651
  64.6024227  21.4513922  36.1768317  65.3189087  21.8498945  37.4491644
  85.6982136   7.9365629  25.1877213  85.2747726   7.1007466  25.3835416
  85.5464172   8.0685025  24.2518878  67.9141808  30.8333158  32.2698069
  67.6575422  31.3135314  31.4825583  67.1787930  30.9492445  32.8714705
  63.6339998  80.5557632  28.4388161  62.7459097  80.8293343  28.6683512
  63.9863777  81.2871456  27.9317188   5.5009210  78.8801813   0.3286834
   5.3807229  78.0327225  -0.0998024   6.4470184  78.9528656   0.4545774
   3.3950239  55.1580334  64.2280102   3.9813712  55.6086159  64.8357964
   3.3587873  54.2583323  64.5527554  33.9669108  33.5871744   1.2691866
  34.7125149  33.3717895   0.7089020  34.2952371  33.4693980   2.1605694
  80.7573414  60.4807138  32.4718094  81.1138344  60.9578562  33.2211304
  81.4151382  60.5877733  31.7847323  69.2816019  25.1344824  51.4303637
  68.4126711  25.1207852  51.8316174  69.4259262  26.0529947  51.2028980
  60.3934002  14.7272313   0.3678894  60.2205467  15.3337133  -0.3522020
  60.7934237  15.2699590   1.0473444  20.6534171  55.7476330  33.4486008
  20.3552246  56.6537619  33.3695722  19.8475027  55.2320862  33.4793258
  79.0989780  38.3997655  32.0462298  78.4037876  38.8855600  31.6024446
  78.7687492  37.5028467  32.0983195  56.5017128  48.6489058  45.2249622
  55.7222986  48.3606577  45.6999969  56.2681007  48.5541677  44.3015528
  62.6349258  81.0775471  68.1655598  63.0184650  80.3067112  67.7473068
  62.7868795  80.9430122  69.1009951  64.2167187  56.0235310  43.0188131
  63.4882259  56.2925863  43.5783958  64.9082088  56.6590357  43.2037640
  65.4530907  32.7631831   3.5766292  65.2446795  33.6441803   3.2657552
  65.2781725  32.1964645   2.8253222  58.6023998  51.4016581  24.4514084
  57.8408432  51.4413118  25.0299335  58.2443380  51.1460590  23.6012959
  82.8168774   7.4230993  22.7784824  83.4861660   7.9277605  22.3163080
  82.2602463   7.0709628  22.0839405   9.2698127  56.4747810  20.3817010
   9.8035967  57.2058296  20.6929517   8.9090484  56.0854530  21.1782598
  70.3788710  27.8585005  35.4619980  70.5112219  28.4160542  36.2287092
  70.6134129  28.4139538  34.7185659  15.3845787  25.3640914  27.0198846
  16.2861323  25.4507732  27.3295927  15.2921498  24.4350600  26.8087196
  78.2503033  41.0888958  54.4533300  78.2677174  41.1884451  53.5014820
  78.9174891  40.4276276  54.6372366  68.5426378   6.4549476  50.6851912
  67.9110193   6.5554142  49.9730110  68.2100630   5.7184076  51.1981583
  40.7870722  80.6261921  18.8812721  40.1072502  81.2250042  19.1902971
  40.3838015  79.7595406  18.9315832  32.1708322  17.9794168  14.2686975
  32.3679519  18.1801379  13.3537722  31.5348220  18.6459291  14.5284724
  87.1819305   4.2142522  36.3972425  87.8322601   4.5220450  35.7659173
  87.2451305   4.8312658  37.1263051  70.7297134  43.1486225  50.0850344
  71.0306978  44.0557003  50.1384401  70.3028297  42.9879808  50.9265757
  35.1854253  78.4723568   2.6239964  34.3726683  78.9692545   2.7175462
  35.7353950  79.0166235   2.0604917  60.1417017   7.7747411  59.8961496
  60.6693077   8.5622102  60.0293970  60.6324196   7.2637355  59.2524862
  74.4097948  13.2942069  28.3053041  75.0674820  12.5989234  28.2890892
  73.6827230  12.9245043  28.8062191  54.4579077  25.1065350  43.9067745
  54.2254734  24.1979814  44.0984392  54.4368553  25.1627254  42.9514551
   3.8666946  34.8902631  19.8097396   3.5855201  35.5870795  20.4027128
   4.8223659  34.9019456  19.8625386  53.9297867   9.5471674  64.7862768
  53.1216669   9.1386008  65.0965118  54.5534420   9.4172293  65.5007029
   8.1028306  21.5029693  39.2595983   8.5020781  20.6419659  39.3841290
   7.8070718  21.7584729  40.1333714  55.4360151  21.6963291  49.1194296
  56.3359833  21.4239883  49.2986393  55.5146408  22.3269200  48.4036016
  83.1226444  34.6874571  17.5052440  83.7584209  34.8838568  16.8171740
  82.2770882  34.9258256  17.1251786   1.9866192  24.5778918  52.4646616
   1.1467765  24.1535330  52.2891188   1.8878610  25.4608917  52.1085835
  68.6763144  48.8641977  58.4676981  69.2366028  48.4333563  57.8221798
  67.8109121  48.8830996  58.0591011  86.5653419  42.3223162  46.0083675
  86.8620491  41.7356062  45.3126955  85.7141590  42.6399612  45.7070017
  70.0168800  13.4218132  23.3081555  70.3632641  14.2230213  22.9153228
  70.7637072  12.8234744  23.3299351  43.9630318  44.3147278  62.4063015
  44.4510984  44.8069525  61.7461967  44.1273594  44.7833872  63.2245827
  21.3271666  81.8479347   3.0812025  20.8423805  82.1293736   2.3053113
  21.4693785  80.9107876   2.9478997  19.4466674  80.9114647  52.0228624
  19.0202999  80.1834583  52.4750328  20.3115249  80.5745411  51.7888975
  32.2106099  18.4942424  58.8350010  32.3962665  17.7069283  58.3232403
  31.3659215  18.8006818  58.5051107  70.5995035   4.9246255  18.6722982
  69.7917128   5.3107208  18.3337200  70.6403112   4.0592483  18.2652485
  84.7796154   7.4166209  47.0300055  84.9496746   6.8267316  46.2956047
  85.4997444   8.0466306  47.0028925  77.2184658   6.4442891  55.6904793
  76.5958357   6.4080006  56.4165974  77.5273991   5.5433983  55.5946255
  83.0617714  65.2088070  32.6468444  82.7228451  64.5193338  32.0758867
  82.5810528  65.9941578  32.3853612  29.5074606  31.0074973  51.8318701
  29.4143009  31.2135839  50.9017706  28.6090016  30.9042859  52.1454811
  65.3838778  54.0245056  64.7120333  65.3428793  54.9440575  64.9746656
  66.2957048  53.7736177  64.8598766   8.8130754  33.9967418  50.9865332
   8.9091027  34.5615411  51.7533541   9.4429111  34.3424463  50.3540611
  14.2149758   7.7101755  34.4786263  14.2718542   7.7379912  33.5235238
  13.2867217   7.8478092  34.6673918  82.1862030  53.0219460  34.4503951
  82.3189449  53.5682821  33.6757159  81.3714314  53.3453608  34.8348117
  66.6464996  23.5863090  20.5963683  67.3745060  23.1289983  21.0172129
  66.7990303  24.5107460  20.7922840   0.4350144  34.8174620  20.4990840
   0.2592861  33.8798642  20.4199529  -0.3582001  35.2385998  20.1678967
  19.6490920  51.6800308  36.4297509  19.9879181  51.9079018  35.5640125
  18.7502837  51.3936329  36.2674141   1.1632328  58.6804962  32.3191905
   1.2532093  57.7277517  32.2988582   1.9558412  59.0050983  31.8918300
  75.1960993  41.5205240  19.3058646  74.4896603  41.7262650  18.6936140
  75.9644890  41.3905764  18.7500560  77.8382254  77.7234077  32.0452166
  77.6782608  77.7671814  32.9879403  78.7612963  77.4815464  31.9698882
  66.8701458  52.0363188  32.1311164  66.4896965  52.0176744  33.0092645
  67.7806902  51.7701912  32.2588778  56.2217236  15.3928781  39.3458152
  56.9384336  15.0352180  39.8698735  55.5356884  14.7269607  39.3920994
  15.5268121  62.1712923  51.8285990  15.9005904  62.9267073  52.2823334
  14.9870515  62.5512457  51.1353970  81.4902020  66.0957813  28.1711602
  82.2050762  66.6809702  28.4216428  81.6767502  65.2784157  28.6330557
  77.8785706  43.1949902  28.3218622  78.7143564  43.5679817  28.0415583
  77.2177553  43.7402344  27.8949404  33.8330030  61.2217093  69.5832109
  33.7485337  62.1471405  69.3537092  34.4652271  61.2098885  70.3018093
  82.4645329  41.5164280  44.4406652  82.5761604  42.0307159  45.2402163
  82.1199703  40.6759882  44.7426176  75.3406572  57.6625967  37.3674989
  75.5726719  58.5557842  37.1133041  75.4160452  57.6578999  38.3217144
  65.9135056  68.9895773  66.8846941  66.3597155  69.7395277  66.4913750
  66.3244343  68.8897419  67.7434158  47.3672676  56.6716671  53.0124235
  47.0069408  56.3276529  53.8297653  46.6210365  57.0825243  52.5758791
   7.8133518  22.0581555  56.5301132   7.1207452  22.4067044  55.9688282
   8.4151673  21.6233659  55.9259558  46.3716888  15.6326818   1.8072493
  46.9741058  15.9478259   1.1334467  45.8473110  16.3996792   2.0374049
  79.2829847  28.1209350  71.3186836  80.1580143  27.7773142  71.1384344
  78.7299204  27.7365184  70.6385565  31.3226485  51.3074398  19.1311204
  31.3399935  50.8025312  19.9441385  30.7843137  52.0720720  19.3354797
   1.1142001  28.6827207  60.5219889   0.8893652  28.4927845  59.6111631
   2.0712747  28.6825228  60.5374861  87.5476265  22.6140118  32.5053477
  87.0868301  22.8672266  33.3052135  88.2372475  23.2706642  32.4081278
  81.7380619  40.1556206  51.7708063  81.3468933  39.4243526  52.2487926
  82.4577808  39.7618222  51.2776995  86.8519878  52.4802160  45.1784372
  86.2971687  53.1194878  45.6253576  87.6987171  52.5479889  45.6196690
  43.8012266  58.8942385   3.7811595  44.7429132  58.9382267   3.9470655
  43.3998728  59.1823578   4.6009958  84.5312119  73.5818863  32.5463963
  84.9163437  73.5701513  31.6701722  84.0317822  74.3978691  32.5775981
  57.1332455  55.1075983  32.1753192  56.9655943  54.2282057  31.8365145
  56.4152622  55.6381941  31.8300676  26.1099792  60.7025051   0.6822883
  25.6053257  60.2819967  -0.0139370  26.8640971  60.1274824   0.8122648
  54.3725109  64.0931797  58.4947109  55.1134348  64.5102072  58.9344311
  53.7558556  64.8076105  58.3348322  68.9011431  73.4888649  64.5375824
  69.1284084  74.3410063  64.1655111  68.4471798  73.6974001  65.3540754
  52.8415108  60.5847311  38.4549809  52.8865004  60.3818178  39.3893433
  53.5115480  60.0291681  38.0567002  85.9477139  79.2538166  49.8614740
  86.2407398  78.8157415  49.0624380  85.1317692  79.6873569  49.6114779
  81.1611843  20.7356787  43.2169104  81.7391586  21.2659574  42.6682949
  81.1854744  21.1627603  44.0732050  86.7459774  49.5424509  45.8605623
  87.5324821  50.0863791  45.8183575  86.1898518  49.9753666  46.5082836
  20.9596443  13.6049986  62.8904200  20.8612752  14.4642246  62.4801922
  20.2220249  13.0943704  62.5566435  86.5992546  72.8956652  54.7153473
  87.3140430  72.8680086  55.3513765  86.1066437  73.6842346  54.9427891
  73.3680344  53.0876398  39.8364544  73.4239769  53.5972452  39.0281200
  72.9932642  53.6932898  40.4759598  57.8755760   6.5056038   0.0796235
  58.5267258   6.6521066   0.7657515  58.1972313   7.0101595  -0.6675013
  74.1543293  14.4536686   8.6226547  74.6400261  15.1092696   9.1231716
  73.2523298  14.7740090   8.6203057  46.1931849  43.7631607  59.9743652
  47.0198965  43.5452223  59.5439148  46.4420128  43.9885569  60.8707523
  82.7030849  51.4597368  58.2164526  83.2124233  52.2079611  57.9050636
  82.9229641  50.7516861  57.6110268   1.2865032  50.0840330  53.1460381
   1.5644893  50.9826136  53.3235455   1.4815032  49.6089983  53.9538431
  58.9942789  52.2221518  49.9676991  59.0829277  52.5432682  49.0703392
  59.1107893  51.2748051  49.8956919  64.7183800  49.2286062  14.3570054
  64.8827076  50.0804377  14.7614968  65.3095913  48.6291742  14.8123991
  32.0885086  12.8651750  19.8915827  31.9690776  12.1505833  19.2660213
  32.6259446  12.4869454  20.5875254   9.3241668  19.9008155  42.7514124
   9.7116339  19.2021894  43.2786894   9.8434609  19.9101448  41.9473743
  59.3174171  33.7117743  56.3852787  58.7658453  34.4934487  56.3538551
  59.5414686  33.6137843  57.3107147   3.4876159  36.7918634  39.0270925
   4.3181664  36.4618516  38.6842966   2.8583708  36.0945439  38.8426256
  15.9774208  28.6235261  45.1512766  16.6763818  29.1027045  44.7062254
  15.6541848  29.2329240  45.8148909  74.6213102   5.2979583   4.4397327
  74.2585611   5.5163610   5.2981877  74.0567827   4.5977348   4.1122714
  21.0687590  62.4098778  34.2427683  20.8386898  61.7435551  33.5952282
  21.6170144  63.0308056  33.7630820   1.7773938  29.9818230  19.9356830
   0.9677337  29.4926190  19.7895253   2.2305700  29.9521708  19.0930772
  20.6192231  36.8805146  43.6799335  20.0522828  37.1166468  42.9457283
  20.0533605  36.3808155  44.2684317   6.2422878  20.8781600  58.7971687
   6.5694481  21.0590720  57.9159975   5.8247936  21.6951394  59.0700722
  59.4681263  17.4063313  41.3591337  58.9441967  16.6751373  41.6863680
  58.8400412  17.9650390  40.9013271  14.3733799  37.5248766  71.3853693
  14.0478218  38.3781195  71.0986328  14.8613977  37.7118826  72.1873045
  31.2916589  72.8833103  37.1283865  30.6936264  72.5710106  36.4493752
  30.8113194  73.5863209  37.5657439  84.4001770  40.4103470  33.9654970
  84.7431946  41.1579180  34.4550943  83.9568806  40.8004570  33.2121515
  71.4947653  71.4151049  54.0263271  70.7863140  71.3135624  54.6619511
  71.0791779  71.2613535  53.1778717  48.7390709  72.8395033  15.5007887
  49.4667864  72.8827524  14.8804736  49.0385723  72.2346878  16.1795604
  54.8985481  26.3678479  46.3881207  54.6566725  25.9948826  45.5404043
  54.7376728  27.3064733  46.2915039  71.5009069   4.4129497   5.7885802
  72.2700500   4.1856584   6.3110620  70.9320211   3.6458907   5.8535546
   8.0811429  61.9100618  50.0819874   7.9942137  61.9094324  51.0352325
   8.3225739  61.0100889  49.8629045   3.7597165  18.3881903  40.3222942
   3.4808260  18.6119401  39.4343805   4.7129887  18.3234358  40.2647543
  58.5439062  15.6728458  35.7581043  57.8704739  15.8819818  36.4053941
  58.2478857  16.1042583  34.9565530  79.1030645  12.3867857  35.8093381
  78.7791634  12.3148847  34.9114776  79.8474455  11.7860281  35.8442569
  38.9532399  69.6936750  30.3533816  39.6117330  69.0247488  30.5408740
  38.8641095  69.6815634  29.4004178   5.7310653   9.5585656  16.4911592
   6.1408776   8.7267959  16.2535787   5.0313216   9.6731001  15.8481407
  79.3823862  81.6728783  20.3583550  79.6352196  81.6988373  19.4355142
  78.4595728  81.4188957  20.3468156  55.5515766  11.2355626  11.7098451
  55.6826782  10.2944601  11.5942204  55.1881742  11.3202488  12.5913215
  48.8250685  66.3743210  16.5122795  48.0415487  65.8336973  16.4119959
  49.1615582  66.1497974  17.3798025  56.7458487   7.6662791  49.3903017
  57.1389055   8.5247016  49.5479393  55.9497881   7.8549606  48.8933945
  60.2680397  77.5585508  58.0392456  60.3419495  76.6917229  57.6400280
  61.1517525  77.7552462  58.3500385  63.8780737  11.3721371  10.7461929
  63.0728626  11.0898912  11.1800206  64.5420504  10.7513928  11.0462630
  23.6765909  16.2276077  40.1702499  24.3306780  16.8073463  40.5605125
  24.1737270  15.6807554  39.5619416  49.1301060  80.7883644  39.5685267
  48.5177279  80.4458237  40.2195930  48.5715008  81.1787605  38.8963795
   6.6475296   0.4810648  19.8298573   6.9709355  -0.1565476  20.4663253
   7.4253005   0.9737573  19.5680213  61.1104155  21.4242506  18.4707057
  61.0969734  21.1757135  17.5464320  61.9853544  21.7872190  18.6084223
  71.4690638  39.6404958  25.8547568  71.3244057  40.3512716  25.2301741
  70.6070900  39.2390442  25.9646106  69.3854475  31.5275764  18.4580970
  69.3449545  32.4052143  18.8380265  69.6953869  30.9712863  19.1727352
  12.4655151  62.8300333  66.8724632  12.1354461  62.0717669  67.3544550
  12.4783778  63.5369349  67.5177193   4.0460107  24.4716692  23.5151172
   4.4006726  24.6066546  22.6363540   3.2079655  24.9341321  23.5088181
  75.7123899  58.7411880  69.0293360  75.7661629  59.3175936  68.2670355
  74.7775888  58.6963701  69.2302561  28.8071585  64.6316767  11.9111884
  29.2202568  64.9753857  11.1190736  29.3744206  64.9255753  12.6239789
  72.6357079  15.8304119  19.1192949  72.4679995  15.4775739  19.9931443
  71.7923164  15.7699513  18.6706638  79.7190523  51.1896753  20.4117918
  79.2883205  51.3670444  21.2479997  79.3393707  51.8269730  19.8068726
  34.3602157  71.1508560  29.4904566  33.9603972  72.0139503  29.5974588
  34.2263699  70.7186508  30.3339720  54.2702770  18.1568241  33.1073594
  53.3174324  18.2340157  33.1559443  54.4967318  18.5208118  32.2515178
  52.5138903  43.6366463  41.0499096  53.1243086  43.0783319  40.5683422
  52.8021097  43.5767889  41.9607210  46.0101891  64.9480200  44.1698217
  45.2720213  64.6761370  44.7151852  46.1990118  64.1844511  43.6243534
   4.2783970   5.6259680  27.3782659   3.4907463   5.2409881  26.9940400
   4.1338450   5.5742711  28.3230734  29.3395376  14.5952463  40.0159454
  29.0296936  15.4281151  40.3716946  29.1478205  14.6485829  39.0796590
  79.9558973  20.4535031  55.9816408  80.5912209  19.7630286  56.1709595
  80.4750347  21.1557770  55.5898046   6.6998369   4.7055206  20.5177450
   5.7752454   4.4584131  20.5004191   6.8302649   5.0843281  21.3870692
  64.7180462  31.3854599  20.3690505  65.0345039  30.5050159  20.1667976
  65.3216887  31.9685507  19.9087739  12.3133433   2.4734224  18.1525004
  12.2312248   3.4165174  18.0108654  13.2557642   2.3082010  18.1246233
  75.6738234  26.6261125  24.1227651  75.3338051  26.1143136  24.8567152
  76.1071777  27.3745179  24.5330381  67.6400995  79.6352434  52.6184702
  67.9026508  78.7573528  52.8952551  68.4654617  80.0922298  52.4566889
  17.5794959   4.7672105  15.9524238  16.9890380   4.4456106  16.6337204
  18.2675004   5.2300084  16.4306498  14.3599415  41.9895935  21.8006706
  13.5569143  41.5329409  21.5499759  14.6305919  41.5679502  22.6162672
  75.9339714  10.8419645  43.4682369  74.9957991  10.8181417  43.2798529
  76.2523746   9.9773341  43.2088757   9.5033485  15.2714193   0.1276926
   9.0361691  14.8733461   0.8622082   9.3176121  14.6960509  -0.6143896
  28.7782669  24.2308116  21.3089609  29.2737436  24.7984719  21.8992949
  28.8396645  23.3615327  21.7049599  48.1096601  80.0341988  46.4512253
  47.7808809  79.7758198  45.5901957  48.9965773  80.3526306  46.2832689
  39.5998836  80.9718037  38.1045818  39.0031576  80.3568459  38.5311794
  39.1823554  81.8260860  38.2145953  52.1303988  78.1100941  45.7777834
  51.9528008  78.4614277  46.6502810  52.3506403  77.1910810  45.9299088
  40.9261465   9.3838233  30.6017256  41.1199188   8.9063394  29.7950697
  41.6767740   9.2094004  31.1694980  58.0786514  76.2126350  42.9456997
  57.6134300  75.9075880  42.1667576  58.5703611  76.9775581  42.6467943
  41.7176437  80.6523705  24.5773697  41.1605883  80.1225948  24.0070581
  41.1963511  80.7800388  25.3699493  14.5914090  15.6217039  44.7084522
  14.9622238  16.3295698  44.1815233  14.5280230  15.9877193  45.5906343
  14.2623305  11.1816561  49.9506283  14.3171763  10.2298737  49.8649883
  14.8195386  11.3870931  50.7013226  18.2457566  25.4111195  21.2504196
  18.0736518  26.1091518  20.6184697  19.1717482  25.5109811  21.4713240
  79.1757202  16.4392507   7.8372651  78.4261751  16.8604183   7.4165100
  79.2180967  16.8384326   8.7062246  80.6719875  45.1990891  29.6964836
  81.2559414  45.8130026  29.2511368  79.8511839  45.6807613  29.7989964
  21.6697645   8.6693740  64.4961500  22.3675871   9.0556216  63.9669180
  22.0109868   8.6845428  65.3903389  63.2390404  77.4693298  28.0254626
  63.3366394  78.1825638  28.6563349  63.4427691  77.8682518  27.1795392
  54.2124176  79.6205521  41.0375261  54.8663282  79.1338205  41.5392447
  54.0708637  79.0918970  40.2522087  73.7259007  18.8071120  67.2167444
  74.2018270  18.9523566  68.0344439  74.3465757  19.0542161  66.5312243
   5.5290043  26.8503857  33.4686279   5.7363272  27.4902678  32.7875996
   6.3605350  26.7019033  33.9188957   0.0315496  12.3550618  35.7106853
  -0.4783247  13.1618190  35.7841897   0.5088888  12.4476874  34.8861861
  86.8937397  49.5335674  21.8936348  87.2709560  49.6025515  21.0166049
  85.9925652  49.2472076  21.7449164   4.9398232  21.4381075  25.7410288
   4.7856182  20.5031180  25.8761120   4.7572905  21.5791988  24.8120475
  11.0604405  41.8315125   2.3856357  11.2416506  41.6877651   3.3144689
  10.1158643  41.9813728   2.3462838   9.1058820  74.6693134  69.7521544
   8.3143514  74.5993471  69.2184687   9.7068447  74.0270138  69.3746233
  -0.2349396  11.4989078  53.3267117   0.1137524  12.1675122  53.9162970
   0.2647858  11.6087627  52.5177383  23.7558222  24.4928789  30.4561734
  22.8153396  24.6129870  30.5876970  24.1517925  25.2836633  30.8223677
  86.0784531  14.7357750  29.4985557  85.2919292  14.2479479  29.2543530
  86.4251614  15.0623703  28.6682796  59.8635578   0.5256405  62.2729969
  59.6509981   1.4520268  62.1595955  60.8126354   0.4816748  62.1565723
  44.2326736  78.5086155  24.0326834  43.4229994  78.9590216  24.2730856
  44.9010372  79.1936922  24.0465426  51.9142962  77.0593500  42.1550131
  51.6402626  77.6969337  41.4957523  51.4750433  76.2478542  41.9005346
  61.7714453  73.3584356  34.0839028  62.6178837  72.9148388  34.1385865
  61.2164545  72.7553129  33.5894704   0.4704717  16.9119430  38.9389801
  -0.1490122  16.1999130  38.7793398   1.1375545  16.8055964  38.2608032
  67.3734999   0.8752321  34.6668148  66.7629528   0.1416269  34.5941067
  68.2157612   0.5141694  34.3903065  75.4436207  36.3762069  30.4866815
  75.1003075  36.7530894  29.6765399  76.2397718  35.9172845  30.2187896
   5.5467457  31.5811419  17.1322978   5.8609289  32.2676468  16.5438831
   5.7272089  31.9171023  18.0102468  79.5628786   7.7160817  17.7367282
  79.9594545   8.3603489  18.3231401  79.9061918   6.8748349  18.0378413
  59.1779566  30.6379747   9.0284729  59.7500372  31.1007190   9.6407020
  58.4628248  30.3073931   9.5721030  13.7450302  16.5143597  10.7668543
  13.3327746  16.8926895  11.5434766  13.1712842  15.7888484  10.5205190
  40.5370092  70.7235956  22.6068974  40.7582760  71.2004900  23.4067988
  41.3239288  70.7858419  22.0654964  57.7783346  46.9596004   5.9830695
  58.0445528  46.0603523   5.7914799  56.9174862  47.0469046   5.5737400
  80.4927731   2.9150608  63.1917715  79.9250984   2.3602059  62.6568747
  81.2679195   2.3777480  63.3550930  34.8597121   2.2862953   5.7452375
  35.7514238   2.1853828   6.0782492  34.3045688   2.2152108   6.5217662
  37.1192098  76.0589695  41.4072371  37.5969911  75.8767414  42.2164011
  36.3507485  75.4898357  41.4494801   2.0771149  41.3151169  67.4375153
   2.9171649  41.4863777  67.0118189   2.2881785  41.2574577  68.3693743
  83.6809635  53.4785748  48.8315392  83.2065201  52.9973125  49.5094204
  82.9953384  53.8928747  48.3076096  75.9556580  22.2345829  12.4005663
  76.0659409  22.7871275  11.6267681  75.4181528  22.7586293  12.9944456
  55.3663731  62.5292206  12.9859829  55.4830313  62.1422291  13.8536584
  56.2110186  62.9340792  12.7887678  66.0991096  18.2469332  29.9304390
  65.1539946  18.0954266  29.9363160  66.4218235  17.7186954  29.2003369
  81.1220455  13.6380029  43.8166523  81.3838387  12.8619730  43.3211994
  80.7671356  14.2345154  43.1575346  49.8471308  44.4909430   0.9547315
  49.7939253  43.9578772   0.1614832  50.7396412  44.8368406   0.9514382
  78.3116627  46.1859894  30.5507874  78.3715343  46.4208078  31.4768028
  77.4637461  45.7494974  30.4687142  34.6156311  81.8833065  30.1714635
  34.8301888  81.4543438  30.9998250  33.8911676  81.3686275  29.8158169
  50.1877308  12.4416924  17.1469879  50.6760502  11.9850481  16.4619696
  49.9588013  11.7566609  17.7751255  20.5840254  42.5485611  18.2043087
  20.8232212  42.0046711  17.4538422  20.9193730  43.4182167  17.9864168
  36.6474771  17.9521513  14.3558919  35.8359408  17.6153862  14.7356701
  37.2666001  17.9641044  15.0858057  54.3693924  66.3838005   1.3283619
  54.3845844  66.3789558   2.2854292  53.4497690  66.5260744   1.1041310
   9.5317227   9.1504896   5.7092679   9.1479981   8.4352094   5.2019596
   9.2189491   9.9452746   5.2771550  36.4603567  14.2421007  18.5198045
  37.2997427  13.8822758  18.2331240  36.6400313  15.1679146  18.6835623
  64.2537260  34.3934608   0.6531222  63.4560680  33.8691783   0.7245031
  64.2316580  34.9684644   1.4180501  35.5789232  25.9073853  56.6356945
  35.4869628  25.2979350  55.9033346  35.3295159  25.3961182  57.4055195
  11.0429358  82.1162319  42.5365543  10.2813780  81.5710068  42.3391056
  10.7697141  82.6475048  43.2844400  23.6596704  73.5969400   1.5161231
  23.4922457  73.2967472   0.6227656  24.5412159  73.9684105   1.4827165
  63.7748289  45.3943157  55.6707239  63.1419611  45.7372713  55.0397778
  63.5392904  44.4717550  55.7688761  66.9378710  16.8909824  27.9326844
  66.9842148  17.3113561  27.0739818  66.3363791  16.1569130  27.8078461
  36.6514587  58.0202532  61.4948034  36.6857505  58.8878727  61.8976688
  35.7815528  57.6877069  61.7159510  74.8905420  24.5915389  65.7326651
  74.0264130  24.7218060  65.3420925  75.4053450  24.1747427  65.0416565
  47.7205420  66.5140057   0.3331491  47.0139647  66.1756563   0.8831553
  48.4838533  66.5357637   0.9103044  82.5611115  24.4628382  37.7025437
  82.3697472  25.0292635  38.4500551  82.1323586  23.6336684  37.9143834
  33.9239669  80.5153561  32.6485872  34.0089488  79.6106625  32.3476863
  33.0022788  80.6011486  32.8922296  78.5892820   5.3933138  13.9412236
  79.3048573   5.9063089  13.5656941  77.8614235   6.0112679  14.0089476
  56.2657166  69.4075918  49.1969347  57.0721197  69.9208689  49.1469717
  55.7597542  69.6813726  48.4318972  68.9110518  66.9607401  60.3920364
  69.3406916  67.5746346  59.7964048  68.6581039  67.4948788  61.1449957
  55.6883001   8.7471014  14.2844701  54.8577166   8.3894485  14.5982325
  55.6868935   9.6556616  14.5857131  58.4528494  58.7388372  24.9644780
  58.6267757  59.4947004  24.4035387  58.0776548  59.1133308  25.7614827
  15.3013825  62.4192619  66.9231844  14.3519151  62.4793959  66.8176985
  15.4221547  61.8608189  67.6911592  28.5655785  16.8514240  49.3423462
  29.3043876  17.3533046  49.6865940  27.9252410  16.8492329  50.0538206
  67.3116779   5.6773430  33.7587404  67.0473957   6.0410517  32.9136944
  66.9759750   4.7809926  33.7492394  64.7927046   2.0030876  21.9799089
  63.8939142   1.6961107  22.0989704  65.2256584   1.8042871  22.8101277
  31.2795424  50.4573822  11.6097856  31.0103226  50.1386452  10.7482982
  30.7269454  49.9770212  12.2263241  30.3799558  11.7335880   9.6580946
  30.9040976  10.9824193   9.3801481  30.8424568  12.4928081   9.3032557
  13.5207868  67.3697853  47.5853682  14.2972636  66.9808722  47.9879379
  13.8598835  68.0991364  47.0664358  22.3749113  24.6669626  69.2187119
  21.7616630  23.9347339  69.2819595  23.2144356  24.3009996  69.4970989
  10.9071445  56.0196114  32.8067040  10.2265012  55.5484295  32.3261380
  11.0042548  55.5317879  33.6245227  72.3161983  12.2108877  13.5703397
  72.8914118  11.4838624  13.8086653  72.0690346  12.6049185  14.4069290
  17.5090325  29.4584107  49.9158335  17.8509259  28.7872791  50.5065346
  18.0277836  29.3614101  49.1172600  33.1542182  65.1786184  16.7037416
  33.2735181  65.7064295  15.9141767  32.2277331  64.9382973  16.6934669
  86.2421703   5.5505186  12.1065784  85.9897804   4.7702649  12.6002741
  85.6973457   6.2494731  12.4683261  10.3516102  18.8029444  68.7207460
  10.2880430  17.8625011  68.5541391   9.6163642  19.1817760  68.2389450
  51.5298319  51.6773939   4.9700400  51.8140507  51.0492182   5.6340021
  50.6995440  52.0182800   5.3026783  63.9164352   2.0450209  41.7393446
  64.5191622   1.9567326  41.0009956  64.3674278   1.6199568  42.4688339
  33.4410572  11.4287865  53.8330936  33.9923334  11.5930176  54.5981789
  33.5335422  10.4904377  53.6682224   1.2901586  40.9417343  61.2141705
   0.8175161  40.1388931  60.9944391   0.8789036  41.6170597  60.6746864
  80.6607151  67.6962233  58.7122679  79.7676182  67.7567148  58.3732271
  81.1768627  67.3772812  57.9719305  40.9378290  16.3109171  55.0152111
  41.0748386  16.7070019  54.1546440  41.7030764  16.5760148  55.5254650
  61.9619989  20.8239555  65.4438543  62.1356487  21.3247991  64.6468401
  61.2569904  20.2238584  65.2007961  14.8786378  33.1332469  70.3701305
  15.0802410  32.7806282  69.5033884  15.6938994  33.0387211  70.8627224
  51.4879513   5.6273204   1.9089445  51.8408012   6.0738587   2.6785749
  50.9183121   6.2761796   1.4957555  47.1389771  62.5688744  66.0301113
  46.9282818  63.0719090  65.2434731  46.3146114  62.5255632  66.5146542
  10.5346668  71.5460253  28.8554764  10.1048422  71.4997435  28.0014610
  10.7347536  72.4746847  28.9728928  39.3323946  75.4298449   9.8394758
  40.0818062  74.8390245   9.7650176  39.4997573  76.1121130   9.1892946
   2.2366719   1.6283624  21.6996074   2.1452592   0.7918669  21.2433720
   1.4940166   1.6545275  22.3029399  37.1704268  10.7905316  17.6933563
  36.7658043  11.6181624  17.9532361  38.0191612  10.7894897  18.1359434
   4.7630700  39.6930456  68.1625652   5.1256800  39.9294639  69.0162945
   4.1875201  38.9500976  68.3442259  83.6961269  75.9682322  65.9459019
  84.0018845  75.7568693  65.0638199  84.4074917  76.4811134  66.3294935
  75.8796883  69.4469690  25.6004071  76.3920164  70.2259207  25.3836393
  75.4154873  69.6815777  26.4039683  41.9814348  67.8402328  12.1741664
  42.3002720  67.6362658  13.0533540  42.4801636  67.2608566  11.5981257
  85.2705956  12.4562895   5.3098518  85.1772404  11.7693257   4.6498531
  84.5044994  13.0159724   5.1830256  70.7061243  14.7627163  32.7217007
  71.2163258  14.7006392  33.5292125  70.0205612  15.4006171  32.9199839
  61.6125298  64.8604250  24.3461180  60.9966183  65.3853750  24.8573017
  62.4740839  65.2033186  24.5835543  73.4472609  17.0800698  12.1558511
  73.9331102  17.8847671  12.3365271  72.5799942  17.3799384  11.8835282
  47.3961782   8.2667470  13.6793280  46.8996382   7.4652755  13.8446224
  47.7368546   8.1586033  12.7913654  12.5227273  40.3170776  10.1208615
  12.5439322  40.5610895  11.0461938  13.1632733  39.6098542  10.0449193
  11.5514588   7.0968240  22.5043440  11.9987476   6.7243785  23.2642460
  11.4043939   6.3504368  21.9233894  41.2817526  17.3376513  47.6812029
  40.5483103  17.0462084  48.2228279  41.1421824  16.9075978  46.8375158
  80.4388714  32.1005011   0.1981534  80.3807068  31.1761665   0.4399252
  80.4742622  32.5650167   1.0343379   0.2700374  80.6481647  54.2314386
   1.1106271  80.1946259  54.1686916   0.1039958  80.9685707  53.3448744
  77.4632311   9.8670530   3.8258341  76.8604565   9.1807157   3.5397676
  77.4479532  10.5100000   3.1168789  68.9405251  79.0649176  35.7931399
  68.0348349  79.1066265  35.4861808  69.4223738  79.6372461  35.1960683
  18.2145345  64.4739389  23.7944388  17.6839280  63.6819267  23.7083983
  19.0894938  64.2079401  23.5117340   9.4293147  46.8784904  71.3953257
   9.1219676  45.9968519  71.6062307   9.5097166  46.8823338  70.4415178
  50.7590103  56.0338402   4.5385340  51.4967871  56.0155582   3.9289623
  50.0646210  55.5525398   4.0886334  41.4208031  70.3791618   3.6722830
  42.3732519  70.3934479   3.5781217  41.1004305  70.0805426   2.8211546
  18.2491696  27.6517415  18.5405135  18.0137241  28.3788157  17.9641783
  18.1037152  26.8685794  18.0097318  60.9634256   0.5182901  11.9851208
  60.5774069   0.7048603  11.1293089  60.5350113   1.1334307  12.5803483
  79.6350574  38.8050699  16.1475420  78.7073898  38.9637685  15.9729636
  80.0757217  39.0370893  15.3300977  58.0290461  77.4526167   9.8884243
  58.3393812  78.2663918   9.4913226  57.9840565  77.6450682  10.8249974
  32.2135997  11.6426861  13.4557390  32.3485756  12.2490335  12.7274835
  31.5076399  11.0674834  13.1607890  84.3100548  21.7796421   5.7127744
  83.9607811  20.9104705   5.5158585  85.0161171  21.9033933   5.0784314
  12.4331522  17.1368611   2.8420350  12.2990966  16.2260413   2.5799885
  13.1433225  17.0997107   3.4827456  11.6602528  15.2357006  13.3442783
  12.2584081  15.9770298  13.4384787  11.7307818  14.9866354  12.4227452
  59.7103882  28.7117505  21.5989327  59.7292757  28.9103246  20.6627488
  58.8279057  28.3752799  21.7546511  62.1466208  56.7881155  53.2018661
  63.0241442  56.4172411  53.2947731  62.2860956  57.7350903  53.1970549
  24.5335174  10.1415646  17.9676509  23.6890578  10.1409495  18.4183371
  25.1051688   9.6181780  18.5293555  64.0852690  79.3133688   8.9082646
  63.1471348  79.2811012   9.0956134  64.1619635  79.9219131   8.1734014
  25.9300804  65.0852394  68.2793427  25.7691717  64.2470694  68.7127161
  25.2389932  65.6608295  68.6069536  48.5785389  40.9414387  71.3057756
  48.1937075  41.4786959  70.6133223  47.8566647  40.3925848  71.6121960
  19.1122019  22.4595881  23.5797644  19.7814691  22.4639511  22.8954434
  18.9720428  21.5323806  23.7717962  23.7423372  26.5490556  44.2009830
  23.7461805  27.1947551  44.9075890  22.8178024  26.3334608  44.0785694
   4.8143759  46.1053991   1.8937071   5.4621470  46.5030050   1.3118711
   4.3228012  46.8468094   2.2471124  13.1970227  11.5633118  20.3884649
  13.7662768  11.4518237  19.6270514  13.2865107  12.4874783  20.6211495
   4.3634862  42.6321363  21.4071298   4.4232023  41.7433882  21.7575431
   5.2734756  42.9064751  21.2935972  17.2216487  34.8155212  67.0250177
  16.8682671  33.9585543  67.2636843  16.6663861  35.4414797  67.4898720
  19.5937669  40.5897093  59.5961189  19.8688340  41.4532137  59.2880106
  19.5320129  40.6830788  60.5467510  65.7486343  23.1343126  44.7188234
  66.6249704  23.2101870  44.3413115  65.7459068  22.2786236  45.1478004
  12.9863107  62.8014755  62.3415947  12.7140343  63.3178711  63.1001663
  12.5424230  63.2128525  61.5999985  86.6581726   7.6842785   8.5252845
  86.0484791   7.5822538   7.7944648  87.5032425   7.4050665   8.1729615
  23.2892013  62.5726509  69.8133945  23.2906079  61.6320753  69.9910069
  24.1931629  62.7717018  69.5695448   3.9196169   7.3901796  37.5597239
   4.3610445   6.6024709  37.2420931   3.8057712   7.9322243  36.7790461
  58.4116411  12.2717226   7.4295950  57.5126457  12.3207653   7.7546132
  58.6748552  11.3653409   7.5890344  46.8258953  42.1043968  49.4829845
  47.0940447  42.6980209  48.7816000  45.9826183  41.7564964  49.1930056
  18.2113922  64.7912598   6.5046448  18.0066633  65.4557848   5.8468264
  19.1646588  64.8206663   6.5861857  24.2222881   7.9519385  71.2798119
  23.8756895   7.5565606  70.4799509  24.3233585   8.8790804  71.0643482
  70.3888321  58.7365341  19.6375525  69.9910831  59.1594315  18.8765109
  69.6888685  58.1965590  20.0045753  39.9257255  63.7766647   3.1313378
  39.7179556  63.8101768   4.0651149  40.8380938  63.4889412   3.0991524
  60.0547075   5.8073354  17.8666484  60.3924179   5.1539546  18.4792471
  59.1231203   5.6022310  17.7872050  43.3750057  70.8529139  21.8787360
  43.6807728  70.3383398  21.1317730  44.1725445  71.2229204  22.2572327
  42.9555273  80.2549458   7.7666092  42.0725727  80.3348923   7.4057329
  43.2179976  79.3577051   7.5609356   2.1529351   7.7677071  17.4784231
   1.8805353   6.8918961  17.7522564   1.3565490   8.1681079  17.1295965
  35.7490373  46.2287426  66.5145969  36.0040188  45.4971695  67.0767498
  34.8569703  46.4417505  66.7885971  15.6017482  65.6927109  12.8262281
  15.0647175  66.4311314  12.5388944  15.5509627  65.0648546  12.1055007
  77.3643589  30.0962138  13.8049698  77.5841618  29.2890930  13.3397043
  77.8198147  30.0209236  14.6434963  48.3253765  33.2338619   5.3820896
  48.6032438  33.1980968   6.2973732  47.6956034  32.5183177   5.2948368
  43.7003708  81.7579746  63.9868975  43.9046717  82.2205925  64.7995949
  43.0469465  82.3086548  63.5555935  13.5464334  24.1500068  39.2044616
  13.0787325  24.9297857  39.5035076  14.1806042  24.4803953  38.5681415
  25.1396871  52.5627756  64.5617342  25.0419426  51.7497206  64.0661383
  24.8054552  53.2420111  63.9759350  13.0493617   1.1779024  20.7350445
  13.0138099   0.2220830  20.6979346  13.4111500   1.4372037  19.8876333
  28.9653182  29.4564009  49.1020966  28.7029314  29.4694257  48.1816530
  29.5114207  30.2355671  49.2065239  66.8575239  19.1104293   9.3398595
  66.8413448  19.6903455   8.5785007  65.9356022  18.9282751   9.5218259
  87.7872562  35.1540065  30.0586867  87.8621578  35.7863832  29.3440390
  86.8505001  34.9652743  30.1143074  62.7080536  12.1317017  67.4590778
  62.2219706  12.0014787  68.2733250  62.0528221  12.0256448  66.7693996
   3.7443000  64.2364740  70.1871490   2.9752979  63.8777018  69.7442627
   3.6879647  65.1803112  70.0380278  26.8361092  67.4399805  50.8532524
  26.3350964  66.6289377  50.7670593  27.6856637  67.1615076  51.1952209
  22.4620438  76.6178370  67.6333284  21.6396976  77.0931625  67.7518368
  22.4809957  75.9885359  68.3543348  84.6968746  26.8921995   1.8241920
  84.9803257  26.5641785   0.9707933  85.2731228  27.6364446   1.9981693
   7.6840144  75.1736021  59.7496128   8.1223381  74.9337578  58.9331722
   8.1858301  74.7265053  60.4311705   7.1932244  68.3950520  54.9419928
   7.4056637  68.6029577  54.0321159   7.6017749  69.0962505  55.4495764
  76.0915613   1.9061963   8.2175183  76.0537767   1.5569319   7.3271149
  76.2348938   1.1379719   8.7702549  80.2970123  63.7355852  42.2561789
  80.6046963  64.1584063  41.4544392  79.3433523  63.7316322  42.1740580
   7.8682798   5.7329327  14.1634715   7.4717075   4.8621246  14.1890657
   8.5025221   5.6863415  13.4480715  24.9914503  69.4242668  65.5125570
  24.5150948  68.8236094  64.9393845  24.8777199  70.2835941  65.1065350
   4.9430129  72.7990103  20.2984762   5.8534437  72.8797722  20.0141764
   4.4439274  73.2907963  19.6463287  62.5100565  75.4505587  51.5542126
  61.6150093  75.7720947  51.6625500  62.9817963  76.1837959  51.1591673
  68.5832357  48.8473701  61.6764927  68.8458300  48.5896301  60.7928371
  68.4232140  49.7890091  61.6137314  10.8825660   4.0349081  50.3688478
  10.6249702   3.5775247  51.1692715  11.6342926   4.5674768  50.6286716
  26.5219569  60.3142548  67.3730469  27.2561574  60.0146437  66.8369341
  25.7452583  59.9835730  66.9217968  86.5519524  19.6165538  12.7780437
  85.7492542  19.4199193  13.2609940  86.9504547  18.7612021  12.6174116
  10.7461429  60.4047871  64.5054245  10.5023956  61.3302851  64.4887877
  10.2579069  60.0417662  65.2443886   3.7979451  17.5979698  21.3482451
   4.7227859  17.3805141  21.2315655   3.5587135  18.0645096  20.5474091
  45.5593538  63.0468702  31.4474249  44.7372580  62.8593683  31.9004512
  45.5525541  63.9957619  31.3217521  85.1167583  40.0125074  44.4799376
  85.8060837  40.2928352  43.8778734  84.3764687  40.5853701  44.2798710
  67.6509953  13.6150610  28.1979942  68.3912182  13.1636512  28.6036205
  67.8254700  14.5441389  28.3483410  57.6204252  16.0724056  51.8115807
  57.9664469  15.4840791  51.1404848  57.3415470  16.8498683  51.3278389
  68.9839554  50.1357412  13.7389100  68.4961843  49.4443846  14.1864955
  69.8776340  49.7981071  13.6790836  80.5366707  50.2130795   0.9053821
  80.5280209  51.1463404   0.6928289  80.3311157  50.1782894   1.8396030
  39.0655589  40.8285809  67.0418596  39.4095492  41.7009258  67.2339964
  38.3771515  40.9798717  66.3942194  41.8791294  73.9177513   9.0267551
  42.6211262  73.4097433   9.3547934  42.2652340  74.5260620   8.3965868
  36.8734884  77.8659487   5.6657785  37.2746181  77.0230484   5.8775663
  37.5046849  78.2927513   5.0864154  65.6742382  71.5319109  28.8969016
  66.1500931  70.7088184  29.0078545  66.2959385  72.2066498  29.1697478
  86.8349171  16.1546326  65.0480318  86.4563274  17.0000505  65.2892065
  86.7184925  16.1019313  64.0994024  37.0137405  81.0202885   1.8140353
  37.7697039  80.9742165   1.2286907  36.7424870  81.9377327   1.7831613
  30.3278041  37.7425385  62.0254326  30.1255441  37.0073009  62.6040030
  30.6679487  38.4203649  62.6094532  32.9726386  55.3094339  70.3339100
  33.7637901  55.2233982  70.8658028  33.2790565  55.6827688  69.5074940
   2.8099787  12.6149201  20.6846046   2.2289470  12.1375072  20.0923944
   3.6672431  12.5780439  20.2603745  49.0450716  55.4858971  67.9686642
  48.5774851  56.2966442  67.7679682  49.2039776  55.0834084  67.1148586
  28.6581659  32.5836968  49.5224190  29.1729879  33.2407784  49.9908495
  28.9120245  32.6895022  48.6055803  51.6018152  16.0118449  14.4192302
  51.1872482  15.4962206  15.1109684  51.4936352  16.9204473  14.7002459
  66.5814495  34.5855498  69.8220015  66.4793444  34.2918706  68.9167070
  65.7230997  34.9374247  70.0579071  18.6689842  27.7560759  15.0661671
  18.4440958  28.2791018  14.2966866  18.2210600  28.1918478  15.7912183
  56.5516663  69.3507195  57.9843044  56.5110731  69.4998884  58.9289379
  55.8671665  69.9140263  57.6232338  58.1362247  73.4396696  19.3555939
  58.5004616  73.7285995  18.5188854  58.0622959  74.2408752  19.8740864
  46.3594818  75.5090904  30.2042317  45.6114674  75.0707483  29.7985673
  47.1053505  74.9429321  30.0058174   4.1077009   2.4839090  43.7100697
   3.8962582   2.0550272  44.5392799   5.0600684   2.5787258  43.7254810
  87.1282578  31.5725327  53.3706903  86.9222260  30.8057165  53.9052725
  87.0135880  31.2734747  52.4686670  27.7258086  10.6012726  36.4244843
  27.1518421   9.8628038  36.6280985  28.3420300  10.6345260  37.1561909
  20.9558129  70.9966993   1.8003266  21.8996716  70.9345818   1.9469734
  20.7902527  70.4168653   1.0569495  58.7972355  77.7119160   1.5138555
  58.4628963  77.3967552   2.3535682  58.0839586  77.5505447   0.8962628
  22.5460172   5.7899612   8.7056297  23.1430435   6.4590031   9.0405530
  21.6733718   6.1154300   8.9265168  30.1126027  20.4683781  66.5956497
  30.3481293  21.3650203  66.8339634  29.9351811  20.5090618  65.6559181
  83.4118652  18.1973088  10.9785748  82.9600048  17.4667478  11.4008737
  82.7863026  18.5243285  10.3320718  22.9365706  26.9010472   0.4337001
  23.2923889  27.7033734   0.8156639  23.2038426  26.2088752   1.0384282
  79.6074820  75.6423330  11.3807118  79.9443674  74.9758005  10.7819855
  80.3905582  76.0430956  11.7580903   3.1429493  11.7103243  68.7817574
   3.6328909  10.9284878  68.5269594   2.8258136  12.0742023  67.9551649
  59.4877005  41.3771152  16.1328280  59.9521303  41.1070776  16.9250512
  58.9321423  40.6289530  15.9141123   0.5495854  72.2404003   0.1046602
  -0.2794205  72.6866627   0.2773746   1.1353155  72.5468254   0.7969437
  70.1153183  12.4561369  28.8759065  70.4384327  12.0086515  28.0938673
  70.8058167  13.0811965  29.0966964  24.6372056  33.5837960  12.4869728
  23.7529802  33.6928415  12.8369546  25.0869226  34.3975449  12.7145720
  58.8166475  82.2298908  26.0434127  58.1479311  82.1346188  26.7216277
  59.5597124  82.6308155  26.4943528  34.2860293  19.1242671  55.4388571
  34.4237852  19.4127285  54.5366144  34.3342209  19.9275672  55.9571409
  76.0681820  16.3849616  29.3720460  76.9281435  16.0820735  29.0805745
  75.9538364  17.2319651  28.9410663  79.5570183  13.8697147  21.0355091
  78.6057806  13.9011467  21.1374140  79.8769379  13.5378551  21.8744087
  70.6466293  35.6377506  12.3926580  70.5357265  34.6956468  12.5206232
  70.1555538  35.8304191  11.5939379   4.1742414  28.6889625  15.3535283
   4.1202965  29.3319345  16.0605693   3.2717302  28.3964896  15.2263868
  16.4816749  55.9852266  65.0789118  16.1361480  55.1456451  65.3821278
  15.7076490  56.5379858  64.9713326  51.6024637  65.2939844   6.1995459
  52.4568748  65.4268312   5.7889783  51.1666965  64.6490574   5.6424010
   3.4553316  13.0385959   9.7558975   3.1070787  12.8263569  10.6218684
   3.4791043  13.9952767   9.7351849  79.9682140  13.6326468  23.8984394
  79.3447685  14.2194021  24.3265367  80.7910824  14.1215920  23.8911080
  23.3428240  67.1014071  49.7109318  23.8302898  66.2883282  49.8432541
  24.0038419  67.7338457  49.4293118  26.5229511  27.4236584   6.5987104
  26.3250399  27.2109342   7.5107467  27.4430132  27.6875186   6.6085339
  86.6648769  14.8354352   5.3160602  86.4842033  15.5122960   4.6637985
  86.2147617  14.0580308   4.9855101  22.5570726   8.2719183  37.3033500
  22.2967243   8.9693826  36.7016888  23.4990954   8.1747502  37.1641254
  25.1274943  46.4224815  70.1785135  24.8091316  45.5298042  70.0443459
  24.5775127  46.9609690  69.6094942   7.0779258  57.4647045  60.3164768
   7.7240467  57.6303911  59.6299553   6.8732750  58.3315754  60.6670284
  80.4299927  57.1932030  36.0517120  80.3845215  57.4504900  35.1308608
  79.5329618  57.2889328  36.3717222  82.7260017  75.1128054   6.8348026
  83.6329079  75.0980616   6.5289789  82.2978497  74.4080257   6.3487905
   7.8162467  41.1922264  31.4178133   7.4453425  42.0144463  31.7381525
   8.5163957  41.4609718  30.8230042  15.5983806  43.1258392  42.5852680
  15.4434073  43.9645433  42.1507692  14.9649620  43.1070995  43.3026648
  50.3303719   2.6864445  65.9169388  50.4760170   2.8463238  66.8493843
  50.5611801   1.7658113  65.7928705   0.7373316  53.5907173  36.1082268
   0.0309847  52.9695940  35.9307218   1.3413653  53.4828711  35.3735542
   3.1011835  47.2913647  19.4589579   2.4882525  46.8132210  20.0174594
   3.9598575  47.1237183  19.8472941  58.8195801  21.0117412   8.3868009
  59.6124506  21.3756442   8.7807006  59.1330051  20.5215693   7.6267183
  47.4064493  16.1605895  62.8561926  48.1841087  16.1025906  62.3011112
  46.6747522  16.1981249  62.2402000  57.3746109  37.1824598  18.1904364
  56.6894627  37.3286939  18.8426757  57.3757410  36.2352514  18.0524909
  86.3525867   5.6785661   4.6934551  86.7252636   4.8104990   4.8477420
  87.0600986   6.1728489   4.2795268  10.2164006  37.9913211  69.9742651
   9.3919289  37.6915026  70.3571320   9.9521762  38.5323477  69.2301512
  17.7963030  75.7903242  42.0541239  18.2101715  75.2577019  42.7332830
  17.1442485  76.3114595  42.5226068   4.1748038  20.4278922  62.5393295
   5.0704515  20.3746748  62.8728151   3.6544079  20.7044220  63.2936144
   3.7909383  62.1889210  56.7995596   4.3364033  61.5377665  57.2408056
   3.3409411  62.6456547  57.5102854  19.3430555  54.7469187  45.5632877
  18.8481498  54.1231775  46.0945606  18.9677429  55.5995703  45.7831907
  50.2937698  57.4568605  57.6567316  49.9642134  57.3483515  56.7646265
  49.9239159  58.2899332  57.9490185  33.4548545  74.3080139  60.8687401
  33.6989141  73.6944056  61.5616703  33.2306314  75.1152515  61.3316917
   4.3466449   9.5133930   8.4424210   4.9554190   8.9875722   8.9612067
   3.6729071   9.7845525   9.0659446   2.3376584  33.1162119  18.3222926
   3.0590793  33.6062551  18.7168074   1.6911408  33.0356026  19.0235400
  81.5584278  47.9032373  32.2496557  81.3630199  48.5870028  31.6089463
  81.6027164  48.3651066  33.0868816  29.6209097  68.0272675  59.0618420
  30.4533291  68.1629801  59.5144892  29.6414852  67.1088648  58.7928724
  16.4150047  32.3763680   4.2834732  15.9815609  32.7863002   5.0320143
  16.6875648  31.5171790   4.6055511  49.7673750  66.7361879  21.6567135
  50.0252342  67.6548624  21.7327023  48.8471794  66.7665720  21.3948941
  73.4383917  25.4677415   7.5952512  74.0659571  26.1370444   7.3224431
  72.5972223  25.7768202   7.2588933  15.8025670  30.9705710  22.8119826
  15.6433344  30.0363684  22.9466701  14.9385083  31.3747048  22.8914046
  16.6979516   5.5245304  24.9458909  17.5254488   5.0447094  24.9812794
  16.0983574   5.0079870  25.4843163  53.5207176  66.9315386  23.8958383
  53.3675051  67.0242500  22.9555392  52.6481104  66.8092155  24.2697763
  87.0758152  28.1262755  48.0547094  86.6878223  28.1508303  48.9294052
  86.3271618  28.1641030  47.4594641  84.5433044  31.4770103  40.5016422
  84.5749092  30.6191349  40.0782204  84.5779419  31.2831903  41.4383698
  85.1117992   8.7947315  37.2270513  85.1704597   9.7384971  37.3757052
  84.3309021   8.6858338  36.6843057  66.4180422  48.1280994   6.8234801
  66.4977694  47.2739792   7.2481632  66.8490410  48.7356424   7.4246150
  63.9714813   9.4909906  40.8387613  64.3604422   8.6314219  40.6772614
  64.6843958  10.1099432  40.6810141  81.2513828  44.2487335  15.5353701
  80.8204079  44.8229837  16.1684012  81.4616013  44.8208618  14.7973228
  13.3853483  43.7223434   1.4157540  14.0577209  43.1535101   1.0408166
  12.7700400  43.1212759   1.8356915  23.4364653  57.2554064  68.0704212
  24.2583370  56.8822765  68.3890629  22.8279352  57.1545267  68.8023710
  59.6756220  80.0114632  68.9326239  60.5210304  79.8022938  69.3298197
  59.1757011  79.1972542  68.9907122  74.5773602   4.6731317  12.7387178
  74.7923040   4.5367247  11.8159914  73.9527273   3.9776298  12.9444897
  61.1575508  59.6589327   1.1103743  61.2853861  58.7123919   1.0475413
  60.4040194  59.7607756   1.6917977  84.0114880  46.7168760  15.6179428
  84.6272945  45.9858894  15.5662572  84.2516708  47.2846270  14.8856819
  61.6063929  44.5531654  32.9712129  62.1613359  44.8685360  33.6845231
  60.7197094  44.5719957  33.3313084  43.2078123  60.8617020  14.6551096
  42.8892994  61.1043835  15.5245256  43.4592628  59.9420500  14.7402406
  75.6647778   9.3585414  20.4235291  76.3507700   9.2272800  19.7689915
  74.8589849   9.0876055  19.9836135  80.4072189  24.1916084  22.5257468
  79.6413374  24.3013763  21.9621801  80.3030205  23.3185530  22.9041004
  82.9594421  15.7271433   7.9912519  82.5010490  15.4608572   8.7882495
  82.6327038  16.6084337   7.8101283   0.4836481   0.8259308   0.4277211
   0.9231094  -0.0161140   0.5463219  -0.1854019   0.6556357  -0.2353049
  51.7229319  35.9783554  21.1581302  51.0981417  35.5078936  20.6062794
  52.4137640  35.3400135  21.3356256  74.1484165  18.1902897   8.0927885
  74.8514938  18.7962925   7.8589565  74.5035362  17.6811087   8.8213879
  86.9213390  27.1457744   7.7637070  86.6912460  26.3745332   7.2455585
  86.4285851  27.0430446   8.5778815  23.1839538  64.8022270  58.2067585
  22.7445388  65.2018929  57.4561501  23.6184716  65.5328178  58.6468267
  61.1596966  32.1320796   3.5640353  61.6179800  31.2971520   3.6594573
  61.5913820  32.5590420   2.8240466  32.9962206  29.1012168  24.0468526
  33.0904603  28.8347673  23.1323290  33.7125063  29.7195458  24.1912007
  66.2483740   3.3765498  30.1739550  66.7727137   2.9941204  29.4703603
  65.3549004   3.0850348  29.9924040  84.9905777  71.0440540  53.6876440
  84.4391251  70.6969309  54.3888140  85.5606461  71.6779709  54.1228485
  43.0491972  55.4128170  64.5677519  42.5802326  54.5905447  64.7097874
  42.6783466  55.7632399  63.7578726  30.3750896   1.6741635  63.6906767
  31.1743069   1.3139337  64.0750217  30.3218484   1.2689649  62.8251076
   8.5831332  60.4608107  19.0208244   7.6808405  60.6770468  18.7855744
   8.9084464  61.2429428  19.4665492  80.8513069  10.5704677  69.5906448
  81.4280701  10.1432979  70.2239656  79.9898100  10.1867437  69.7543955
  12.5371981  28.4727907  41.2985945  12.7155948  28.2647824  42.2157288
  11.6009307  28.6705399  41.2755871  80.5097198  63.1847668   9.0550989
  80.4779720  62.9520416   8.1271625  79.9806786  63.9797640   9.1208816
  45.1396847  77.7336884  21.3529706  45.1773882  78.4625006  20.7335830
  44.7122049  78.0993938  22.1274042  62.1310377  24.6042275  17.8139734
  62.6534557  24.6546507  18.6144531  61.2438250  24.4137239  18.1185937
  35.1059794  33.4984589  14.5262587  34.1929460  33.7770462  14.5968914
  35.0567722  32.5588536  14.3503249  19.3516231  36.4330053  40.8726358
  19.8411703  36.7743158  40.1242495  18.4989357  36.8644786  40.8179808
  15.3438568  36.1981010  19.4168258  14.9452984  36.1866641  18.5466230
  14.7807920  35.6327772  19.9455988  58.5941648  62.4696922  70.1408529
  58.6034060  63.4156895  69.9951267  57.6652813  62.2442150  70.1914740
  30.1048636  21.7161655   5.2650321  30.7391858  20.9995556   5.2466697
  29.3232608  21.3549542   4.8468751  59.5015287  18.0149651  25.9590983
  60.2252293  17.3944831  26.0456491  59.2358685  17.9466820  25.0420403
   5.2271438  79.3350172  17.7746558   4.4556752  78.9546633  18.1946552
   5.0656939  79.2299032  16.8370438   4.0885648   7.8142637  11.1213982
   3.6526352   7.3372817  10.4152215   3.7531829   7.4138570  11.9235361
  25.5826783   2.4377793  27.5225496  25.9048629   2.4045566  26.6218138
  24.9560428   3.1613445  27.5262451   6.1745179  21.0805202   5.2400219
   5.8404398  21.7235804   4.6146449   6.2501788  21.5635800   6.0629195
  60.3197861  58.5711908  21.3543439  60.7381582  57.9328346  21.9320083
  59.7049475  59.0388632  21.9195747   8.9212811  41.1010408   6.4458930
   8.0070353  41.3256550   6.6189098   9.3601936  41.2178278   7.2884774
  23.5349011   7.3679131  16.3329661  23.9985728   7.7998126  15.6155384
  23.7874699   7.8617632  17.1130633  19.8443663  28.6446476  25.2225614
  20.3750539  28.3737183  25.9716940  18.9999592  28.8873029  25.6024647
  16.1976826  20.6908751  55.1923800  16.7047966  19.9714100  55.5684566
  15.3033674  20.3532720  55.1428223  16.6279185  14.4982255   4.6573251
  17.1202397  14.2528641   5.4406828  16.9650006  15.3631139   4.4237113
   3.3533463   5.5500376   1.7403159   2.9420179   4.7621661   1.3849297
   3.8554844   5.2390963   2.4935785   7.6969934  13.6103785  30.9289813
   8.1881124  14.4104195  31.1159801   6.9170904  13.6737084  31.4803195
  20.3172064  42.8611040  49.0274191  21.1534071  42.5087595  49.3321371
  19.9087048  43.2225561  49.8140001  87.0824432  45.3174162  14.1503465
  87.3518562  44.5239019  13.6877668  86.6086006  44.9978447  14.9181867
  24.1082716  23.3542967  25.3479552  24.3217349  23.8757086  26.1217737
  24.7404432  23.6366892  24.6870112  14.6818221  44.9793625   6.3061893
  14.6196699  45.4180813   5.4577225  14.2664540  44.1283274   6.1667764
  38.0070448  19.2433310   5.4174864  38.3290172  18.8094413   4.6273565
  37.0872974  19.4307363   5.2299410  38.3923149  17.9464054  17.0583427
  38.9933252  18.4033215  17.6467705  38.9570546  17.5737965  16.3812435
  33.3921361  39.3217373   6.9124764  32.9879808  38.9234781   6.1415809
  32.6779819  39.3970752   7.5453585  55.1293278  45.7545042  51.5015602
  54.8831511  45.5287552  50.6045294  54.2963696  45.8262587  51.9676733
  30.8485937  76.2558126  63.8653183  30.9888291  77.1626949  64.1375828
  30.4608035  76.3248873  62.9929209   6.2803727   9.0080673   1.4594461
   7.0537233   8.7146080   0.9777388   6.3093776   8.5174453   2.2808355
  33.4887767  46.0994148  21.6250539  33.3317304  45.1557350  21.6571546
  32.8531623  46.4689827  22.2379565  42.0671320  39.7308707   6.6261238
  42.9594231  39.5757890   6.3162887  41.5210438  39.6229196   5.8474284
   0.7090161  53.4420919   2.5971675   0.5812901  54.1679049   3.2079992
   1.5592286  53.0737257   2.8373280  63.7650061   1.9307469  29.3219495
  62.8596067   2.2133669  29.4508290  63.7543297   0.9945461  29.5210648
  38.2231236   4.8166212  65.0242805  38.4257579   5.0672764  65.9255791
  37.2758102   4.9324331  64.9506807  14.4148588  73.5928249  62.0921135
  15.3040755  73.8682175  62.3150158  14.1497529  74.1855717  61.3888359
  78.1175852   3.7276253   7.2518688  78.8528490   3.1259137   7.3683339
  77.3426723   3.1981441   7.4399894  68.2263708  17.0996702  25.0154519
  68.0285168  16.1732566  25.1527238  69.1734695  17.1246588  24.8790407
  15.2581763  26.1716914  43.1376266  16.0711753  26.5502858  43.4721899
  15.0576830  25.4597497  43.7452221  33.5374594  73.4988403  30.6022072
  34.1443968  73.7128496  31.3107681  32.8324556  73.0123711  31.0294652
  33.1402564  34.8658729   5.8766800  33.1579447  35.2615690   6.7480838
  32.2314882  34.9575853   5.5903888  32.4289989  27.8523517  71.0776043
  32.1375036  27.1599460  70.4844475  31.6193247  28.2299232  71.4212608
  35.6998539  74.0210581  52.5774574  36.5790510  73.7668943  52.2970152
  35.2019143  73.2035732  52.5747681  24.4952536  20.1019287  28.8438106
  23.8477516  20.5354357  28.2878947  24.8788595  20.8098388  29.3614411
  65.2914143  51.7213869  15.6726646  65.5673599  52.5257206  15.2331972
  66.0639000  51.4388084  16.1622036   3.0065534  72.6310492  11.8803596
   3.5706353  73.0100203  11.2062490   2.1596941  73.0583668  11.7520440
  80.9757614  12.3987448  12.6377785  81.0022068  11.8803930  11.8335116
  80.5288982  11.8364608  13.2705343  38.8835692  74.4652033  16.7145205
  38.6519790  73.6186934  16.3323987  39.5003653  74.8487234  16.0910583
   8.9894634  14.3042195   2.6243275   9.4808984  13.7420833   3.2232660
   9.4263971  15.1540148   2.6806200  81.8240547  32.9363298  11.4497519
  81.1294651  32.2777128  11.4496028  82.0519733  33.0438542  12.3731828
   5.4883981  51.1475468  45.2964020   5.0679046  51.2745333  44.4459343
   5.3456509  51.9728613  45.7597780  40.2270079  39.4647360  15.4437530
  40.9384298  39.2779088  16.0562992  40.5895567  39.2524719  14.5836735
   5.6565690  18.1167686  18.0462718   6.6093129  18.0248070  18.0535483
   5.4131168  18.0147505  17.1261883  44.7179270  67.6828146  57.4677420
  45.1314783  68.5422182  57.3863077  43.7984610  67.8758574  57.6509142
  54.4253969   8.9612710  59.9190617  54.7025394   8.3254534  59.2593956
  54.8189211   9.7867495  59.6362972  13.9322495  72.2463989  66.0859251
  14.4170535  72.9461241  65.6482267  13.3668685  71.8838596  65.4039145
  86.0961914  52.2288465  19.0110040  85.8072853  52.7433205  18.2572913
  86.7134285  51.5948868  18.6458516  82.3990536   7.5288492  32.2563076
  82.4961853   8.1604338  32.9689789  82.8343678   7.9409689  31.5100574
  36.5376687  27.7694941  10.3225565  36.7941308  28.6631465  10.0948596
  37.2681785  27.4360442  10.8435166   1.5961438  16.5590680  31.6775656
   2.5513732  16.4990425  31.6904330   1.4157405  17.4980664  31.6332150
  66.4163446  69.8706722  25.9891415  66.4557505  69.3366480  25.1957321
  65.4808903  70.0047302  26.1414051  10.0954854  41.5091944   9.3651801
  10.4072285  42.4141026   9.3789017  10.8825064  40.9825945   9.5049059
  39.0155149  12.4399090   9.5547277  39.0012097  13.3421123   9.2352653
  38.0941653  12.2199571   9.6924573  19.7611225  42.8518295  40.8995771
  19.4998825  42.7753353  41.8172550  20.6853080  42.6027155  40.8920765
   5.0629258  49.3754721  19.5359111   4.1579592  49.0636444  19.5413995
   4.9921793  50.3185940  19.6833909  30.3220820  39.6208668  30.0709915
  29.8147917  40.1748848  29.4777393  29.6803474  39.0133214  30.4388213
  15.1569903  65.3955841  33.7064219  15.6390500  65.7775116  34.4398928
  15.3159583  65.9949827  32.9772592  82.1005058  66.8508482  56.5156317
  82.3424053  67.2564507  55.6830454  81.2681484  66.4135885  56.3361454
  74.4835091  34.0899301  31.5851402  74.9107027  34.8275781  31.1496925
  75.0433159  33.3388233  31.3884568  57.9386044  80.8348656   3.4717259
  57.1054506  80.4495144   3.2004529  58.6031866  80.2579308   3.0952811
  26.1111474  16.8194771  25.9150147  26.4073563  16.6766810  25.0160694
  25.3595352  16.2352884  26.0151839   4.7724774   2.6430154  20.8270717
   4.2548230   1.8983547  21.1332512   5.5294055   2.2471146  20.3951526
  44.6444321  51.6893148   3.9067677  44.6580076  52.6445341   3.8467380
  43.7144804  51.4642811   3.9347073  21.9128346  68.4326410  66.2718010
  21.2481785  69.0882397  66.0604811  21.6946149  67.6831532  65.7178307
  64.7058153  64.8088646   1.9635347  65.3757954  64.5885229   1.3163802
  65.1406050  65.4176903   2.5606275  63.8259268  54.9808407  58.5527325
  62.9389954  54.6814775  58.7526321  64.3943024  54.2897797  58.8927507
  87.2291565  78.4987879  47.7495146  87.6607609  77.8508949  47.1925688
  87.0006084  79.2124033  47.1539068  15.5505574  58.7333584  54.5904350
  16.0740900  58.9185476  53.8107872  14.9487019  59.4747400  54.6564484
  23.1449580  20.0158882  17.0146763  23.6592937  20.2984333  16.2584627
  22.6322508  20.7869506  17.2572207  62.2073460  64.6976614   1.4825264
  63.1445074  64.6258211   1.6636416  62.0333862  64.0071154   0.8429051
  33.1649804  46.7574549  67.6312160  32.9901958  46.6318941  66.6985226
  32.7497315  47.5936747  67.8422689   8.6179745  24.9273467  58.1967402
   8.2904691  24.8269701  57.3029327   8.9026213  25.8398890  58.2464647
  35.1568317  32.3162174  54.4255686  35.5607700  32.8691506  53.7567425
  35.6453013  31.4941025  54.3837023  52.7480173  61.8735361  61.5690565
  53.4531832  61.8167448  62.2138453  52.6000881  60.9682512  61.2955427
  19.8343801  34.0681815  68.4404898  18.9438617  33.8437510  68.1705999
  20.0515771  33.4210062  69.1114759   1.7661308  35.7075930  25.5874252
   0.9690753  35.2920318  25.9164286   2.1984929  35.0243688  25.0750756
  11.3354480  20.1910186  13.5085738  10.6118035  20.2371025  12.8837168
  11.1241293  19.4413102  14.0649116  75.7358789  28.3761954  11.0167825
  76.5778399  28.1135583  11.3887453  75.5567789  29.2307019  11.4091790
  33.7621117  46.6446018   5.1184821  33.1858301  46.6228199   4.3545076
  34.6462417  46.6242933   4.7522351   8.4372032  60.9867859  38.8405013
   7.6535821  61.4874744  38.6136007   8.6169285  61.2226295  39.7506189
  19.8166776  22.1523333  26.1715078  20.3730464  22.8103995  26.5882015
  19.5353591  22.5603366  25.3525901   2.7049640  77.4945736  49.4926453
   2.8657353  77.1648502  50.3767681   3.3995071  78.1368399  49.3465662
  80.8800030  53.3668232  14.6606708  81.5586662  54.0417719  14.6701562
  80.4782772  53.4432554  13.7952209  51.8416548  53.3883333  70.3673553
  51.6955519  54.3341398  70.3858232  52.4585438  53.2552862  69.6476460
  24.5579100  67.6317167   4.2499706  24.6376705  67.6943254   3.2981563
  25.4186893  67.8894472   4.5799214  85.7889652  14.1330576  18.3992672
  84.9049568  14.4964480  18.4511852  85.9395981  13.7454140  19.2614019
  75.6753778  14.3873584  25.5094934  76.4632463  14.9273908  25.4473805
  75.2285480  14.7049701  26.2941575   6.5183473  50.2588511  31.0765195
   5.9042215  49.5424175  31.2371588   5.9712303  50.9760523  30.7563305
  80.3852749  53.7438297   6.8812096  80.0291538  54.3149233   6.2005764
  80.1076221  54.1486263   7.7029651  11.2893915  51.1488819  45.5835104
  11.2010360  50.8450365  46.4868975  10.5246723  51.7071009  45.4426908
  25.9943485  53.9819050  27.1255708  25.1193833  54.1738749  26.7882037
  26.5616322  54.0199566  26.3555217  16.3239789  64.2420197  61.9648647
  15.9944034  63.3618975  61.7832279  16.2357175  64.3398952  62.9129505
   6.7840737   6.6346020   2.9329056   6.2673545   5.9598768   2.4924749
   7.5799620   6.1823094   3.2125932  66.3241005   5.1960146  67.4459648
  65.7246590   5.8929837  67.7126789  65.7875681   4.4033444  67.4519062
  19.8175085  46.4894485   2.0161907  20.4175329  47.2080231   2.2158244
  19.1477466  46.5401983   2.6981559   6.7272401  63.7968826  24.2227864
   7.1633345  64.3674898  23.5899639   6.2772399  63.1441641  23.6864185
  40.4670525  43.6184502  23.2877350  40.7944775  42.7681732  23.5810804
  40.2400923  44.0793276  24.0953970  34.9233413  58.8512039   1.9991112
  34.8177052  59.7972202   1.8984804  35.6259179  58.6225796   1.3905478
  63.3217239  49.2346573  57.4342203  63.2193184  49.8276711  58.1785917
  63.0785179  48.3749390  57.7776766   1.0550401  56.9420195  49.5902348
   0.2927076  57.0091200  50.1651955   1.0296966  57.7415657  49.0645742
   5.9755176  57.0332813   0.7559601   6.2041140  56.4548588   1.4835620
   6.3379425  57.8839874   1.0032915  18.9791727  41.8890429  32.3814797
  19.1665125  40.9827518  32.6259661  19.8179328  42.2322845  32.0734262
  12.2275507  30.6348729  16.0438704  11.7144239  30.6095290  15.2362251
  12.1778500  31.5467358  16.3306952  30.6116939  61.6202736  28.2124901
  29.9539995  61.9780731  27.6161242  31.3631916  61.4268303  27.6520777
  60.2676916  42.8078175  13.9501894  61.1710119  42.5792694  13.7310863
  60.0784159  42.3040009  14.7417545   5.5074215  53.5355282  46.6537714
   4.8156229  54.1965818  46.6282511   5.5528653  53.2717514  47.5727844
  80.8622742  18.1974423  42.3257971  80.9585476  18.8298881  43.0378199
  81.2654209  18.6245239  41.5699530  66.3819838  34.6511769   9.9275386
  65.4982042  34.4217372  10.2148080  66.7570591  33.8247395   9.6233225
  35.2152514  61.1183214  46.0085297  35.8838701  60.5777264  45.5878830
  35.1216173  61.8759394  45.4310560  35.3563690  58.8904095  67.7373409
  35.6106734  57.9676104  67.7354050  34.8062682  58.9856195  68.5148716
  87.2522545  57.9096794  24.9935555  86.3649082  57.6450825  25.2360845
  87.4838734  58.5843849  25.6317997  35.7598495  71.8818808  57.1692371
  34.8169661  71.7908573  57.3067808  35.9087610  72.8272057  57.1487951
  50.8024549  65.3143454  67.7637005  50.9456444  64.5987034  68.3830404
  51.5730619  65.2977085  67.1961451   8.4928852   9.4229162  21.5374279
   9.1123843   9.0615392  22.1713519   9.0056068   9.5311195  20.7364035
  35.2182102  72.5533199  67.3463726  35.3301239  73.0336618  68.1667233
  35.0073481  71.6602087  67.6186180  82.3740673  45.3793764  20.0171614
  82.8061867  45.0629568  20.8105016  83.0439854  45.8960009  19.5693433
  82.5295734  54.2857170  17.3257816  81.7638493  53.7200069  17.4251831
  83.2488346  53.6837959  17.1345103  60.7951450  61.2893152  40.3911448
  61.3103008  61.2865400  39.5844007  61.4461470  61.2408495  41.0911989
  48.8999462  62.2016001  35.7314610  49.5479393  62.4002171  36.4073944
  49.0018940  62.9032326  35.0883818   0.6537913  73.8719177   7.5993949
   0.7906821  73.1646013   8.2296300   0.4411224  74.6344042   8.1375581
  25.3102946  12.1344841  28.1141615  25.2948475  11.1790311  28.0584669
  24.6230483  12.3487711  28.7450385  59.1955519  18.7949431  61.3008738
  58.5587692  18.1410551  61.0124826  59.5496464  19.1586423  60.4893494
  56.8577385  75.4728746   5.9715271  56.5370131  75.6888056   6.8471628
  56.6560316  74.5432425   5.8650714  12.7531993  12.2928107  38.5273600
  12.9452205  13.1130433  38.9818692  12.7990437  12.5175261  37.5980425
  46.3202620  39.3157220  71.2994051  45.5194616  38.8002872  71.2030554
  46.2238550  40.0283766  70.6676960  30.1375198  67.6031160  70.0259686
  30.6324816  68.3913660  70.2493620  29.8332858  67.7567959  69.1315126
  41.3939333  68.7471485  56.6411257  41.1929512  68.6695719  57.5737667
  41.3388920  67.8511381  56.3089132  43.0289316  57.5834799  70.8107424
  42.1799517  58.0194998  70.8838987  42.8341150  56.6559029  70.9444523
   0.1326795  39.4191384  59.4172335  -0.7685866  39.6051002  59.1538525
   0.6625971  39.6956801  58.6696053  51.9129372  21.1265039  46.2287378
  50.9860897  20.9780669  46.0412455  52.2934055  20.2489352  46.2654686
  64.4262218  10.5182052  64.6509933  63.8712835  11.2564778  64.9024439
  65.1739740  10.5668807  65.2465820  73.7142420  36.5515089  32.5999737
  72.9352188  37.0187426  32.2982407  74.3499279  36.6643548  31.8932891
  62.2222519  39.3073559  20.3410673  62.2266436  38.3871961  20.0774026
  61.5462208  39.3596888  21.0166955  53.7026453  78.9580679  61.5723991
  53.4081984  79.6613407  62.1511364  52.9489279  78.3718872  61.5050983
  59.8185730   4.5617837  57.3882341  59.3643141   4.5087487  58.2291126
  60.2759504   5.4021907  57.4156809  68.1460667  23.3899903  55.2269936
  68.3534718  23.6367655  56.1282825  68.0364466  22.4395967  55.2580690
  70.3982687  43.6998129  15.9822249  70.3738785  44.2633915  16.7555380
  69.4780588  43.5319805  15.7790482  75.9521580  23.2265282  63.4631777
  76.8131495  23.5741854  63.2306671  75.8424616  22.4612713  62.8987455
   3.4094536   5.6253618  71.3289213   3.2287753   6.5577781  71.4480257
   2.6098353   5.2746409  70.9366989  45.3356600   4.4031319  38.5792470
  45.9319210   4.4679213  39.3252397  45.4744673   3.5197824  38.2376957
  66.7211676  70.2995253  33.7415528  67.0940733  70.1595116  32.8711677
  67.2145653  71.0385180  34.0974689  78.7513542   1.7061287  51.2132359
  78.5574627   1.3290791  52.0714140  78.7301540   0.9603134  50.6136131
  25.6953049  59.5392704  20.5790257  24.8750639  59.4496012  20.0938487
  25.4797745  60.1202822  21.3085508  54.6405649  60.6703901   3.7639356
  55.0419664  60.4227972   2.9309848  55.3690481  60.9934473   4.2942020
  81.3860703  73.8985252  60.1405716  81.8609619  73.9523411  59.3112278
  81.4373207  72.9748583  60.3864241  50.8037663   0.5959059  15.8000278
  51.0125208   0.1978074  14.9549425  50.8637190  -0.1257052  16.4260578
  75.7434607  78.7046719  13.6705160  76.5943623  78.9415216  13.3015907
  75.1420212  79.3668461  13.3298862  81.3106632  56.7061424  16.8895757
  81.6234875  57.3632717  17.5113082  81.8056393  55.9161615  17.1067381
  86.3109112  35.0871038  64.2475414  86.7699814  35.9049058  64.4390821
  86.7249393  34.7615504  63.4482765  45.2366257  63.8534117  71.2090254
  45.4804039  64.3506432  71.9897747  46.0473204  63.4241343  70.9356499
  71.4353228  60.2198601   3.3945185  70.9695435  60.7354021   2.7361125
  72.0423555  59.6787548   2.8895950  44.7719717  39.2009187   2.0235793
  44.8818445  38.2933927   1.7397517  45.5818415  39.6353054   1.7559005
  14.9407816   3.4510991  70.3471375  15.6357467   3.9733183  69.9464607
  15.4002392   2.7273473  70.7729483  32.7649021  20.2015853  43.2219744
  32.7906156  21.0073900  43.7379694  33.6290097  19.8093200  43.3471870
  30.7571387  23.0684161  67.1329021  30.1284266  23.7729144  67.2898579
  31.4657283  23.4846926  66.6421366  33.4254456  18.4393263  64.1583490
  33.4373617  18.1054711  63.2613373  34.2903543  18.8310683  64.2796183
  31.0373449  75.0370073  19.3552184  31.2646532  75.8611679  19.7857130
  31.7422247  74.8943806  18.7235272  69.9579620   5.8440405  22.0928907
  69.6889257   5.6269944  22.9854941  70.5651760   5.1453793  21.8491793
  43.3705187  49.8526907  38.1805611  43.6104488  49.5872402  37.2927547
  44.0398169  50.4902887  38.4290361  59.6023321   4.7678867  30.9848094
  60.3774500   5.2711684  31.2340760  58.8899660   5.1589781  31.4905930
  23.8281608  32.3063755  47.7916861  23.4149289  31.7274761  47.1511030
  24.7228312  31.9755554  47.8714037  63.1895351  71.4120531   4.4975108
  62.8342199  71.8150234   3.7052998  62.5352669  71.5929556   5.1723707
  75.1436567  45.2885056  10.3631890  74.8189402  44.6248102   9.7546649
  74.6641445  45.1240778  11.1751413  41.9095373  69.4431829   6.9289184
  41.0823488  69.6663570   6.5020883  42.2104645  70.2665234   7.3133445
  35.9879279  30.6217074  15.4603481  36.7564559  30.0822210  15.2744734
  35.3336811  30.0028825  15.7847667  47.8106546  29.4615626   1.1241287
  46.9032240  29.7258520   0.9726471  48.1257820  30.0628567   1.7989400
  87.3220158  44.9493694  60.2165318  88.1248665  45.2881145  60.6126738
  86.7933369  44.6572161  60.9590816  19.9302638  37.2666454  61.0064220
  19.0377951  37.1539688  61.3335800  20.4869366  37.1018291  61.7674589
  40.6638527  65.1624441   6.4058948  40.9291267  65.2292824   7.3231715
  41.2182570  65.7953644   5.9495127  86.6240978   2.4211314  42.1025658
  85.6805611   2.3101312  42.2193527  86.8169022   1.9782105  41.2762022
  25.9323931  13.3691645  65.3173161  25.8028007  13.3387792  64.3694162
  25.1481628  13.8037837  65.6524611  78.5877037  50.3559113  65.9917307
  79.1927147  49.7629499  66.4373684  79.1483164  51.0412884  65.6281328
  31.4829755  73.0258036  16.7318928  31.0661769  72.1818733  16.5578461
  31.6086936  73.4139490  15.8660007  28.7356830  79.0968180   0.3507789
  28.9221048  79.7919893  -0.2802664  27.8468657  78.8122606   0.1380360
   7.4107420  63.2748461  60.8862925   7.7443284  63.1748533  59.9946928
   6.4712471  63.4208488  60.7755470   5.7814771  24.6816349  16.5507078
   5.6508893  25.3339648  15.8624887   6.7318368  24.6252465  16.6500533
  10.5027497  16.4730334  37.6184201  10.7841599  16.7364192  36.7422533
  11.0928953  16.9399452  38.2099891  28.0515885   8.0468577  68.4216070
  28.2183146   8.8951784  68.8324404  28.5556364   8.0714470  67.6082420
  62.0958853  61.5585279   4.3962657  62.8452015  62.1167946   4.6038705
  62.4165964  60.6669235   4.5319891  23.1084943   7.0996070  68.8186932
  23.2610869   6.2621272  68.3809996  23.0910420   7.7412778  68.1086302
  72.9607105  37.8810549  51.4553308  73.2886124  37.9116940  50.5565691
  73.5439873  37.2676826  51.9023085  55.1902151   4.9691534  53.3188391
  55.0643158   5.8807111  53.5823584  55.5979395   5.0238198  52.4545479
  31.5591788   0.0619320  21.1340094  31.7128086   0.9584800  20.8359647
  31.9207954   0.0387791  22.0199728  53.2509184  71.8114948  15.3841150
  53.4243393  70.9924889  15.8482170  52.5501204  71.5946007  14.7692442
  74.5433140  62.8854465   0.4664146  74.3155193  63.7527466   0.8012794
  74.3097258  62.9179382  -0.4612777  51.3666964  66.9550037  25.3937626
  51.9105244  67.1472359  26.1576557  51.0674334  67.8123140  25.0909543
  16.6038704  24.4655013  15.1248038  16.5971243  25.2229595  14.5396149
  15.6846905  24.2072225  15.1928592  80.0820637  39.0511250  54.9086905
  79.9554777  38.1829619  54.5259380  80.8856201  38.9714336  55.4226685
  62.8761959   0.1917621  18.5335636  63.7265205   0.4229912  18.9073479
  62.3077297   0.0632952  19.2928886  31.3446903  80.3485775   8.2678634
  31.9283557  81.0627937   8.5237193  31.9321036  79.6554852   7.9665434
  22.2236133  79.6265745  70.9063148  21.6721630  79.5237160  71.6819143
  22.9281688  78.9900112  71.0272455   8.8135886   7.3892170  69.6110725
   8.9386594   6.5954578  69.0909433   8.5336596   8.0494118  68.9770269
  45.3542852  77.8099489   2.4666758  46.0679483  78.3913994   2.7290231
  45.7475185  76.9373083   2.4571373  34.9292040   2.3508961  41.1897993
  35.6083918   2.9896715  41.4063692  35.4027438   1.5267096  41.0770702
  76.1597681  28.1889510  45.2291965  76.9236708  27.9602003  44.6997118
  75.4460621  27.6716852  44.8559713   4.5853490  54.9384785  40.6992817
   4.8987576  55.5680466  41.3486290   5.3067881  54.3172169  40.6003523
  80.3915024  46.1006021  37.7459550  79.6727324  45.6405258  38.1794739
  80.4491711  46.9395971  38.2031202   9.8443568  44.4457817  48.6792850
  10.0364792  44.8414707  47.8291368  10.5075276  43.7630844  48.7810755
  58.3540916  71.9150019  23.1829810  59.0067053  72.3308468  22.6195979
  58.1204796  72.5914764  23.8186240  68.3345890   9.1551191  38.8582659
  67.4565506   8.7745839  38.8365793  68.5146999   9.3938297  37.9489756
  18.8881850  82.1867371  67.0995092  19.3846262  82.0790577  67.9107952
  19.5202100  81.9998264  66.4053631  80.0162220  12.7236497   6.7864799
  79.4474459  13.2899737   6.2649351  79.4258070  12.0684981   7.1585304
  77.4557590   3.6343455  19.8162723  77.0340824   2.7950990  20.0008965
  78.3887148   3.4270301  19.7629583  63.8203716  20.3379822   2.3964587
  63.0559206  20.6565595   1.9165042  63.8912630  19.4159853   2.1492203
  47.6779509  69.9847364   8.2600397  46.9587564  70.0647640   7.6334685
  47.7844477  69.0414906   8.3832252  20.6683230  20.8611417  52.5423908
  21.1353493  20.6741929  51.7280388  19.8869669  21.3399529  52.2658920
  25.6285453  82.0753193  25.7432294  25.4498005  82.7713585  26.3755345
  26.4229608  81.6530418  26.0700631  49.3806124  52.9410267  71.5331030
  50.3006744  52.9466486  71.2691164  49.3044090  53.6677074  72.1514511
  36.3397312  29.9976850  54.5253992  37.1083164  30.3250933  54.9926424
  35.9786534  29.3235493  55.1010704  62.9148626  38.0813599  17.2869861
  63.0941439  38.6421609  16.5322721  62.0785046  37.6635504  17.0816219
   7.9106480  19.4235647  48.7716436   8.8159698  19.1916621  48.5646486
   7.3834097  18.8533151  48.2121181  82.3155785   6.1374122  35.3484225
  82.5142956   7.0252442  35.6459093  83.0429745   5.9105009  34.7690845
  26.4680552  12.3518145  57.8543520  26.8127251  11.9323516  58.6426973
  27.1132374  13.0256212  57.6399803  29.8099542  65.1678228   1.5523474
  29.1895270  65.7488012   1.9925329  30.5854750  65.7102013   1.4087327
  10.4646671  63.8168478   3.9666790  10.6030834  64.0881205   4.8741400
  10.5193377  64.6289396   3.4629399  13.3162594  51.2199068  68.1828499
  13.8568163  50.9597063  67.4369812  13.5257423  52.1438217  68.3197260
  55.0009632   7.9816198   9.8571008  54.4805479   8.5382903  10.4363406
  54.3601561   7.5843292   9.2673886  27.2211576  43.6390209  69.4929600
  28.0006385  44.1555357  69.6975470  27.3225403  43.4078884  68.5696316
  42.0063782  14.6157110   1.0797624  42.6272678  14.1088462   1.6030407
  41.2994289  14.0005875   0.8846265  57.0677137  10.0455320  40.6645441
  57.6989698  10.6814027  41.0013103  56.7223883   9.6139252  41.4460182
  47.9548311   3.2537737  32.1120834  47.9997206   4.2094961  32.0836020
  47.4658012   3.0606985  32.9119611  43.6211252  13.1861794  45.6103325
  42.9529476  13.5360670  45.0209713  43.4617996  13.6298943  46.4433813
  73.7531853   3.1131086   2.8528678  74.3214417   2.5772321   2.2995561
  73.4943628   3.8448578   2.2927032   9.1269326  60.7819700   9.3105865
   9.7549176  61.4454603   9.0248549   9.0187347  60.9425354  10.2479994
  39.0940189  54.4408989  18.4638822  39.8741150  54.8887587  18.7911487
  38.3968067  54.7046328  19.0643585  39.7665286  64.4214439  23.2071090
  39.2708349  65.2397013  23.2383847  39.1206121  63.7593889  22.9607201
  15.3335559  48.5775042  70.1787615  15.2402222  49.4525051  70.5554485
  16.0819352  48.6503220  69.5864248  63.7410641  76.6308069  10.5790961
  62.8768635  76.6132116  10.9902823  63.5588694  76.6824627   9.6408165
  74.1388416  33.3549190  28.5074425  74.0637684  34.2926931  28.3308792
  73.2381010  33.0325127  28.4765029  62.2152328   5.1543677  22.6016831
  62.5537777   4.3962020  23.0779219  62.6484394   5.9052038  23.0076504
   6.3587201  10.1852870  59.5456505   6.7484736  10.9984887  59.2246723
   5.4951608  10.1547194  59.1338682  38.4259391  43.9654875  68.8471794
  37.9854345  43.5902071  68.0847168  37.7177286  44.3321037  69.3765783
   6.6925156  12.7445447  43.5397243   6.5902251  12.9470038  44.4696617
   5.7977009  12.6299679  43.2197094  33.3173466  78.7770653  10.9215200
  32.7168989  79.4503260  11.2415421  34.1788864  79.1934824  10.9455490
  68.7013149  17.8764355  16.7687547  67.9618645  17.3551321  16.4562070
  69.1967869  17.2781157  17.3279989   0.1963548  23.0320644  62.0210552
   0.8560662  22.6159024  61.4662361   0.6678546  23.7354803  62.4672890
  60.9920788  53.8602638  58.7945604  60.8589077  53.5180712  59.6785259
  60.3469276  53.3983183  58.2591867  31.3178897  13.6600983  59.1826820
  32.0358968  14.0754533  59.6603632  31.6877961  13.4566903  58.3235979
  74.3910694  16.1695039  27.2174954  74.5496607  15.6288528  27.9913020
  73.7037325  16.7784870  27.4875784  43.7685442  34.4111705  13.4263527
  44.1683245  34.0378428  14.2118680  43.8396120  35.3579116  13.5482740
  65.9183407   9.6236187  12.0207596  66.5163040   9.2285877  11.3862336
  66.3088989  10.4743898  12.2204673  31.6902041  11.8063796   3.0207005
  31.7878652  12.6796472   2.6410985  30.7583666  11.6079235   2.9283673
  49.6545839  53.5442924   6.1129826  49.7901678  52.9718685   6.8680847
  50.3834391  54.1637802   6.1481142  12.6702785  70.6140184  68.4641886
  12.2392738  71.0574913  69.1948032  12.7155995  71.2766552  67.7749205
  35.1792550  68.9329576   8.1074470  35.5881166  68.8319921   8.9670223
  35.7973146  68.5277271   7.4991512  39.7790909  73.3479357   7.2481811
  40.2476931  73.0144691   6.4830399  40.4591799  73.4720755   7.9102236
  13.0944252  49.9687529  59.7076464  12.9934263  49.1042662  60.1060104
  13.0457056  49.8055935  58.7657118  40.9845829  73.3874226  70.6424856
  40.9565735  73.0558062  71.5399694  40.6655455  74.2873907  70.7096148
  18.8170981  59.2246866  48.8382387  18.0562544  59.1157150  49.4087410
  18.4545743  59.5539188  48.0157948  82.0754147  16.6429126   3.8433400
  82.3694706  15.8523893   4.2959267  81.2183094  16.4098465   3.4865811
  86.3628197  73.6497593  61.7846680  86.8537426  73.0944395  61.1789846
  86.0128593  73.0423403  62.4364328  23.7242961  69.8379850  51.6995144
  23.0165720  69.7224426  51.0654736  24.5237255  69.6783543  51.1978579
  75.3386497  49.2476606  68.2434845  75.6636000  49.4523907  67.3667192
  76.0245466  48.7050104  68.6324692  19.6840608  49.6109486  68.8527346
  20.3455663  49.2488527  68.2632208  19.8577213  49.1903400  69.6948528
   4.4515780   1.9539717  14.3341708   3.6424941   1.5136585  14.0739024
   4.1589069   2.7293235  14.8131335   6.1499292  52.8273201  39.8704052
   6.1708933  51.8703938  39.8613048   6.4583808  53.0819321  39.0007710
  15.6146526  37.8488398  57.2769976  16.4747727  38.1274939  57.5912857
  15.1062071  37.6969886  58.0736494   8.2987326  37.9822969  54.1456079
   8.4692216  37.8283405  53.2163811   7.4650425  37.5424933  54.3122387
  44.1561747   0.0998207  43.8059139  43.8604212   0.8273228  44.3531799
  45.1074648   0.1993080  43.7688351  38.7683606  28.7989497  61.7342520
  39.2605305  29.1719484  62.4656010  38.3003664  29.5433784  61.3560486
  65.6990528   3.5258803  45.8027172  66.1777020   4.3545631  45.8230543
  66.1847878   2.9540777  46.3971376  52.5024986  62.4707460   2.8669879
  53.2667494  61.9375896   3.0858421  52.5882673  62.6384640   1.9285068
  71.3556337  24.4063759  25.1995730  70.6936789  24.6943212  25.8281732
  72.0910501  24.1192460  25.7408214  72.8861523   9.3663293  18.8622284
  72.0681763   8.9099097  18.6651897  72.6374292  10.2887392  18.9216292
  62.5287342  58.8557720   4.3513426  62.3677063  58.2979822   5.1123762
  63.2247686  58.4087563   3.8697359  17.1067071   7.4559343  20.6383562
  16.2692511   7.3787123  21.0954499  17.6187682   8.0592704  21.1768818
  59.1886139   7.2825313  69.2886305  60.0614929   7.6239723  69.4828939
  59.1470146   7.2613865  68.3325672  85.9548855  11.4320683  30.9209704
  86.6100979  11.6854858  30.2708054  85.1654148  11.9082165  30.6635833
  14.9171960  76.1958122  34.2047358  14.3204856  76.2734842  33.4603333
  15.3434694  77.0510578  34.2602515  45.1209068  19.2720389  50.7682228
  44.3414879  18.9734101  50.2996540  44.7876787  19.8928380  51.4161444
  41.6125107  63.1401062  24.8639059  40.8480263  63.6578894  24.6115184
  41.3823700  62.2418261  24.6265030  48.2305527  22.2031569  65.8796453
  48.2415199  22.1439123  66.8349457  49.1267967  21.9941640  65.6164074
  74.5679331  33.6612773  56.1534643  74.9337626  32.8785682  56.5654898
  75.3255224  34.1117525  55.7801533  25.6796479  47.2997856  66.9705915
  24.9978733  47.5870609  67.5779486  26.4638329  47.2159433  67.5130463
   3.2589379  57.1191978  20.9727359   3.8647726  56.6747665  21.5657592
   3.0553317  56.4652491  20.3040576  49.3438816  18.2253301  17.2933745
  48.9214849  18.0009723  16.4642310  50.0793839  18.7847793  17.0438063
  47.4179602  63.0426359  20.3489804  46.7780447  63.0571795  21.0606885
  47.9341936  62.2522449  20.5071664  27.1262121   4.0671033  70.6967974
  27.5035596   4.3047702  71.5437651  26.8908882   4.9039540  70.2961254
  75.8870459   7.1470803  13.6334884  75.7093763   6.2766194  13.2771707
  75.5458641   7.1142560  14.5272160   7.9380184  37.1985078  71.4294004
   7.1627504  37.1922183  70.8680201   7.9884005  36.3085389  71.7781782
  31.8446612  49.4731092   4.9191892  32.7233529  49.2584562   5.2323246
  31.4427853  48.6245346   4.7330508  48.2048941  72.5671387   5.9045440
  48.7181568  71.7881107   5.6902736  47.7532005  72.7878714   5.0899994
  43.2717276  33.9637113   9.6048170  42.6607418  34.6907139   9.4848490
  42.9491282  33.5052800  10.3807068  79.7631407  56.6133308  63.9167166
  79.8122740  56.0366535  63.1543112  78.9775515  56.3275290  64.3829775
  25.8897090  61.9002962  59.6010685  24.9520922  61.7655611  59.7387314
  26.0466671  61.5962124  58.7071276  85.5009651  38.3653164  57.4410772
  85.1386356  37.6833057  58.0065918  85.0093079  39.1536427  57.6713848
  84.9182034  29.7132325  58.7251186  85.0325108  30.5225468  59.2232895
  85.7940865  29.5072484  58.3985758  16.7177236  41.0071707  51.8282890
  17.6451826  40.7947588  51.7237186  16.2665391  40.1700115  51.7195177
  80.9456730  63.2441950  39.3737102  81.3208294  64.0984726  39.1599321
  80.7746792  62.8382540  38.5238838  24.4610620  49.2796516  65.4938030
  24.5175481  49.3705177  64.5426035  25.0282049  48.5359430  65.6974602
  19.8513329  49.7795534  57.7091122  19.8695433  49.5554590  58.6395359
  19.7383058  48.9403534  57.2627926   3.1925821  36.9943070  67.7747107
   2.8905112  36.3038373  67.1845961   2.4053857  37.5016832  67.9725075
  49.9754047  81.5711689  15.4638004  50.3362417  80.6856823  15.4197729
  49.0267897  81.4433098  15.4678464  77.5883913  51.8713808  69.2713404
  77.1556473  51.0196686  69.3308830  77.4747753  52.1344376  68.3580351
  13.5015643  40.1012659  71.2639093  13.2659924  40.1013374  72.1916676
  13.6095893  41.0266113  71.0441494  17.0331192  24.6739960  51.0227919
  17.3799348  25.5560350  50.8887720  16.1839008  24.6808887  50.5811882
   7.4083102  71.2939262  59.1421652   8.0369794  72.0000458  59.2918301
   6.5530002  71.7213964  59.1862679  31.2296796  27.1726513  42.8585863
  32.0015836  27.6582527  43.1494284  31.5725183  26.5233707  42.2444820
  47.1857214  57.3468351  67.3956013  46.6538429  57.8267717  68.0304241
  46.5624523  56.7808533  66.9401503  21.5759206  78.7460232   7.9905927
  20.9456539  78.2382917   8.5016745  21.8988323  78.1324482   7.3306781
  23.4636021  75.2330256  38.7502170  22.8065753  74.5372009  38.7308908
  23.5263467  75.5284882  37.8419232  24.3265152  12.8564727  51.2202740
  25.1334214  12.3418891  51.2018251  24.2763114  13.2544303  50.3511715
  50.2904844  10.4059660  14.8806286  50.4879951   9.4884807  14.6923649
  49.3736029  10.4020667  15.1554787  80.3798676  46.3840103  40.8944178
  80.1913834  45.6405973  41.4671659  81.3151264  46.5482235  41.0150719
  61.9669485  16.2755108   2.3085572  62.2063303  16.8399274   1.5734646
  62.7218199  16.3140404   2.8958482  36.8752885  39.3481469  68.0977011
  37.7785230  39.6603751  68.0437565  36.9252563  38.4258938  67.8463316
  62.0563221  75.5870199  62.2274017  61.5353203  75.2050209  61.5211010
  61.7086172  76.4729929  62.3293114  61.6140699  16.6005623  58.1402636
  62.5467348  16.7252755  57.9647160  61.4340067  15.7052457  57.8535271
  12.9227495  13.8558161  52.8460073  12.1048570  14.3209970  52.6702547
  12.7268589  13.3048820  53.6038542  28.7317395  69.0498781  63.5415220
  28.5944605  68.1312513  63.7728548  28.2292128  69.1716909  62.7360010
  87.0312977  55.6191778  39.6195936  87.5785923  55.8310699  38.8634205
  86.2176514  55.2865505  39.2406797  78.0997753  74.1792822  49.3616152
  78.6840010  74.6346951  49.9678469  77.3279572  74.7425079  49.3041325
  69.5421886  71.3505363   8.8064569  69.2977810  72.2660351   8.9419693
  70.3222704  71.3902664   8.2531714  77.8470850  47.7109671   8.7494367
  76.9394016  47.8820944   8.4983140  77.7920532  46.9764996   9.3607944
  82.2926426  66.4875698  13.6207008  82.8188419  66.2146711  14.3722796
  82.7267838  67.2774744  13.2985187  53.0324316  61.9528246   7.6623493
  52.8822184  62.8740072   7.4500072  53.9492989  61.9162655   7.9348350
  29.4166517  70.0161552   4.6497867  29.9893403  70.7757092   4.5433044
  29.8250055  69.3320513   4.1192424  25.7832026  72.3199129   9.7690523
  25.2514124  72.9056025   9.2301643  25.3821230  71.4584446   9.6539956
  76.3796329  21.1255193  22.9929495  75.9678507  20.5384851  23.6270308
  76.2077141  20.7191443  22.1435165  75.9639072  22.7378941  18.1808555
  75.2307367  23.1838536  18.6048949  76.3781452  23.4143114  17.6450396
  64.5247555  14.6286952   6.4042509  64.0028477  14.0508008   6.9609255
  63.9141798  15.3131783   6.1305481  37.0558953  80.0436115  25.0991726
  37.7752900  80.3221703  25.6658363  37.1473622  79.0922689  25.0461364
  12.4364507  38.2515597   5.5667770  13.0289149  37.8411555   4.9368662
  12.9575074  38.3369589   6.3651741  44.3032694  46.5633059  18.3054352
  43.9462948  46.0143471  17.6072633  45.1796913  46.2117767  18.4620941
  28.1164169  13.7995076  63.3496904  28.9220500  13.2869613  63.4166527
  28.0244589  14.2143214  64.2074251  16.8641067  45.7839203  61.4960051
  17.5884187  46.2177992  61.0450554  16.8642867  44.8925781  61.1470938
  87.8278446   2.6587766  54.0993166  87.3714733   2.9832786  53.3230066
  87.2678947   2.9165906  54.8315859  59.8111963  72.5077724   9.7846705
  60.6257296  72.9812241   9.6155387  59.2037058  72.8309822   9.1192979
  65.5076933  57.8175592  61.8412495  65.1847124  57.5681114  62.7070951
  65.3210354  58.7541580  61.7766666  50.0585413   8.2958621  69.2161846
  50.7310295   8.9318722  68.9722872  50.4113388   7.4529946  68.9309835
  24.0524006  59.6868038  29.1994190  23.6922169  59.3957424  28.3616948
  24.9306250  60.0020599  28.9859581  71.3531971  63.6767721  62.1112490
  72.0566702  63.7211800  61.4636469  71.6492701  64.2409706  62.8255701
   2.9103118  23.1695127  43.5057640   3.2048649  23.2073593  42.5957966
   1.9612509  23.0602527  43.4459543   9.9591613  41.1231804  44.8406744
  10.4476547  40.6223965  44.1873550  10.1541126  40.6882286  45.6707573
  37.8690791  82.3369980  10.0226271  38.2968879  82.8733921  10.6900740
  37.4247193  82.9682255   9.4566584  22.3135352  37.5649047  56.2071180
  22.6855874  38.4252000  56.4012909  21.8359876  37.6900339  55.3870392
  54.0982103  69.1276217   7.4184072  54.2418528  68.2230186   7.6964182
  54.4723511  69.1700125   6.5383744  28.2921863  38.0735016  59.4401550
  29.2464685  38.1023359  59.5090294  27.9822683  38.5694313  60.1979399
  49.7261190  59.7285461  16.0157979  49.8276043  59.5365000  16.9480264
  49.6881962  58.8687277  15.5968678  46.9714785  58.6496878  26.3228679
  46.1612844  59.0013742  25.9539008  46.7791319  58.5304356  27.2529268
  23.7274170  19.4464040  67.0378685  24.4146371  19.6266508  67.6793289
  23.6724639  18.4912586  67.0077324  18.7002707  37.8144860  71.1916637
  19.1232216  37.8881001  72.0471907  19.4248354  37.7163076  70.5739307
  23.6625218   3.2442278  30.2126884  24.4014263   3.2843852  29.6055317
  22.9617858   2.8288606  29.7100234  22.7183795  25.4698586  47.5663090
  22.0577145  24.8379159  47.8498602  23.1535316  25.7404780  48.3747911
  42.0111752  64.6449280  15.7059395  41.8691301  64.5797014  16.6502917
  41.1308050  64.7034788  15.3347898  79.8129082   4.5371324  68.8897419
  79.2255592   4.9202424  69.5412636  80.0878525   5.2782393  68.3499241
  86.0762310  12.1577632  65.1674223  85.4618645  12.5698304  64.5599747
  86.6903877  12.8552091  65.3968096  14.7276819  24.9156904  70.8217669
  14.9222708  25.8159399  71.0823870  14.1826868  24.5736670  71.5304518
  70.2070236  79.8255253   1.9656038  70.1309252  80.4990673   2.6414624
  69.3716002  79.8584318   1.4995340  33.9415359  29.0181661  11.3211167
  34.8382735  29.0123153  11.6558731  33.5324073  29.7723675  11.7454100
  51.3913345  77.1552658   8.8615054  51.5790081  76.6686964   9.6641648
  51.9537830  76.7522764   8.2000816  75.4130983   1.8289295  13.8197017
  74.9360847   1.2554145  13.2198942  76.1688519   2.1285306  13.3144200
  49.9181366   3.9470536  60.8786631  50.3425407   4.5731983  61.4652205
  49.6896982   3.2078242  61.4422131  68.9021158  14.9047601  59.6796703
  69.4458723  15.2305615  58.9624453  68.1461239  14.5087004  59.2462587
  39.1417837  30.4359102  45.1971722  39.0371203  29.6592736  45.7468224
  38.2478094  30.6875348  44.9653769   5.8768952  26.6987824  63.1309843
   5.6985503  26.4203978  62.2326946   5.1540428  27.2878337  63.3471680
  45.3967619  49.7784948   2.0769633  45.1670647  50.4184914   2.7506638
  45.6914425  49.0106058   2.5666049  47.4826097  33.1378651  68.7122345
  47.0327902  32.3837137  69.0932226  48.3239555  33.1700635  69.1675758
  27.4461937  42.1974468  62.1785498  27.4004197  43.0737066  61.7960453
  28.3104444  42.1598196  62.5882912  49.4456530  15.5055606  60.5154657
  48.8413954  14.7817791  60.3503895  49.9795961  15.5573511  59.7227144
  47.1883869  49.7198820  32.8545117  47.3857069  49.6890068  31.9183803
  46.6184711  50.4824448  32.9541349  72.1159029  39.9966526   4.5398417
  71.5537071  39.5183372   5.1492500  71.5088081  40.3944540   3.9158034
  62.0644617  79.8468304  53.3274889  62.7632236  79.6201611  52.7138233
  61.3084698  79.3427706  53.0264473  24.8945713  31.7934966  43.2139158
  25.6763935  32.1983624  43.5895109  24.6905828  31.0706520  43.8073111
  50.6356583  19.8159486  -0.1867266  49.9184189  20.1594239   0.3460245
  50.6269227  18.8732415  -0.0210352  54.6188831  22.6099038  51.4619684
  54.9754000  22.1714234  50.6894016  54.6841669  23.5431004  51.2591982
  14.3613827  39.1641808  55.2058840  14.7686517  38.7013698  55.9381199
  14.3676019  40.0839996  55.4707003  18.7973988  62.9303265  57.7459145
  19.0715873  62.7893305  58.6520958  19.0685916  62.1352005  57.2871447
  23.6978006  36.7096019  58.6449289  24.4580269  36.7712617  58.0665827
  23.0488586  37.2922516  58.2504320  13.9311862  33.9594483  10.0931227
  14.7537971  33.4712648  10.1280332  13.4372020  33.5460544   9.3850851
  36.0135484  36.1685324  69.6700001  36.8553185  36.2116361  70.1236534
  36.2397456  36.2109733  68.7408829  83.7409592  10.6273222  16.1925197
  83.0295944  11.0999739  16.6247225  83.5775089  10.7512283  15.2575517
  11.0753357   3.1778196   3.4782827  11.4614785   2.3113814   3.6063889
  11.6340029   3.5943782   2.8220800  27.3646498  23.4610939  68.6561680
  27.8878927  22.7371597  69.0002108  27.4726677  23.4046507  67.7067566
  79.2002821  23.1317949   5.0062466  78.3474493  23.5631132   5.0598675
  79.2837429  22.6621127   5.8361053  82.0680618   7.8639191  11.1783373
  81.9753647   8.4026861  10.3926086  83.0135727   7.7893913  11.3074672
  76.8155861  78.5394382  38.5190082  77.5986242  79.0625048  38.3473063
  76.2035942  79.1514874  38.9277840  65.8718681  81.7135525  17.1934104
  66.7625189  81.6716290  16.8452513  65.7045078  80.8331776  17.5297964
  81.6781902   9.4576406   8.9192414  81.2648201   8.7758279   8.3896309
  82.5357819   9.5882446   8.5146242  47.7923727  69.8230219   2.7708212
  48.4344101  69.2797709   2.3137647  47.6181555  70.5460882   2.1682796
  44.5675087  44.1086245   1.5929636  43.9497757  44.7563314   1.2536821
  45.4259825  44.5191193   1.4893113  81.0461140  72.7038622  12.9148090
  81.2081432  73.2449722  13.6875808  80.2657986  72.1960926  13.1372952
  62.7486134  18.2229757  19.7357833  61.8643141  17.8570485  19.7172046
  62.9103184  18.5044360  18.8353038  59.4016027  75.0129080  13.4038186
  60.1910162  74.6504116  13.8058841  58.8492250  74.2505503  13.2308185
  82.9738331  72.5503778  48.7539959  83.6460972  71.9944096  49.1479445
  82.4633312  71.9559145  48.2042456  20.4046392  17.9423749   1.1863133
  19.7498477  18.2297540   0.5500001  20.9189820  18.7279677   1.3721260
  56.1240149  11.8901479  66.6163254  55.9838200  10.9470046  66.7003393
  57.0444345  12.0169175  66.8465185  20.0048900  35.0447392  55.7183838
  20.5080247  34.2321634  55.7713652  20.6098771  35.7213044  56.0224915
  19.1282558  42.4528074  68.5352945  18.9529073  41.5199709  68.4115887
  18.6081338  42.8860855  67.8585577  51.4572239  38.2494283  60.0942039
  52.2587919  38.1836414  60.6132317  51.2603569  39.1859722  60.0752354
  48.8961983  41.8917799  51.1549091  49.0252066  40.9470081  51.2385225
  48.3601999  41.9916296  50.3681660  55.6724977  65.9478521  10.6960630
  54.8163700  65.5235481  10.7530653  55.4985332  66.8666410  10.9004998
  71.0362434  80.1820660  41.3623428  71.5512419  80.9407425  41.6369486
  70.2091122  80.2698898  41.8360233  27.2024322  36.1398315  71.1099195
  26.8423820  35.7777500  70.3002977  27.5653982  36.9873548  70.8526421
  47.6945877   2.1963233   6.2460190  48.1673670   2.8855509   5.7794601
  46.9757318   2.6527518   6.6832292  20.4006004  30.5322194   7.5941730
  19.5826852  30.1618457   7.9259437  20.5740809  31.2801456   8.1657869
  67.9333305  51.4327621  16.2595606  68.3114672  52.3038769  16.3795578
  67.9988146  51.2707996  15.3184390  28.9286542  61.5839720  51.9911909
  29.4647574  62.0609713  52.6246738  28.6543131  60.7937384  52.4564886
  35.4599500  75.2473164   6.5713644  35.0973868  75.2991152   7.4557269
  36.3967204  75.4065514   6.6868490  50.6083012  55.9186792   7.6066869
  50.2604008  56.3384581   6.8199301  51.5541792  55.8875847   7.4632347
  25.4251862  30.9856629  40.5746222  25.7564521  30.6786418  41.4185619
  25.0342059  31.8380356  40.7665205  41.2257624  27.9406738  67.3938990
  40.7793713  27.9177523  68.2403278  41.2276697  27.0299101  67.0993900
  26.7961502  66.5131426  66.0760784  26.5883636  65.9804821  66.8437529
  25.9442520  66.7297697  65.6971645  28.3744121  67.9770565  43.9802980
  27.9505205  68.0853748  44.8316622  28.3962941  68.8593149  43.6096621
  12.1787691  19.4910789  66.9152021  11.5394568  19.2291820  67.5777149
  11.7302966  20.1632667  66.4021111  11.1534572  17.4528372   8.0301052
  11.4739656  17.5578177   7.1342903  10.3796411  18.0144656   8.0749863
  33.1904936  38.8230729  10.4228544  32.4596667  39.0809774   9.8610634
  32.7818727  38.3382726  11.1399531  12.2523940  22.6524234  50.3081560
  11.6009974  22.8495240  50.9812593  12.0527148  21.7565179  50.0366545
  32.2464371  31.0414839  16.6831994  32.1748948  31.6579962  15.9544849
  31.3401985  30.8379698  16.9146025  31.8101811  48.5259914  62.3759079
  30.9991479  48.9241028  62.6920795  31.5240240  47.7505827  61.8931150
  82.9730034  24.5755005  24.1147113  83.4113216  24.9519539  23.3515620
  82.0686722  24.4429970  23.8303614  21.8532515  53.9329100  68.3014917
  21.3537884  53.2965803  68.8132095  21.1958838  54.5486784  67.9775620
  40.0547600  25.3797317  22.0064735  40.8690786  25.8062100  21.7395759
  39.3846369  26.0548186  21.8995976  67.3914242  66.9628048   9.0187019
  67.6672745  66.4187193   8.2810634  67.3682261  67.8519535   8.6649901
  45.3718567  23.5109115  23.9742899  45.2384567  23.0045223  23.1730366
  45.2926064  22.8685999  24.6795487  33.1087446  77.5966883  13.6578882
  32.2817111  77.2943592  14.0331805  32.9378033  77.6558208  12.7179337
  20.7126880  30.8628130  44.8463917  20.4996228  30.8010602  43.9152527
  21.0835433  31.7391920  44.9496269  53.6138201  53.8612795  17.0256329
  53.8279343  52.9857874  17.3479569  52.7843332  54.0771627  17.4517524
  24.3788338  47.3037720  62.1269751  24.7013807  46.4071798  62.0358038
  23.4635282  47.2035980  62.3885298  69.6100903  44.3120909  57.3282385
  68.7607050  44.2570829  56.8903494  69.8397779  45.2405214  57.2896385
   0.2406599  19.1923964  49.1457748   0.1766475  18.2994783  49.4846439
   0.9179834  19.6042132  49.6823120  17.4500108  36.7701888  62.5564146
  16.5156925  36.9780612  62.5480080  17.6861858  36.7663288  63.4840107
  48.0843592  48.5562134  42.5869799  48.9713669  48.3712196  42.8955698
  47.5570965  47.8327942  42.9259396  73.5971785   3.1681049   7.0420206
  73.1314802   2.6238468   7.6769549  74.1067743   2.5466865   6.5220380
  46.7810440  27.7724099  60.4275179  47.3336792  27.4473572  59.7167730
  46.9152927  27.1476626  61.1401892   0.7003511  31.2904668  26.2420368
  -0.1117327  31.1707211  26.7343926   1.2582020  30.5639124  26.5198064
  36.3901591  27.1507502   2.4435163  35.9876323  27.3819208   3.2806337
  35.7932138  27.5054312   1.7846623  15.6565738  24.2265725  48.0211687
  15.0776744  24.4434786  48.7519598  16.4040399  24.8154640  48.1247759
  63.5557747  51.1431217  65.2808762  64.4038773  51.5690041  65.4057121
  63.7699938  50.2865791  64.9111748  16.0900092  11.7747664  16.7156482
  16.5494621  11.6573966  17.5471282  15.1791584  11.9306195  16.9652331
  71.6690874   3.7679082  21.8019772  72.5177574   4.1231233  21.5377641
  71.6270638   2.9094729  21.3806057  85.0176048  18.4376562  17.2725976
  85.3120613  17.9149497  18.0184555  84.5641518  17.8130388  16.7064977
  67.3431778  28.1001163  65.3557730  67.0019388  28.3485031  64.4966507
  66.7859507  27.3731828  65.6337881  62.6005793   5.7105666  62.6884127
  63.1863785   5.9931356  63.3907127  61.8095636   6.2355524  62.8105450
  83.6947250  47.4765635  64.1107988  83.3431339  46.6070080  63.9197683
  84.2950058  47.6564550  63.3872414  40.5629253  58.2441711  68.5070848
  40.9568024  57.7965546  67.7582645  40.7218456  59.1734266  68.3413601
   7.9378867  34.5505214  68.8540125   7.6085371  35.4460526  68.9300776
   7.1506470  34.0062022  68.8397598  78.8901281  42.8058386   9.9677533
  79.6564102  42.5124216  10.4606473  78.3097029  42.0448542   9.9519777
  24.8615885  33.0270791  71.4792109  25.7200003  32.6830196  71.2322617
  25.0566912  33.8023877  72.0055819  45.7850790  24.0660048  65.5922890
  45.2475595  24.3700933  64.8609686  45.8133030  23.1147575  65.4895020
  44.9583006  27.1319652  44.5817947  44.0282488  26.9768810  44.7466803
  45.1763773  27.8855491  45.1302338  42.2829247  32.1370029  58.9839125
  41.5290880  31.9638324  58.4200144  42.2940540  31.4048743  59.6004295
  62.8425312  33.7415361  61.0273695  62.7373552  32.8370333  60.7323408
  63.1885386  33.6647415  61.9165373  82.7844143  27.9245305  38.2354283
  82.5005341  27.7843857  37.3321009  82.0042515  28.2509828  38.6837530
  31.3575625  62.1942329  32.8557467  30.8158302  61.5532923  33.3161354
  30.8021879  62.5090218  32.1425152  33.5906267  78.2444954  63.4002161
  34.2384791  77.7042246  62.9478598  33.4077168  77.7703476  64.2113638
  83.7671375  28.9424896  69.7248316  82.8587151  29.2375779  69.6621752
  84.1041470  29.3701768  70.5120707  17.0282209  54.6538258  69.3201971
  16.4626074  54.3964672  68.5921335  16.4932775  55.2554369  69.8380136
  81.5500832  25.4507041   0.5393615  82.4651909  25.4112363   0.8173260
  81.1032391  25.9093976   1.2508072   7.7966076   5.1457763  37.8250217
   8.1034589   4.4957873  38.4571528   8.0619776   5.9864515  38.1979513
  81.5310383  50.2118397  30.5863714  81.2821198  50.3472662  29.6720791
  82.3593903  50.6820107  30.6812453  28.9850974  47.9834223  63.1898880
  29.3011403  47.0991087  63.0045795  29.3703079  48.2025576  64.0383148
  31.7163134  20.1984406  32.0491767  32.1049762  19.3422604  32.2284222
  32.1967602  20.8027744  32.6150250  60.0487852  64.7108221   3.7100607
  59.3859196  65.3246880   3.3938193  60.7936239  64.8390484   3.1226876
   4.2290118   0.8623045   1.4536902   3.3954751   1.2942588   1.6404088
   4.5398736   0.5622076   2.3078205  53.9934587  29.4523287  63.7461901
  54.1187143  30.3834391  63.9294338  53.3584261  29.4324255  63.0302525
  42.0334625  77.0303440  19.5473135  41.9047737  76.8335152  18.6194503
  42.7825117  77.6260614  19.5641363  71.4045429  20.1376438  21.1290097
  71.7038774  19.2778349  21.4245725  72.2036076  20.6608772  21.0661769
   9.7908014  64.2789841  64.3339062  10.7458210  64.2164326  64.3498993
   9.5910066  65.0349092  64.8860788  38.9457965  66.8183947   0.6499887
  39.1301703  67.1343756   1.5345195  38.6263132  65.9250021   0.7765388
  19.9459624  55.8509541  59.3286753  19.0925872  55.8425474  59.7621632
  20.4921460  55.2752066  59.8638630  35.2131653  56.2774467  68.5372925
  35.0924373  55.6762314  67.8023148  36.0290337  55.9921217  68.9486074
  46.2292671  36.1383343  69.1813231  46.8216705  35.4760599  69.5372438
  45.3725147  35.9129715  69.5438433  21.0859561  39.8773026  71.1284399
  21.5926766  39.6375394  71.9043112  21.5360665  39.4419909  70.4044628
  41.2467337  75.2959538  38.0678010  41.6410494  75.9935665  38.5913301
  40.5588675  74.9359560  38.6276913  82.9985142  31.1789536  16.0863078
  82.9459572  31.0504031  17.0333791  82.0884800  31.1551428  15.7904983
  20.8153176  80.8404446   6.1247391  20.7921815  81.7797661   6.3074297
  21.0955191  80.4429340   6.9491780  66.0947704  68.9356089   5.5181491
  66.8567896  68.4187412   5.7796878  66.4377832  69.8199940   5.3899282
  11.8024290  39.4652748  29.0046382  12.4733973  40.1440430  28.9317846
  11.8805611  39.1468024  29.9039173   5.4949272   5.6492335   8.3009630
   5.6543881   5.1489079   9.1012621   5.7380438   6.5469551   8.5272849
  74.2517090   1.3470162  22.2759509  73.9476252   1.8290892  23.0449557
  74.2307377   1.9895333  21.5667510  47.2519541  17.4892044  57.2278023
  46.3916874  17.1312535  57.4469852  47.8263712  16.7245722  57.1876049
   0.6068290  72.6009750  20.3821087   1.0108455  71.8450069  20.8081579
   0.8798815  72.5344849  19.4670939  83.0860710  16.9424248  19.3715250
  82.4231720  17.0791042  20.0483656  82.5855160  16.7093754  18.5896242
  12.0295525   2.5205344  34.3994856  11.0815215   2.5898600  34.2869592
  12.3159575   3.4166598  34.5760179  44.4442320  11.2894559  47.3458719
  44.1659784  11.6762996  46.5157175  44.0600729  10.4127347  47.3422575
  51.1321259  55.9225750  12.6766968  50.5293989  56.0400486  11.9424295
  51.9994736  55.8958292  12.2726798  48.2831430  33.9138627  55.8640146
  48.1862450  33.3622646  55.0877523  47.6308584  33.5785103  56.4790726
  26.4524603  60.3688335  15.1986742  25.9031439  60.3614283  15.9825277
  25.8921242  60.7397747  14.5170188  19.7757864  32.6086807  48.2908630
  18.9138496  32.5691628  48.7052727  19.6523929  33.1839681  47.5358486
  49.9693775  70.8073092  27.4269676  50.3436089  71.6542149  27.6697278
  49.1862440  71.0272741  26.9224405  22.7149415  41.6144562  49.4254398
  23.4744191  42.1778440  49.2770672  22.8322363  41.2839651  50.3160858
  60.2760077  70.8232307  13.2062364  59.3594456  70.5756330  13.3280516
  60.7525063  69.9932194  13.2223797  59.2353392   6.7345029  15.0326276
  59.5764732   6.1402094  15.7009649  60.0152826   7.1282220  14.6415961
  51.2826729  56.0345984   1.2793179  51.2742996  55.9391212   0.3269283
  51.9369411  55.4027987   1.5776271  73.7527609  65.0418472   4.6988308
  73.3149624  64.1906452   4.7039583  73.6740637  65.3570843   5.5991989
  38.3568406  20.8322358  64.5335674  38.4760189  20.9575701  65.4750109
  39.2462683  20.7625437  64.1867304  27.7652168  12.3131704  41.3300276
  28.3352947  13.0374801  41.0719156  27.3563957  12.6083469  42.1436405
   5.4859895  14.2008793  32.5848722   4.8922980  14.1153407  31.8389177
   5.3343296  15.0878620  32.9112053  12.5072896  31.0712695   9.7870302
  12.3967874  31.7004824   9.0742105  11.7599738  30.4792333   9.7019094
  72.7737665  11.8930542   6.5528649  72.5428104  12.1365905   7.4492919
  72.0297480  12.1849644   6.0261214   0.2541949  18.0197430  56.8746185
   1.0689390  18.4156454  56.5652895   0.4669048  17.6829731  57.7450037
  26.2128329  71.7468262   0.1139166  26.8581748  72.3612976  -0.2356455
  26.5087461  71.5710640   1.0070983  59.7852945  70.7705021   6.1653084
  60.3067732  71.3485909   6.7221802  60.1408577  69.8967505   6.3276869
  37.3123050  67.9538393  38.2477331  37.2963381  68.5496998  37.4987841
  36.7164016  68.3512354  38.8827157   3.0425296  83.1002654  17.2923028
   3.1225047  82.3143124  17.8327787   3.0874929  82.7775995  16.3922501
  61.5510273  33.4601283   1.0205684  61.0474968  33.2227111   0.2419005
  61.0672951  34.1912508   1.4048812  13.5559154  66.4197540  65.8562994
  14.3294609  66.4942503  65.2974510  13.7205005  67.0294285  66.5756273
  68.5921144  54.6955538   2.7006844  67.9988813  54.5526266   1.9632035
  68.4557772  55.6112814   2.9437521  59.8664713  33.0951214  59.0102291
  60.0417614  33.9941573  59.2881489  60.6582165  32.6123738  59.2475653
  85.8504391  46.8788338   5.9063476  86.3201714  46.2829590   5.3228116
  85.6321144  47.6307297   5.3556907  58.5202074  68.2195711   0.4439088
  58.7964487  69.1196871   0.2715219  57.5688457  68.2741404   0.5342521
  35.7743311  33.6208367  51.9752216  36.6173601  33.3283496  51.6288328
  35.3474426  34.0514278  51.2345552  45.5769873  19.3784392  60.3100920
  45.4526901  20.0574446  59.6469688  46.0220242  19.8254132  61.0300875
  46.9962549  46.2016487  71.8913317  47.5242853  46.5117359  71.1556244
  46.6426182  45.3627777  71.5955687  30.9710479  37.3801899  69.8104429
  30.0279164  37.5376987  69.8543167  31.3574266  38.2540846  69.7533941
  26.1066008  20.3586626  14.8828161  26.6485310  20.2442408  14.1021407
  26.5783668  21.0039377  15.4093981  53.2641411  57.1405029   3.2691824
  52.9959488  57.7168941   3.9847800  52.6583910  57.3452425   2.5568748
  23.5309792  56.5350294  49.4132662  23.2638264  56.2810946  50.2966547
  23.3459258  55.7645416  48.8762951  25.7652760   5.8441347   5.6192738
  25.1656032   5.1062799   5.7297051  25.8099890   6.2482053   6.4858526
  62.0071459  57.8902626  68.2251692  62.3561764  57.0064688  68.3405685
  62.7120209  58.3714485  67.7917671   3.5898170   5.9367919  30.3597474
   4.2038718   6.6065925  30.6606388   3.4531346   5.3765982  31.1237717
  81.9193840  22.1256566  63.9946985  81.5389442  21.3530254  64.4124746
  82.3387909  21.7879510  63.2033110  41.7366123  72.8122520  12.7555287
  42.5307417  72.4613142  12.3524988  41.3172436  72.0525646  13.1595492
  69.1565895  82.1537685  60.9478474  69.1028738  81.9351673  60.0174904
  68.4791517  82.8174877  61.0774326  36.5733218  33.2685161  43.9622641
  36.5980411  32.3952913  44.3535423  36.7842746  33.8605380  44.6842337
  67.1624899  -0.0939696  40.5532265  67.2292137   0.7083488  40.0354815
  67.3577023   0.1819531  41.4487696  42.3250341  81.9518471   2.2378455
  42.2376680  82.8311253   2.6059064  43.2609129  81.7596245   2.2963190
  35.3612137  34.0201807  56.8133688  34.6541715  34.6531677  56.6882610
  35.2414465  33.3847237  56.1076212  47.9223442  60.1701880  70.8344746
  47.8692484  61.1045742  70.6336498  47.0575428  59.8272657  70.6091833
  59.6609974   2.8683200  64.9522734  59.9507952   3.6800778  65.3685665
  59.5465660   3.0994681  64.0304756  30.5304694  63.3019590  30.3105116
  30.5575538  62.5383043  29.7340274  31.2376809  63.8649416  29.9956560
  68.5554171  78.6214876  24.6935844  69.3594360  78.1356907  24.8774076
  68.8420725  79.3696594  24.1698503  25.3122163  17.6197588  47.5706577
  25.9249783  18.3543062  47.6052189  24.6108890  17.9199004  46.9924831
  25.5423975  71.7893410  32.0050240  25.0328875  71.5313005  32.7731657
  26.3725185  71.3223839  32.1003175  75.6205034   7.7408493   3.3567780
  75.4475880   6.8351698   3.6138326  74.8227406   8.2136309   3.5940188
  13.0828965  25.9485030  68.7450075  13.9037657  25.4607081  68.8118219
  12.5253642  25.5736589  69.4268274  21.2291694  77.2458982  43.5350418
  21.2399912  77.2653913  42.5781012  20.8855534  78.1026793  43.7881851
   5.8150202  41.1023140  55.2181482   5.7157040  40.1706076  55.4138231
   6.1671203  41.1239672  54.3283224  38.4894347   7.3127359  62.2223568
  39.2344880   7.3167479  61.6214323  37.8635764   6.7079723  61.8238640
   6.1024594  62.6327801  66.6248512   5.5166733  63.0095243  65.9682274
   6.4412761  61.8368483  66.2150621  57.3918390   9.0504891  10.8175588
  56.7429829   8.4984773  10.3810954  57.6715994   8.5375041  11.5757227
  81.2239075  37.1909428  47.1873474  82.1551132  37.0853090  46.9926071
  81.1894989  37.3075724  48.1367922  87.1685314  15.4109168  16.4169908
  86.5102005  15.0366688  17.0024598  86.8474865  15.2122211  15.5373979
  70.3681326  38.5022473  51.1620140  70.4891872  39.3509388  50.7362175
  71.2554836  38.2103491  51.3709021  54.0958834  81.4983368   3.4716398
  54.5544672  82.0756245   4.0821108  54.5538807  80.6609344   3.5439283
  60.1346731  38.0029464  64.3687487  60.5115509  37.1577621  64.1240931
  59.2144632  37.8114581  64.5498037   7.2402102  30.1907587  66.3105011
   6.6548294  30.0167799  67.0475864   8.0923861  29.8640895  66.5991449
  74.7389364  30.1166821  15.1664042  74.3075371  29.3660355  15.5746353
  75.6326437  29.8174810  14.9990666  22.5098252  58.7295628  11.7189634
  22.2974968  57.7999401  11.8023300  22.1100450  59.1364241  12.4876440
  75.7563972  38.3372259  13.0114424  76.1340427  37.9163337  13.7837553
  74.9011421  38.6519003  13.3042824  31.9345570  38.2976365  65.0952101
  32.0973468  38.9982986  65.7267237  32.8018546  38.0721498  64.7587824
  86.4058208  70.5107546  66.7711544  85.9092236  71.3193130  66.8970776
  87.0006752  70.4758930  67.5202608  36.3280368  17.8845954  27.4721026
  36.1810231  17.2624528  26.7596722  35.4498482  18.1049752  27.7826691
  77.3129797  54.3064117  33.1864071  76.6660118  55.0116539  33.1693149
  76.8114996  53.5270929  33.4260178  24.6653962  60.8790588  63.3099079
  24.7556973  61.8123960  63.1176567  24.0317392  60.5621481  62.6662636
   2.8281355   2.9307610  16.3796794   3.3233064   3.1689402  17.1634579
   2.5232863   2.0396402  16.5505672  72.6942968  17.8944588  28.4197569
  72.1548510  17.2588933  28.8901687  72.0795155  18.3531940  27.8471851
  80.5004025   6.1049479   9.6749854  80.1919556   6.4813143   8.8507015
  81.1204338   6.7497820  10.0155342   1.0968170  38.1837940  13.9489877
   1.4003333  37.3866057  13.5147047   1.7907353  38.3954024  14.5734334
  42.7466249   4.0487236  36.6985369  41.8430662   3.7512037  36.5922809
  43.2410002   3.2508564  36.8862462  11.3605189   4.0549546   6.1164135
  11.4900410   4.0546948   5.1680171  10.4246461   4.2205015   6.2302917
  84.4894123  18.7800336   7.2948575  83.6687660  18.7067401   6.8076247
  85.1712036  18.6346471   6.6389197  31.6844845  32.5453305   9.9624264
  30.8731842  32.5784564   9.4555473  32.2221303  31.8942142   9.5116293
  23.7186790  18.9457238  41.9445944  23.5416913  19.8137093  41.5819502
  24.3065286  19.1095614  42.6820374  30.8406448  29.4106889  13.2271373
  31.0109639  29.2312074  12.3024702  30.1309037  30.0529051  13.2196891
  36.9691253  13.9630651  57.8213263  37.8357911  14.2461812  57.5298405
  36.7449737  13.2383871  57.2375250  70.4715919  63.2578754   5.9106350
  69.9724197  63.0676746   5.1163524  70.8468676  62.4149323   6.1652839
  73.0147409  25.7801914  48.9206362  73.3460474  25.1475191  49.5579720
  72.2409248  25.3596401  48.5456991  79.3842697  10.2640021  53.5232973
  78.7285852  10.8043528  53.0824709  78.9705944  10.0110269  54.3485880
  52.5893831  47.6703453  62.4949980  53.1264973  46.8931389  62.3410749
  51.8453789  47.3501396  63.0050611  51.1322165  63.1390905  69.4349718
  50.6833267  62.3331785  69.1795635  50.6152248  63.4802485  70.1647425
  77.3147106  10.9018803  28.5423183  77.7894640  10.2603889  28.0138040
  77.9654503  11.5740049  28.7448502  16.2826717  76.7656517  30.4796433
  16.4578819  77.0081377  29.5703936  17.1113193  76.4052248  30.7953429
  33.5566473  60.5321264  65.4793024  34.4871759  60.4061413  65.2936316
  33.1757641  60.7801628  64.6369076   0.9211422  10.2987778  37.3104668
   0.6489386  11.0002899  36.7188454   0.4748352  10.4937410  38.1345010
  46.9743299  68.3170652  46.4979982  46.9584465  68.6389446  47.3993111
  46.8453646  67.3720455  46.5788507   7.5424820  27.3069119  12.6301301
   7.3170799  28.0854511  12.1209097   8.4058756  27.0504522  12.3060751
  15.9416950  80.0140381  24.5973563  15.3171182  80.7038116  24.8217463
  15.6827760  79.7326899  23.7198400  18.5947883  53.6822510  41.8811369
  19.1438198  53.5572100  42.6551914  19.0559137  54.3431854  41.3646460
  82.8142262  26.4161277  54.7337723  83.5117531  26.8708992  55.2058649
  82.2417545  26.0761595  55.4214811  80.4968452  32.3562431  57.6723957
  81.2004375  32.8741050  57.2812319  80.8766270  31.4853239  57.7885866
   5.5377436  34.8798203  71.6041040   5.6793547  34.0265250  71.1941481
   6.3248217  35.0271583  72.1285391  52.6046562  64.1798639  39.8138547
  51.9526863  64.2582035  39.1174150  53.0677462  65.0175238  39.8037529
  80.0691223  10.5980480  16.2895858  79.9632120  11.4094031  16.7862928
  79.5082760  10.7119870  15.5223179  22.4786186  26.5051079  12.1265185
  22.3382068  27.3054981  11.6206622  21.6241884  26.3129520  12.5128567
  18.7114000  12.9824400   3.1607324  18.8703859  12.0849884   3.4531957
  18.0061114  13.2972181   3.7261665  23.7808204  18.5267198   1.4180762
  23.1673360  19.2305374   1.6290459  24.6067739  18.8015974   1.8161693
  25.0234842  25.6532097   4.2490762  25.0921631  26.4940071   3.7967750
  24.9001789  25.8856893   5.1693922  21.6716480   9.2718190  10.7549775
  20.7577515   9.1615111  10.4925716  21.9506741  10.0767303  10.3185213
  27.5036407  58.5090351  49.1612816  27.4804592  58.4571457  50.1167917
  26.6500235  58.8688087  48.9201736  46.1952114  58.0703783  58.2060623
  45.9797573  58.9284515  57.8406477  45.3515673  57.7046204  58.4719944
  55.5903864  35.5616593  64.9114752  56.4243698  35.1120806  64.7751474
  55.1379776  35.4871678  64.0712357  16.4975190  15.1941633  12.2816825
  16.2394500  16.0083652  11.8495858  17.3965812  15.3507984  12.5704443
  82.6356506  39.8665833  11.6606879  81.8673134  40.3947878  11.4441311
  83.3753967  40.3680086  11.3177896  66.4800835  59.7039938  59.3906021
  66.8316221  59.9645424  60.2419329  65.5549812  59.5242786  59.5583057
  28.2931805  13.3225918  10.2397311  28.0198860  13.7723827   9.4402117
  29.1433811  12.9409814  10.0211763  11.9825590  62.7487516  19.2511845
  11.1263192  62.6831436  18.8283587  12.4573970  63.3971357  18.7312245
  50.4405642  73.9749098  53.8138247  49.9600506  73.1481314  53.8558817
  50.6411266  74.1820717  54.7265625  74.1286373   3.0941302  20.0426006
  74.4189548   2.4860254  19.3627799  74.1396952   3.9516741  19.6174788
  51.6978645  43.0156469   7.6836884  51.2854052  42.1529722   7.6401037
  51.0365629  43.5771418   8.0882096  16.8541121  36.7158079  17.0788872
  16.3660383  35.9068751  16.9251192  17.1760452  36.6343284  17.9766357
   9.8546976   3.6635718  59.4279718  10.4638112   3.7245470  60.1638317
  10.0757229   4.4104350  58.8715744  84.7306061  51.1915207  31.9238234
  84.5748234  51.2187529  30.9797788  85.0290489  52.0742321  32.1428895
  35.6047058  11.8055713  64.0267181  36.4110279  11.6828930  63.5256958
  35.2600431  12.6456606  63.7239170   6.4617521  28.4642339   6.5384698
   5.5133206  28.5260606   6.4249480   6.6373783  28.9404035   7.3500425
  41.8689060  57.9616976  57.6843119  42.0074654  58.8200521  58.0846405
  42.6259995  57.4443388  57.9588699  28.9953446  50.6967592  67.8241777
  29.5183468  51.4754820  67.6336718  28.1360245  50.8874893  67.4481153
  81.0053349  10.1495707  29.0493703  81.6378593  10.4806244  28.4117579
  80.3607368   9.6759826  28.5235882  17.3897588  74.1162872  67.4054670
  16.7265725  74.3114853  68.0675173  16.8901873  73.8059330  66.6502571
  14.6639705  79.5570660  60.6551456  13.8857460  79.7947693  61.1592197
  15.3958368  79.7377586  61.2450218  49.9609089  55.3016520  59.3835545
  50.0311661  54.4262648  59.0027714  50.2015400  55.8930635  58.6704159
  40.7443380  25.2377319   7.8161657  41.6300678  24.8752356   7.7984065
  40.4425430  25.0888729   8.7122655  72.9464626  19.0522194  15.7090652
  73.8306522  19.4036508  15.6045091  73.0011559  18.4927499  16.4838135
  17.8199160   8.6833721   3.5214436  18.0907118   7.7925837   3.2991871
  18.5666776   9.0495312   3.9952660  48.8655663  77.3085070  67.9952288
  48.0402565  77.7551270  68.1839800  48.6116648  76.4044571  67.8095818
   3.7353659   1.4659651  46.2655735   4.4571161   1.7311847  46.8356323
   3.1755733   0.9258991  46.8234205  50.3556013   5.3044444  65.8356142
  50.3551102   5.4462510  66.7822504  50.4245377   4.3549728  65.7356977
  17.2084606   8.5391468  48.8594723  17.9766905   7.9899985  48.7029743
  16.8751550   8.2484311  49.7083664  87.0251656  34.2351961  12.5549340
  87.4750710  33.6706400  13.1834984  86.2014580  33.7826872  12.3733449
   0.1749356  66.7807627  66.1480713   0.9021452  66.2798548  66.5175152
   0.5955816  67.4746799  65.6403589  73.1299114  12.9560232  65.8776617
  73.3642673  13.8721979  65.7295656  73.9687824  12.4959517  65.9070492
  77.3047352   6.3806832   7.7041548  76.3942385   6.2601954   7.4345011
  77.7458382   5.5789906   7.4231756   1.9238611  42.8796101   2.1326950
   1.7833334  41.9700241   2.3956273   1.7341220  43.3887672   2.9207247
  59.8960543  76.2514830  51.3758135  59.6208191  75.3348303  51.3906050
  59.0787697  76.7477131  51.4208794  34.2299128  68.2824850  43.4823179
  34.4992208  69.1257286  43.8465309  33.3915448  68.4621572  43.0567741
  51.4764452  81.7013073  65.6789875  52.2739077  81.5850830  66.1954880
  50.7693291  81.4365196  66.2673044  47.2262096  43.1663418  53.2931519
  47.8861761  43.2052183  52.6009321  46.5873909  42.5262928  52.9793501
  41.8272877  75.3504372  52.3864412  41.5388441  74.4499254  52.2377682
  42.4206638  75.2913427  53.1352043  32.0634818  81.3013172  44.7432423
  31.4949751  81.9421101  44.3161392  32.5065947  80.8555031  44.0213442
  47.9601336  50.7621622  71.0804319  48.5183907  51.4960051  71.3374472
  47.0676327  51.0893631  71.1927366  43.9361382  12.0654058  69.9116230
  43.8312101  11.8500745  70.8383703  43.0980873  12.4530900  69.6594334
   9.6711046  67.1084261  65.4214764   8.9245152  67.3937178  64.8947477
  10.3876555  67.6832247  65.1524162  46.9840193  69.2921400  49.2881441
  46.4026546  70.0514936  49.2478657  47.4269247  69.3741131  50.1327419
  67.0600176  23.5288072   5.2517635  66.3461065  23.1029916   4.7771651
  67.7538729  23.6301136   4.6002036  64.6542311  29.8627615  13.2661319
  63.9801455  29.6643186  13.9161050  64.7451782  30.8150792  13.2984853
  60.8450651  65.9940767  37.5120449  60.1018190  65.6108713  37.9778481
  60.6656933  65.8176374  36.5885043  52.3411894  56.3705254  20.9240818
  52.0893478  56.3983488  21.8471384  52.5361443  57.2808361  20.7014632
  59.3119383  70.1203156  42.2939634  59.6658850  70.7929277  41.7121220
  59.0091848  69.4292307  41.7049170  76.5698528  40.8352184  11.3741255
  76.4200306  39.9560142  11.7216694  76.6516447  41.3889694  12.1505904
  87.4831772   8.0436206  35.7511568  88.0928802   8.5306549  36.3055015
  86.7148590   7.9045188  36.3048387   6.7966348  53.2871628   3.8782120
   6.6292578  52.8368807   3.0502856   6.2346888  52.8406954   4.5115477
  70.5758142  24.1785979  10.8413458  70.2592134  23.3479095  10.4864526
  70.8289623  23.9735746  11.7414093  84.4540596  57.7685356  56.4176464
  83.9351749  57.7009201  57.2191572  84.1961288  57.0056343  55.9002686
   4.1631046  18.6028516   9.2562711   3.2176527  18.7147558   9.1571265
   4.5079181  18.6791432   8.3666003  57.8425884  68.3404779   3.4602192
  58.7928152  68.4246635   3.3813795  57.4931574  68.9982224   2.8589693
  53.6419725  61.0457516  11.1199486  53.3632135  60.3071404  11.6612232
  54.1608715  61.5925837  11.7098236  86.2149334  59.8169804  57.7679777
  86.4813328  59.2398405  58.4836435  85.2775574  59.9528551  57.9061365
  16.2767124  14.5142341  25.0044131  16.6679776  15.3866911  24.9601293
  16.1927438  14.3366659  25.9412432  26.7051268  27.1276522   9.4560081
  26.1002040  26.6866040  10.0524771  27.3070455  26.4392662   9.1730803
  56.8612051  19.7459030  69.4516897  57.1220446  20.1969004  68.6487007
  56.2623930  20.3544664  69.8844814  43.5175467  40.9535027  64.9947548
  44.4107723  40.8714151  64.6606159  43.1762981  40.0592232  64.9883509
  83.7790012   5.5222899  19.7634792  82.9332447   5.7219160  20.1648164
  84.1987514   4.9190989  20.3768325  32.9971027  43.1783390  66.4372206
  33.7496400  43.7301493  66.2240934  32.2411323  43.6696815  66.1157751
  58.7141800  58.1239891  62.2512627  57.8568602  57.9651690  61.8562794
  58.9876461  57.2684431  62.5821495  25.1046038  38.9275789   8.5352731
  24.4190192  38.4824872   8.0371797  25.2937675  39.7176933   8.0291420
  75.5257797  10.8052969  38.6457872  76.4598417  10.6516850  38.7877965
  75.0942850  10.0596166  39.0629244  12.8478670   6.7688787  24.9129820
  13.2695496   7.4490511  25.4381323  12.2332299   6.3485038  25.5144286
  79.6442413  40.2752781   8.0499732  79.5860577  39.6085167   7.3656678
  79.8761797  41.0780525   7.5830829  10.2479935  28.9315653  43.8300323
  10.3210306  28.9454842  42.8757238  10.0639236  28.0166531  44.0428352
  35.1693535  74.8836803  25.4859495  34.4724226  75.2357006  26.0396624
  34.9749279  75.2222061  24.6119761  80.4174614   2.9598576   4.8283771
  81.2404156   3.3578384   5.1122451  80.2764225   2.2382760   5.4412878
  28.2437563  40.7207394  65.6732512  28.5805821  41.1783934  64.9029684
  28.9166403  40.8496523  66.3417101  27.8988028   6.9089437   3.8929465
  27.9100823   6.3916761   4.6982655  27.4934697   6.3334543   3.2442954
  22.1508145  33.5957837  44.7629404  22.5382876  33.4051061  43.9086914
  21.3470030  34.0742230  44.5599270  62.8165770  35.7276392   5.4444945
  61.8980217  35.4636240   5.4972321  63.2683802  35.1462746   6.0561490
   1.7592077  18.0262041   4.9572149   1.9929641  17.4826241   4.2048115
   1.8035816  17.4311137   5.7056332  35.1552153  45.2739000  64.0840626
  34.8321962  45.9556484  63.4949064  35.4855013  45.7516384  64.8449278
  21.6357112  18.7714756  70.9724808  20.9810996  18.3512545  71.5302706
  21.9532156  18.0691075  70.4049397  56.7059517  48.8039255  69.3210983
  57.1997166  49.0894413  70.0898075  56.2546635  48.0099106  69.6076536
   5.6323987  52.0365238   6.0927331   4.9027219  51.4199305   6.0326093
   5.6137145  52.3420191   6.9996816  81.3912582  66.2063599  10.9381223
  81.6699028  66.2925100  11.8498051  82.0317173  65.6121302  10.5470562
  82.4759293  81.1561680  17.0735240  83.4262371  81.2622452  17.0301032
  82.1697330  81.9309616  17.5448835  81.3239288  74.7733784  30.9138703
  82.0781612  75.2687597  31.2331843  81.2653542  74.9982977  29.9853182
   2.5330159  76.3209963  68.7866163   2.2622699  77.2275829  68.9316225
   3.0397871  76.3492632  67.9750633  22.1105671   0.9379566  64.9579000
  22.6718473   1.6340673  64.6163940  22.6215291   0.1375487  64.8374939
  86.0460567  49.9835634   7.8601640  85.6989765  50.8350325   7.5941396
  85.3838348  49.3547487   7.5732964  34.2918992  38.3227921  69.2021179
  35.0494552  37.9273987  69.6333981  34.0418792  37.6896119  68.5292053
  12.9675901  25.6803226  13.3936596  13.5003829  24.9985027  12.9844129
  12.9034102  25.4156303  14.3112934  25.4024458  69.6738434  41.4917374
  24.5624352  69.2396688  41.6404057  25.7785368  69.7737074  42.3662710
  23.6394715  26.0903502   6.4530510  23.8484645  25.8533812   7.3565984
  22.8099203  26.5638423   6.5153766  76.9427776  58.7751150   2.6947439
  77.4353361  58.7096691   1.8766144  77.5923967  58.6137390   3.3789840
   8.4787488   3.7957662   0.5322273   8.6085367   4.4828671   1.1858933
   8.0843174   4.2467731  -0.2142635  61.8745756  15.1110327  27.7138519
  62.0888376  14.2547762  28.0841851  61.4142656  15.5680406  28.4177637
  47.2341156  51.2555361  52.6671791  48.0701303  51.0788059  52.2358084
  47.0450687  52.1701622  52.4575472  66.0383654  49.0236759  57.9472828
  65.1308727  49.0876532  57.6496315  66.1843491  49.8279572  58.4453249
  40.4994297  78.4443808  70.3896618  40.4423666  78.9917088  69.6064615
  39.8932743  78.8496733  71.0097790  29.4642377  25.3500128  66.8203831
  29.5446181  26.2960935  66.9416475  29.1150689  25.2508783  65.9346724
  20.0701785  46.0423279  69.5925999  20.9864378  45.7715034  69.5346546
  20.0686264  46.7444038  70.2432251  86.5298367  21.8974924  49.4926310
  86.1645985  21.2217975  50.0638294  87.3429394  21.5167403  49.1607761
  29.6959662  45.4110575  28.0114102  29.3031549  45.1374578  28.8403106
  30.0422335  44.6032286  27.6322746  57.8829050  67.5480127  61.8107224
  57.6842451  66.8518400  62.4369097  58.7596226  67.3378611  61.4891100
   5.3232336  31.9306827  12.1993768   5.1730096  32.7376366  11.7069423
   5.5983138  31.2947631  11.5389454  19.1109598  23.3442903  15.1925111
  18.1950629  23.5719728  15.3522718  19.3802679  23.9218545  14.4782829
  31.7083359  43.4131050   9.2067313  31.2991428  44.2644930   9.3614244
  31.1154079  42.7841425   9.6179205  38.6225033  48.3740377   2.9196990
  37.9845572  48.3232212   2.2078875  39.4715285  48.4042215   2.4787049
  33.5988522  44.5439482  32.9071140  32.8831506  44.8686981  33.4535027
  33.5899210  45.1130915  32.1375465  62.3685265   1.5627022  65.3839636
  62.1071339   2.4311200  65.0777674  63.3233213   1.6048247  65.4370832
  11.4817321   2.0435725  45.8940363  11.1080515   2.8812027  46.1678457
  10.7667303   1.6000964  45.4376030   2.1601707  79.2847633  57.4348879
   1.3912091  78.7796974  57.1706247   2.5418243  78.7813520  58.1540203
  72.8360128  81.8122673  56.0333633  73.1385946  82.6680851  56.3371086
  73.1134796  81.2033558  56.7178059   3.3421737  28.6437654  70.9360552
   3.4357476  29.5787692  70.7537317   2.8310603  28.6073756  71.7445564
  25.2073288  36.9324660  18.2559073  25.8266258  36.6996837  17.5641608
  25.7497787  37.3209858  18.9422262  14.0585268  79.1772270  28.1296873
  13.4770298  79.8907185  28.3924079  13.6167932  78.7703466  27.3843336
  51.4788008  79.2830896  36.4527655  51.9590664  79.4359493  35.6389999
  50.6726837  79.7896814  36.3539028  48.0430079  48.0497169  64.3834496
  47.3791361  48.2667208  65.0379848  47.6760864  47.3042583  63.9081717
  44.8649120  39.4528556   4.8571140  45.0268841  39.4259429   3.9141017
  44.7108030  40.3782177   5.0473499  58.8144875  44.7752380  67.5584459
  59.3048811  45.4209328  68.0671883  58.0524158  45.2548361  67.2336864
  40.6503439  38.2010770   0.3303132  41.1294508  38.7050390   0.9881213
  40.6423807  38.7640953  -0.4437517  80.5313683  25.8219337  46.7135429
  80.4696560  26.7352700  46.9932556  79.9692106  25.3457713  47.3246717
  57.3439503  67.0235395  48.4825897  56.8692398  67.7923155  48.7986040
  58.1908941  67.3658371  48.1966639  44.1931581  62.0092821  55.4648209
  43.3846092  61.5507364  55.2363253  43.9505100  62.5699043  56.2017393
  61.8891859  67.8925085  69.2002201  62.7771425  67.5396919  69.2575407
  62.0124674  68.8366747  69.1023350  22.7519608   7.4851674  19.5242357
  23.4622264   8.0474663  19.8333907  22.1704268   8.0754590  19.0450633
  14.5589435  31.4831471   0.9003887  14.2821217  30.5668545   0.9031924
  15.5146348  31.4445138   0.8630771  51.1031580  38.6992455  52.9566956
  51.1029816  38.7689090  53.9113569  50.2203035  38.9627528  52.6971531
  17.0932758  51.8847179  49.9288464  16.1574924  52.0490360  49.8124790
  17.1573281  51.4600897  50.7843113  44.1097403  15.1158261  70.7057190
  43.6413288  15.7061112  71.2959623  45.0328255  15.3375733  70.8280897
  21.8749523  44.7830391  11.4922774  22.4840331  45.3722239  11.0471737
  21.2987161  45.3644371  11.9884229  62.3599005  70.8417559  49.2838144
  62.2994471  71.7956972  49.2330933  61.6096544  70.5270672  48.7794971
  41.0146856  63.4755087  61.7055988  40.2881241  63.6888647  62.2911119
  40.9027910  64.0655088  60.9602022  38.5978913  67.7753973   3.1639490
  38.1529737  68.6210775   3.1082851  38.8973975  67.7216053   4.0714926
  53.3868837  71.8724155  50.8569384  53.8138628  71.0309505  51.0177231
  54.0980291  72.5122213  50.8909369  45.4646063  58.0508995  48.3837414
  44.8528671  57.6023054  47.7999878  45.9079123  58.6873579  47.8228235
  37.9559970  56.2309313  47.2867584  38.6392474  56.8713427  47.0885801
  38.2617640  55.4205990  46.8792009  15.0796342  12.3869002  28.7740755
  15.5343723  12.8668630  29.4662333  14.6782959  13.0679178  28.2342839
   3.3997524  20.7456374   5.0746143   4.3007657  20.4824662   5.2620924
   2.8631559  20.0488901   5.4525536  87.1795082  23.6623836  51.5226412
  87.0487881  23.2219958  50.6828785  86.4824963  23.3212638  52.0830345
  63.3866119  32.9389954  66.6138840  63.4453011  32.1264863  67.1164942
  63.3568668  33.6289907  67.2766447  31.5036058   2.4028464   0.2337040
  32.4323726   2.2538519   0.4109737  31.3682032   3.3300474   0.4291417
  73.1334972   7.7489775  55.9848547  73.3919668   8.1948447  56.7914724
  72.2548771   8.0802435  55.7990599  32.5975609  77.0086479  58.7453699
  32.0547724  76.9661665  59.5326471  33.4951162  77.0509958  59.0752697
  38.1189704   8.3150816  65.0561333  38.3263779   7.8717160  64.2335510
  38.9689660   8.4564108  65.4729843  63.0260181  80.3010941  34.3770194
  63.9691830  80.4483414  34.3063569  62.8312206  79.6626282  33.6909771
  52.5835466  58.8077974  46.1249828  52.6811314  57.8876400  45.8799982
  53.4631491  59.0808153  46.3857317  36.4905930  73.6351633  21.8673539
  36.0317087  72.8991318  22.2722173  36.4984870  73.4277344  20.9329319
  57.0304489  57.4645138  45.4699230  57.8461456  57.7218342  45.0401974
  56.3534403  57.9718161  45.0221157  37.8729916  44.1695929   3.8935578
  38.3367133  44.2191553   3.0576530  38.5148239  44.4609547   4.5411605
  65.6212091  77.0778275  64.1041994  65.3636360  76.3821125  64.7090673
  66.2828159  76.6740704  63.5425091  38.0974245  72.0578384   4.0379882
  37.2725558  72.3561192   4.4212002  37.8554606  71.2952852   3.5124439
  53.4371471  79.4650698  55.7248545  53.4303665  80.1264668  56.4167643
  52.8543043  78.7768698  56.0456514   8.5371053  11.4542437   4.5118073
   7.6218653  11.6429591   4.7190592   9.0374291  12.0190918   5.1007503
  74.5482969   5.8642143   7.2019607  74.2334223   4.9603775   7.2148860
  74.4140959   6.1774105   8.0964613  60.8957720  48.9501762  24.1668272
  60.8638048  49.3789244  25.0220394  59.9795723  48.7741613  23.9527488
  62.7863407  41.6280413   8.3997154  62.5736046  41.0160351   9.1042882
  63.0322075  42.4359560   8.8503337  58.8866043  14.9351335  68.7610960
  59.3149900  15.1820362  69.5807028  59.3924761  15.3819609  68.0823660
  61.7987061  78.3005381  69.0921068  62.2325945  78.3924437  69.9403572
  62.4635410  78.5589027  68.4537697  53.3063316  77.4488068  68.5546827
  53.0319357  76.8345261  69.2355680  52.5101566  77.9315281  68.3326149
  47.4570084  77.9063845  63.0900621  47.6027393  78.8233709  62.8573990
  48.3082008  77.6006031  63.4034252  31.2817669  15.0389922  14.6768916
  30.8437967  15.1473892  15.5210853  31.3042665  15.9202158  14.3038380
  37.2296166  47.2675371   8.2177299  36.6296887  47.7908945   8.7491560
  37.2783136  47.7331018   7.3827988   1.0719797   5.4313761  60.7821655
   0.8074619   5.8708715  61.5903139   2.0280075   5.4785985  60.7857180
  35.3428626  12.8198874   2.7454615  35.9764028  12.5192273   2.0939556
  34.4926429  12.7175343   2.3178136  19.2396152  54.0564251  71.1412573
  19.8727131  53.4776592  70.7164621  18.4577751  54.0005445  70.5918598
  15.7087648  43.5658073  69.7934723  16.1889243  44.3234253  69.4592667
  15.6972980  42.9479885  69.0624475  52.9751778  38.3450627   2.2283107
  52.5928879  37.5349474   2.5656560  52.6655960  39.0238667   2.8279895
  13.0067301   8.9023149   3.6324403  13.7910438   8.4420478   3.9311662
  12.3801959   8.2056606   3.4365824  41.5058994  59.7170019  50.8758593
  41.9744253  58.8950109  50.7307863  42.1967554  60.3711367  50.9810209
  69.3741083  21.7257857  30.4923534  70.2576065  21.6508007  30.1317406
  69.1361904  20.8299923  30.7314801  27.5888157  24.7036362   8.3783811
  27.7998590  24.7550225   7.4461514  27.9260111  23.8511348   8.6536527
  39.7732830   0.1853127  56.5228128  40.7260513   0.0936358  56.5306807
  39.5709801   0.6531107  57.3330402  54.2834997  49.4133043  67.4923468
  53.5965300  49.8516607  67.9944849  54.9760342  49.2439699  68.1310606
  51.7728901  48.4840631  59.7510576  51.9770527  48.2451677  60.6551981
  51.2846565  47.7348089  59.4097710  30.5014682  25.1768064  50.4062700
  30.3883791  24.3309975  50.8399153  29.7766113  25.2252269  49.7829962
  79.7825575  67.7663183  70.5751991  79.3572998  68.6048698  70.7547045
  80.6215000  68.0030251  70.1797485  73.8343096  23.7459731  68.0098343
  73.9000559  24.5138812  68.5774851  74.0617704  24.0717006  67.1389771
  29.7374964  65.6024551  46.5476036  30.0490665  64.7249889  46.3257742
  28.8823152  65.4577112  46.9525051  14.5463037  55.6265879  16.5954423
  15.4648662  55.6510162  16.3273406  14.0760934  56.0518217  15.8782864
  78.9806175  57.7461004  55.4244804  79.5241070  58.3075476  55.9773111
  78.9857531  58.1752443  54.5688868  42.2468853  53.3957958  27.7374411
  42.0018291  52.9807997  28.5644579  43.1348228  53.0821228  27.5659394
  28.3159661   2.6239881  58.0867910  27.5068045   3.1141075  57.9409552
  28.7185097   2.5630298  57.2204924  13.4861219   2.8673223  38.9163494
  13.2302105   1.9473898  38.8495231  13.3802783   3.0786011  39.8439217
  11.0438752  52.1578693   9.8202360  10.9612894  53.1077003   9.9052417
  11.9084823  52.0265007   9.4310963  44.0684843  56.9090891   6.1071444
  44.3391991  57.7842760   6.3846225  43.1910658  56.8020821   6.4744526
  31.4231825   1.6550918  26.2545228  30.7502270   1.9941960  25.6642938
  32.0751762   1.2624827  25.6740117  12.9992747   2.0510253  54.1963625
  13.6003470   2.7501982  53.9392614  13.1346321   1.9533470  55.1388979
  62.5082207  40.9411049  65.1060534  62.4066401  41.8718481  65.3051281
  61.6127348  40.6191540  65.0027084   2.4750581  63.1524277  54.6679831
   2.6840329  62.7089739  55.4901266   3.3023375  63.1670046  54.1867065
  37.2659349  14.7969341  38.5399413  36.9002533  15.6042314  38.1783032
  37.0901060  14.8540199  39.4791198  85.4753304  36.9182038  61.7931032
  86.1325359  36.2233424  61.8315887  85.1087761  36.8526030  60.9113073
  15.9291494  15.7093179   7.9255354  16.0275626  15.0496686   8.6121273
  15.0918198  15.5007601   7.5112700  63.9663601  78.3863688  41.2217808
  63.5240030  78.5649204  40.3919172  64.8741484  78.6497307  41.0708141
  78.9779329  77.6137877  64.8878956  78.2896042  77.7862787  65.5303049
  79.0842533  78.4432888  64.4222164  31.2034416  33.9701056   1.4965579
  31.1552978  34.8843479   1.7759806  32.1371031  33.7606883   1.5221387
  36.8101168  20.5425978  19.0192449  36.2414217  20.3294444  18.2793915
  36.7623663  21.4958954  19.0911782  75.9299898  29.9833035  66.8169975
  75.7361460  30.6482887  66.1563540  75.8475113  29.1513705  66.3508272
  52.4839401  53.4349680  61.0308170  52.4381828  52.4808407  61.0922956
  52.9354048  53.6002684  60.2031136  45.4741287   3.5393345  67.2387934
  46.2632990   3.9564836  66.8932009  44.8887110   4.2680421  67.4449492
  26.6483307  54.0514851  37.4146295  27.5341129  53.7432957  37.6060390
  26.6985226  55.0020695  37.5151467   6.9413406   5.1423347  61.3890743
   6.3416916   4.4209665  61.1986017   6.3717091   5.9024519  61.5072823
  26.8362617  17.2432089   9.6315730  26.9374871  16.4518690   9.1026449
  26.6584635  16.9198465  10.5147815   4.9045017  12.0678329   7.4234426
   4.8466256  11.1456668   7.6734281   4.3886909  12.5282609   8.0853915
  43.4591341  63.6993122  57.3962259  42.9971409  63.9067554  58.2084846
  42.8576374  63.9702463  56.7026615  52.4850225  58.7837744  64.3322325
  53.2166576  58.9600372  63.7407303  52.3460817  59.6104574  64.7943115
  70.8951998  14.8294199   6.0601050  71.2945700  14.9897075   6.9151157
  70.0945282  15.3539145   6.0676306  42.3489714  27.0169187  21.1914587
  42.9985857  27.3875332  21.7888546  42.2951221  27.6486397  20.4743385
   6.4258587  39.8673105  62.7933836   7.2275335  40.2937794  62.4906063
   5.7431161  40.1992083  62.2103405  80.4134750  31.8725824  51.6064739
  79.4891834  31.8119335  51.8478107  80.8139610  32.3744035  52.3164177
  29.8702931  10.2034307  15.1550627  30.3516889  10.5336499  15.9136438
  28.9693570  10.1108766  15.4648638  55.1453495  21.8740749  70.4954767
  55.0462246  22.0354819  71.4337492  55.4116106  22.7193928  70.1338482
  58.3167505   2.6229158   0.8415244  57.6298285   1.9824210   1.0262875
  58.2456446   3.2617253   1.5508191  43.1885481   7.8799367  30.8782554
  43.5160828   7.9934621  31.7704797  43.8900375   7.4141729  30.4230499
  65.6797743   4.2939919   2.6990724  66.4278984   3.7674916   2.4173978
  65.8915567   4.5501274   3.5967219  58.1412458   5.5347103  64.1841555
  58.8918257   6.1078143  64.0279150  57.6296759   5.5845261  63.3766603
  20.6585121  58.7122631   3.2882515  20.0967550  59.4693232   3.1223688
  21.2413692  58.9962244   3.9924347  44.4473171  28.8829756  58.1606007
  43.7047482  28.5957122  58.6919212  45.2175856  28.6406207  58.6745882
   4.8333380  10.6450236  64.3089724   5.2255613  11.4998829  64.4867611
   4.6089548  10.6732237  63.3788729  14.4767034  61.1719322  54.6775341
  15.1310861  61.6376257  55.1982498  14.2507160  61.7821360  53.9755249
  35.3841662  67.4868631  48.3629322  35.7255960  67.9873657  47.6218796
  35.2954364  66.5943432  48.0286169  66.2487268  65.9254837  35.2466989
  66.8398190  65.1747704  35.1895308  65.4019070  65.5462074  35.4818034
  24.9230552  13.1035495  13.8598537  24.3572259  12.6668119  14.4965088
  25.7893515  12.7251506  14.0101004   8.4569603   1.9793119   5.2643698
   9.3131506   1.6451195   4.9970019   7.9301620   1.9547743   4.4655499
  58.0467606  34.9619484  67.8033257  58.8788509  34.4989800  67.7057457
  58.2656860  35.7437468  68.3103704  11.2299669  28.8007665   2.5788724
  10.3428936  28.4684134   2.7162510  11.7914581  28.1884217   3.0542603
  14.2128658  21.4362979  13.7703824  13.4038782  20.9682894  13.5636461
  14.9091184  20.8097148  13.5732615  20.7062554  36.4980268   9.9654049
  21.0990357  37.3503423  10.1538491  21.4196134  35.9839201   9.5871860
  73.2231855   2.1450630  24.6032166  72.8139639   2.9939109  24.4352150
  72.5214911   1.6101387  24.9743080  50.5928898  57.8083563  62.6535368
  51.2161398  57.3052883  62.1294022  51.1364174  58.2793808  63.2851553
  59.5413065  76.5308046  67.4552536  60.1010847  77.1256447  67.9542923
  58.6846447  76.5977097  67.8770208  -0.0272694  20.1324987  62.9232073
   0.3893165  19.9542034  63.7663555   0.0415871  21.0813975  62.8179359
  20.5618024  33.6955285   1.8982768  20.9108281  34.5404100   2.1821576
  19.6172309  33.7684345   2.0350322   1.3759003  34.8023683   0.4213171
   1.0225234  35.6859809   0.3184252   1.6805683  34.5628387  -0.4539175
  20.3513741   4.9217042  40.7930136  21.2352943   4.8479050  40.4331923
  19.8203409   4.3448314  40.2439642  24.6927428  14.4804680  26.2070775
  24.8643112  14.0446293  27.0418453  24.3693280  13.7841952  25.6353784
  24.7168231  14.5522237  22.1530533  24.2604637  13.8842046  21.6414690
  25.0890517  14.0738046  22.8938580  48.9100122  70.5142641  62.7782011
  49.8197222  70.7819557  62.6478195  48.9325953  69.5584583  62.7317810
  22.2909856  33.8167357  23.4052825  22.8761721  33.0822253  23.2201385
  21.4506030  33.4074020  23.6112833  37.6991129   1.6028360   6.7902565
  37.9292512   0.9961921   7.4939978  37.8982186   1.1233850   5.9860706
  74.5529747  65.1776981  66.7182827  74.5457888  65.2420044  67.6732922
  74.1962767  66.0140991  66.4192200  66.3442898  77.0990372  33.7401605
  67.2519922  76.8362617  33.8926649  66.1584473  76.8108892  32.8464818
  12.3511612  73.5765600  31.9230485  11.6098237  73.3708954  31.3535285
  13.1198967  73.4737968  31.3620520  84.1659546  55.7984161   7.7030689
  84.3762016  55.8519983   6.7707849  83.5251808  56.4952898   7.8445256
  20.4080725  46.9499302  12.8750360  20.0772095  47.7457571  12.4586010
  19.6340799  46.3975859  12.9849577  82.7205658  33.2065558  13.9660168
  83.0431461  34.0785742  14.1935170  83.5108089  32.6726317  13.8843083
  54.6486807  56.7908287  48.0385494  53.8488102  56.2651253  48.0468941
  55.3552961  56.1504793  47.9555559  52.3370743  13.2948983  56.7834234
  52.4428272  12.4085689  56.4377832  51.9044971  13.1724048  57.6284742
  71.0839176  78.2588959  54.4917727  70.8829260  79.1326952  54.8269129
  71.8521214  77.9817343  54.9910450  41.6362286  35.3139925   4.0130806
  42.4267149  35.8407569   3.8952473  41.2611675  35.2452111   3.1351128
  61.0802269  40.7170534  18.1988001  61.8757153  40.3863668  18.6160195
  60.3702641  40.2295351  18.6165416  60.7611990  72.4703598  67.0650053
  60.4698992  71.8911743  66.3607836  60.9239769  73.3090878  66.6334152
  48.6734724  17.1331263   9.1105628  48.4350204  16.8220687   8.2372844
  49.6297836  17.0947683   9.1256273  11.7579997  37.2400379  16.4937317
  11.1083543  37.3195028  15.7952499  11.2680626  37.4139905  17.2974312
  46.9205999  49.2683697  55.7772923  46.2086153  48.7505531  56.1530161
  47.0351791  48.9138174  54.8955917  44.6528673  73.0553913  68.5860586
  45.5456257  72.8577375  68.8691521  44.1193390  72.3622274  68.9747810
  40.9263611  62.6554585  70.2960443  40.1749802  62.3747683  70.8184147
  40.9008074  63.6115551  70.3341532  52.0647812  67.5179863  66.4783573
  52.5780439  66.7699766  66.1729479  51.7246008  67.2433805  67.3298883
  39.0411019  30.4592276   1.7204890  39.0871763  30.7687974   2.6250747
  39.4868755  29.6122742   1.7341885  10.1072443  46.7962742  38.3212256
  10.9957814  46.6116238  38.6255884  10.1283813  47.7185202  38.0657792
  82.0005989  30.0404549  57.5264406  81.3724136  29.3811703  57.8213310
  82.5954819  30.1529956  58.2678413  40.6389523  23.8034892  14.3545222
  40.1472330  23.3725023  13.6554563  41.5170479  23.4268260  14.2970407
   7.1813941  17.0027292   8.5004103   7.1135932  16.1953712   7.9906976
   6.9084823  16.7523658   9.3830591  42.6611137  38.7239647  16.6036427
  43.2042360  37.9416752  16.5073466  43.2681465  39.4019437  16.9004345
  23.6605859  14.7799659   6.4273679  24.2485833  14.7657049   7.1825421
  24.2070413  15.0873876   5.7041043   1.6454427  11.3321626  56.9348001
   1.0467628  11.9079888  56.4591551   1.1125351  10.9606707  57.6378202
  55.5275106  70.9648657  70.7838392  56.3681078  71.4222383  70.8047628
  54.8823786  71.6561127  70.6347799  32.0310092  51.9985485   1.5894856
  31.8714666  52.7641487   2.1414182  31.2000751  51.8517256   1.1375763
  31.3801670  22.1784425  25.6025863  31.0057497  22.3148251  26.4728975
  31.0893512  22.9362750  25.0952935  32.8709149   4.0173548  33.5894632
  33.8125968   4.0744641  33.4275866  32.7886987   4.0591720  34.5422077
  38.7678123  79.5705795  61.4379025  39.5860791  80.0599670  61.5225840
  39.0402460  78.6539507  61.3953924  21.3853431  41.1150122   7.9042995
  21.7537880  41.9780493   8.0931103  20.9550071  41.2187576   7.0556068
  44.2462683  60.5683994  61.3968706  44.9058914  60.5229950  62.0890141
  43.8414812  59.7010040  61.3945055  50.4006338  32.6439333  70.4222775
  50.8636189  31.9986653  69.8879480  51.0931492  33.1007171  70.8997679
  27.6477909  79.4550323  63.6296892  28.4777403  79.5034504  64.1041040
  27.4851108  80.3525448  63.3394384  53.6756992  65.1029730  66.5915346
  54.6148729  65.2561760  66.6950417  53.5734081  64.8542070  65.6729031
   6.4678776  64.7728062  58.3963442   6.5943617  65.6952763  58.1743574
   7.2782212  64.3461561  58.1178713  68.8851404  70.0292873   3.3606923
  68.5947418  69.1345930   3.1834188  68.4736872  70.5549955   2.6747125
  82.7477646  75.8396959  21.6591024  82.8683853  76.0462046  22.5859427
  81.9644833  75.2899933  21.6361594  59.8202705  49.7879171  48.9936447
  60.6794071  50.1628399  48.7998724  59.2981958  49.9687862  48.2120085
   5.8284140  52.4960852   8.8047373   6.7855930  52.4899864   8.8028884
   5.5843383  51.6600418   9.2018431  75.6033802  21.4762211  58.2307434
  74.9878740  22.2074938  58.2819843  76.3416910  21.8194127  57.7274132
   6.3085669  38.1047630  14.1925657   5.9200042  37.2347522  14.1012907
   6.8180227  38.2248235  13.3911467  56.3041639  30.2668667   1.5838328
  56.4631796  29.3246913   1.6408560  57.0116854  30.5960584   1.0295057
  36.6190529  80.3698444  39.9985266  36.7972136  80.0973606  40.8986616
  36.8742132  81.2920380  39.9724793  86.7136860  41.9598246  15.8672512
  87.4260330  41.7454052  16.4695847  86.8409061  41.3682508  15.1255727
  17.8283429  37.3903108   1.0774250  18.7376928  37.4584985   1.3683988
  17.3653138  38.0610323   1.5793884  71.8180275  77.9380274  57.4362803
  72.5806427  78.5163403  57.4505901  71.0677385  78.5295582  57.4944925
  61.9816351  44.3023443  62.8637552  61.8887949  44.5498276  63.7837362
  62.8017426  43.8099003  62.8297853  59.5522642  16.7102146   3.9856324
  58.9216566  17.0933974   3.3759302  60.3556681  16.6189492   3.4733415
  11.7686450  74.4738722  12.1259248  12.6316929  74.2950583  11.7525518
  11.5130365  75.3146458  11.7464542  41.2488747  60.9236908  12.7217960
  40.4344082  61.1968994  13.1439686  41.9096041  60.9887934  13.4113121
  24.7263861  29.3231606   8.9562815  25.3713608  28.6162305   8.9784479
  25.2497387  30.1238608   8.9214700  30.8125186  61.1888838  64.2067719
  30.5990934  60.2763653  64.0118599  30.1233673  61.6935730  63.7748098
  70.9473276  20.3359914  66.2252903  71.5105152  20.1653981  66.9802427
  70.0648785  20.1293850  66.5332270  54.7982645  16.6686702  53.3869934
  55.2203178  16.8172586  52.5408077  55.0747347  17.4098194  53.9259672
  87.4821377  12.1519148  45.7438135  87.7062798  12.9979491  45.3562355
  86.5792084  11.9938779  45.4681873  15.4291260  53.1383371  62.6752472
  14.8068476  53.6075735  63.2309628  14.8861420  52.5469732  62.1540070
  37.6579142  58.1290674   1.1638415  38.3961725  57.9968023   1.7585775
  37.2005224  57.2882318   1.1591314  69.9436855  48.7210417  66.4626598
  70.8380270  48.4187889  66.6208696  69.6619081  48.2388878  65.6852531
  68.5201168   9.1870993  60.3989553  68.4443283  10.0748622  60.0491524
  69.3252420   9.2014921  60.9164476  64.5823383  40.6730843  60.9487772
  64.5694208  40.9356928  61.8691587  64.5565271  39.7165227  60.9722519
  45.5080462  77.8188705  55.7126760  45.3629494  77.6977825  54.7743177
  45.7692909  78.7357426  55.7982826  57.3199177  26.6769695  44.4223452
  58.2412910  26.4195633  44.4547129  56.9416428  26.3143206  45.2233601
  76.5681028  72.7441263  63.5263395  76.9267845  73.5990334  63.2881880
  75.6426954  72.9134130  63.7029505   7.7797568   5.0646913  55.8478308
   7.5798190   5.4928386  56.6802645   7.0604402   5.3180271  55.2693510
  75.1883698   2.5897932  30.7946181  74.7463417   2.1302114  30.0807381
  76.0738277   2.7465707  30.4665685  70.4917145  40.8817101  38.5835290
  70.7295370  41.3520002  39.3825889  71.2880325  40.4116297  38.3362746
  83.2434654  31.3068867  35.4278708  83.8629913  30.5828595  35.3373027
  82.3865414  30.9097481  35.2723384  78.2245636   1.9910367  42.8406334
  77.3358059   2.3148982  42.9871082  78.1468964   1.0393953  42.9082918
  87.1757412  47.3058176  65.3470087  86.5694427  46.5997934  65.5710030
  88.0440140  46.9122553  65.4332113  55.9812927  63.5706949  48.2019997
  55.9782696  62.7932453  47.6436138  55.2263689  63.4542084  48.7788486
  60.7107925  31.9675016  44.0869761  61.1492682  32.1471834  44.9186516
  60.6341410  31.0138226  44.0577650  68.2695723  70.6832695  66.9746780
  68.5815048  70.5806494  67.8737879  69.0664673  70.6947327  66.4445305
  32.1184850  40.8865881   3.9902380  32.9546785  40.7098675   4.4212624
  32.2637153  40.6419563   3.0762926  42.2216415  42.2790098  62.9128456
  42.5909615  41.7215729  63.5977507  42.9362774  42.8688478  62.6728201
  50.9529829  69.2590570  50.2576351  51.2249041  68.7843132  51.0430717
  51.7119312  69.2144775  49.6760511  68.4302616   4.1281030  52.3415089
  69.2040491   3.6735377  52.0085621  67.8855801   3.4337431  52.7122068
  66.2510967   6.1729854  31.1138558  65.4614544   6.6429245  30.8457947
  66.1772346   5.3185439  30.6887603  30.4935431  67.1454906   7.1581507
  30.2192426  68.0521345   7.2959405  30.9306622  66.9009066   7.9738331
  38.3057761  67.8484154  34.1136980  39.1423130  67.5547028  34.4744897
  37.7613020  68.0216026  34.8816729  15.7112718  14.4925785  71.3856411
  15.0467408  14.4828224  72.0745087  15.7710648  15.4112470  71.1235237
   1.1883476  13.1404841  61.9299698   1.3751432  13.5587811  62.7704287
   1.7388874  12.3574722  61.9245386  73.0626345  15.7328665  38.3339286
  73.3781910  14.8328173  38.4149742  73.5214901  16.0795593  37.5687575
  13.0609381   9.0148395  56.9021559  13.9837158   8.7686056  56.9660473
  12.9272437   9.6316195  57.6218367  50.9389639  60.2222538   3.3041868
  51.6282225  59.8519945   3.8556072  51.0744476  61.1684847   3.3544338
   8.0449688   3.9365306  41.9356251   8.6200243   4.6901405  41.8029022
   8.3322293   3.2981426  41.2828064  54.4786119  58.3245945  51.7043114
  53.8366365  57.6145983  51.7023611  55.1470280  58.0414009  52.3282099
   3.1301197  50.7528877  55.4706955   3.9927244  50.4201460  55.7185459
   2.5245893  50.3208017  56.0730839  43.8326120  48.3008289  11.8263042
  43.1910658  48.8985682  11.4424264  44.6758032  48.6089706  11.4941764
  29.5756412  47.7237606   2.4145418  29.8579645  47.5664568   3.3155310
  28.9270639  47.0407343   2.2440708  35.9230328  38.5515189  61.1070251
  35.8782530  37.8899407  60.4167032  36.8372011  38.8352919  61.1078787
  57.6316833  41.4414787  62.2045231  57.3934221  42.3071194  62.5363827
  56.9196844  40.8702326  62.4925613  56.7652988  31.8792892  68.0459118
  56.7951488  32.8239369  68.1975079  55.8390427  31.6525578  68.1288290
  62.2619677  63.8674307  53.2019234  62.1583557  64.1184902  54.1197824
  61.4679813  64.1887426  52.7746296  22.6261234  29.2040563  49.6133232
  22.0689726  29.6942568  50.2179050  22.3631573  29.5086455  48.7448168
  11.1603689  18.6258018  22.4299264  11.6099691  18.7043881  21.5885472
  10.6065369  19.4049501  22.4792337  83.0509281  65.8434010  65.7753658
  82.7333069  66.1942291  66.6073942  83.7300587  66.4589643  65.4995251
   3.4539402  26.9955826   8.8017446   4.2091212  27.1711993   9.3630749
   2.6975718  27.0942760   9.3800169  67.8332710  66.1438608  46.0416985
  67.5953770  65.9150171  46.9401789  68.3131123  65.3809547  45.7192707
  68.4721088  67.6322079  68.7950277  68.2693338  66.7903328  69.2028952
  68.8527393  67.4022055  67.9474115  34.4010162  33.5676694  60.7441378
  34.1788626  32.8160882  61.2936926  34.9376130  33.2004619  60.0416756
  84.1961288   8.4805125  70.3403568  83.4549332   8.1385285  70.8402634
  84.2992592   9.3802875  70.6501961  20.3333735  69.5562601  69.0686893
  20.4159045  70.4018211  68.6277294  19.7785425  69.0361500  68.4874201
  57.6892233  78.3132648  51.7963600  57.7589464  78.7895203  52.6237345
  58.4418535  78.6102343  51.2848949  38.0187941   0.3079529  52.2821712
  38.1675339   0.5091007  51.3582420  38.7434959   0.7341565  52.7397633
  53.0561733  47.3792076  53.1987238  52.4991751  46.6014576  53.1656790
  53.7143850  47.1743822  53.8628340   3.1963155   1.0332308  50.9412241
   4.1457450   1.1327369  51.0113239   2.9493600   0.5361715  51.7210817
  42.1291065  30.0715256  61.2925911  41.6241741  29.4514394  60.7665014
  43.0170107  29.7139907  61.2975836  52.8208208  50.5989218  46.2953472
  52.3523760  50.5605936  45.4614878  52.8341389  51.5292788  46.5200424
  12.1243310  68.1538343  61.1342478  12.4279475  68.1726456  62.0418215
  12.4474919  67.3208618  60.7907963   1.9116832  59.8355913  36.6585493
   1.1635516  59.9147749  36.0667205   1.5213943  59.6772861  37.5181103
  42.1261024   1.5615705  53.0370474  42.9549599   1.8690802  53.4040117
  42.0115423   2.0773225  52.2388601  86.5677261  11.4015710  69.2210913
  85.9345531  11.1268127  69.8842859  86.6043949  12.3543692  69.3051434
  82.8363705  59.6289396  52.6120663  83.4230709  60.1892710  52.1040916
  83.2176304  59.6164703  53.4899759  64.0234184  57.9828739  26.4299297
  63.2224751  57.6006269  26.0713172  64.2298698  57.4377537  27.1891785
  42.8065968  81.1811447  27.6543641  43.0009985  81.2954235  28.5846233
  43.5447121  80.6743050  27.3159361  31.3536525  37.5472283  59.3797636
  31.4657927  36.6176772  59.1807890  31.4377737  37.6002264  60.3317881
  73.2523155  27.6231217   4.9918050  74.0691328  27.7830219   4.5190760
  73.1528616  28.3850145   5.5626476  24.6010566   0.4998015  37.6945114
  24.6930218   0.2573375  36.7731071  24.2401195   1.3861077  37.6740742
  44.6332693  67.8049946  62.4908543  44.9678659  67.3163939  63.2428837
  45.2440262  68.5348749  62.3884630  60.5727243   6.1952353   3.1269652
  60.0123167   6.9604796   2.9982021  61.0399485   6.0981834   2.2971988
  82.7341557   1.1630783  56.5645361  82.5312233   1.9609022  57.0529270
  83.6905956   1.1277144  56.5503073  66.3035679  68.0210066  71.0508394
  66.4397478  68.9409971  71.2773466  67.0853472  67.5756550  71.3775110
  24.4836473  11.1721754  40.6252003  24.9797440  11.2099838  39.8074651
  23.5747623  11.0549712  40.3487444  87.1235752  28.6594748  65.5460596
  86.6127682  29.0409732  66.2600327  88.0235577  28.6535525  65.8720064
  85.1743698  66.8501520  56.7115068  84.3151760  66.6864634  57.1003866
  85.1573086  66.3714504  55.8827829  15.7878327   4.4415992  57.8231335
  16.5121734   4.1413110  57.2741461  15.9761178   5.3663206  57.9833555
  72.8493357  73.1250906  64.9167967  72.2762108  73.8197041  65.2412558
  73.2521629  73.4944677  64.1309690  85.6450176  73.6424780  30.1234818
  86.0894108  74.4533348  29.8759913  85.8108711  73.0460167  29.3934393
  80.1641178  37.9090405  10.4028404  80.4548836  37.0237541  10.1838601
  80.8564472  38.4784389  10.0671434  28.9334941  78.8829041  60.0368834
  29.3797469  79.2751360  59.2863894  28.7377667  79.6222925  60.6124115
   8.7289715   6.1680025   5.5546808   7.7800548   6.0465050   5.5867249
   8.9912242   6.2485862   6.4717209  24.4626737  16.3347960  35.6864715
  24.9822140  16.1050749  34.9160576  23.5704994  16.0713625  35.4609489
  11.0485518   1.4681026  41.9904900  10.4964805   1.2165123  42.7308655
  10.7389498   0.9251963  41.2654877  79.8583412  22.9109907  35.0506091
  79.5783043  23.7933993  35.2938461  79.2823648  22.3310661  35.5487752
  23.9284921  11.4279854  67.9230976  24.8615289  11.6247344  67.8396606
  23.4894395  12.2459745  67.6899481  87.3719120  65.1281118  24.4292521
  87.6228237  64.8004389  23.5655951  87.1796894  66.0549927  24.2872024
  27.9537630  17.1520126  30.5910802  27.7793837  18.0895317  30.5081177
  28.4897399  17.0770323  31.3805985   2.4930300  38.1570077  55.6926012
   1.8061063  38.3294082  56.3365316   2.1984199  37.3708916  55.2327585
  27.8406525  34.8551917  41.7823458  27.2156835  35.5688858  41.6547346
  28.0785561  34.5837712  40.8958006  11.1104238  80.9328938  64.3523932
  11.5388572  81.3104534  65.1205921  11.3754547  80.0131321  64.3581915
  26.0124874  39.2690897  22.8792715  25.7426214  40.1739788  22.7224827
  25.2204990  38.8343191  23.1954408  47.4216700  77.3605490  53.1556940
  46.9477320  77.3726559  52.3241520  48.0194807  78.1061506  53.1015348
  60.7736158  80.5832672  39.4969034  61.0390854  80.5509472  38.5778213
  60.6669426  81.5161800  39.6827316  23.5336900  34.4506574  35.1926613
  24.4035387  34.1167974  35.4120469  23.1640601  34.7256541  36.0316992
  42.6288080  65.8168507  18.5828972  41.8557787  65.2547169  18.5313177
  42.2805071  66.7074680  18.5414362  22.5398111  24.6157146  39.4330859
  23.2169104  24.6766877  38.7592530  23.0225158  24.6288610  40.2595568
  17.2589409   4.3157417  41.9752073  17.3213208   3.3892992  41.7427301
  16.3673389   4.4197750  42.3075533  42.5823498   6.7657429  34.3974209
  43.0959225   7.3813009  33.8743901  42.5126791   5.9848315  33.8482785
  23.1452465  32.2066474   0.9006775  23.6644959  32.5162148   1.6428217
  22.4100041  32.8175640   0.8513524  86.1001205  74.6206188  51.7462492
  85.7394505  75.4983664  51.8715858  86.8337822  74.7468090  51.1445379
  21.9069219  32.6126194  56.1650133  21.6595435  31.7838883  56.5751839
  22.0806527  33.2010436  56.8997288  36.5111184  10.0219393  12.3688054
  36.4664960  10.8180654  11.8392551  36.4669728  10.3329289  13.2730007
  53.5977316  10.1373410  52.7696753  53.7350750   9.2806321  53.1739283
  53.9844894  10.7582557  53.3870220  62.8076315  43.9002275  22.8021884
  63.1057739  43.5408545  21.9666076  62.4166918  43.1546545  23.2577324
  62.2924757  15.0358319  49.9344778  62.4615717  14.5950699  50.7671642
  61.8185091  15.8314419  50.1765394  35.3359604  25.7882476  43.2316065
  34.3858552  25.8931899  43.1814194  35.5431008  25.1517391  42.5473690
   5.3578395  19.9804044  68.2458115   4.6879339  20.3662920  67.6814079
   5.3681540  20.5399704  69.0223503  37.3326621   8.3816563  71.9117048
  36.4990601   8.2630764  71.4564307  37.7901683   9.0512263  71.4031836
  69.2975330  32.0292830  49.0441036  69.1143751  32.6941180  48.3802700
  68.9690876  32.4081159  49.8594856   1.5171586  81.6738129  67.1264124
   1.6736725  80.7917786  66.7891216   1.0362741  81.5363121  67.9425478
   4.3663710  46.8783140   5.0391710   5.0906897  46.2886810   4.8295778
   4.0883511  46.6138887   5.9161061  82.2160530   7.1456683  51.3929272
  82.6432610   6.7915738  50.6129694  82.7624226   7.8888142  51.6487551
  20.3748870  81.6021347  22.7083111  19.8390687  82.3952484  22.6977253
  21.1513400  81.8443680  23.2129598  42.5002193  68.5630941  34.2406178
  41.8100023  69.1612673  34.5270109  43.3001709  69.0878010  34.2720890
  65.6429052   1.1208341  19.6058762  66.4938927   0.7868546  19.8896253
  65.2159500   1.4058061  20.4137945  68.6253023  23.1228352  69.7412348
  68.1856394  22.3375511  69.4152641  69.5393944  22.8591752  69.8468161
  78.8359690  79.8827076  41.1352968  78.1425238  79.7201395  41.7747784
  78.4933519  80.5863190  40.5841351  52.9489660  33.1833053  18.1817257
  53.8225603  33.2293916  17.7932179  52.7188301  34.0946817  18.3624601
  78.9604378  72.3125315  47.7217102  78.5565615  72.8255606  48.4216499
  78.3536100  72.3920488  46.9857264   1.8917792  27.0584369  51.3748074
   2.5383210  27.1055079  52.0790768   1.2079166  27.6752138  51.6358614
  12.1734190  37.9086614  39.4613194  11.8564391  38.6070108  40.0340891
  12.6618123  38.3643603  38.7757230  84.1829109   5.7907248  66.1365032
  84.4786930   6.2650359  66.9135284  84.9876022   5.4615253  65.7360840
  11.9017088  30.1209259  46.0806847  11.8367362  29.6181345  46.8926048
  12.4147987  29.5644450  45.4947662  16.7353296  62.8831291   5.2917945
  17.3506784  63.4780407   5.7203501  16.8659556  63.0367136   4.3560699
  74.7755337  65.4417896  24.7055078  74.2496252  64.8862600  25.2808642
  74.7005367  66.3176870  25.0842071  45.2127314   0.1225613   6.6617203
  44.3129539   0.4463440   6.7041856  45.7376194   0.8220970   7.0507896
  80.4667377  81.8403244  32.7173686  80.4182816  81.0132980  32.2378898
  79.7001648  81.8301678  33.2905102  16.4315379  31.8652701  58.9423609
  16.7279518  32.3507595  58.1725121  16.7186224  32.3960257  59.6854067
  12.1499825   4.1457942  30.9683776  12.2036338   4.7809660  31.6824579
  12.9149175   4.3322420  30.4240036  42.6804399  32.3198462  11.8255627
  41.7287731  32.2852588  11.9223166  42.9652786  32.9533458  12.4841797
   8.0654252  36.5933275   9.5134836   8.4057778  37.3952436   9.1168445
   7.1415311  36.5760517   9.2637783   5.1206958  41.7751551  50.3402948
   5.3785938  42.6634979  50.0941944   4.2386988  41.6739893  49.9824142
  56.7418575   1.3172138  47.3469496  57.6072359   1.2744415  46.9401026
  56.6274643   2.2410037  47.5700188   7.9554880  80.7925987  55.2749729
   7.1095169  81.1241913  54.9739552   8.5865504  81.4543915  54.9920797
  16.5751004  57.4080563  56.7422390  16.0809779  57.8164673  56.0314131
  17.0645142  58.1288433  57.1386909  20.7738423  14.6990192  56.4282560
  21.5834332  15.0165462  56.0282946  21.0563087  14.0006745  57.0188093
  37.6009130  30.3780460  10.2067935  36.7462230  30.6321859  10.5548549
  37.8981447  31.1453247   9.7177482   7.5957853  24.4632983  61.1431789
   7.9632556  25.0724292  60.5027437   7.8246307  24.8415065  61.9921875
  13.4931302  23.3273077  55.2371359  13.8173532  22.9487419  54.4199467
  13.1173837  22.5860000  55.7120180  34.3191028  16.5589881  54.1349506
  34.1496086  17.3644757  54.6235132  35.1493669  16.2364626  54.4854784
   2.8588042   7.7803648  56.7095470   3.0530134   6.8629456  56.9015265
   1.9047078   7.8387904  56.7597294  37.4262309  32.8195190  29.7249937
  36.6068602  32.3984814  29.4650126  37.3978615  32.8284788  30.6817317
  29.7104669  13.5185504  21.0940957  29.5997906  14.3161047  20.5765152
  30.5299759  13.1390035  20.7769489   0.5700565  15.1948869  47.8911018
   0.7791398  15.0801182  48.8181114  -0.3656566  15.0023746  47.8310013
  82.6411247   0.9630854  62.6010895  81.9947624   0.5214168  63.1518936
  83.4843636   0.6274597  62.9052591  65.1437426  44.6960020  23.9710093
  65.1351166  43.7480068  24.1031647  64.3699741  44.8701763  23.4351206
  85.1031971  44.8158455  32.8011918  85.2132702  45.7419109  32.5855160
  84.1607952  44.6638203  32.7304363   7.3002893  73.5781193  30.5539799
   7.4520248  73.7703991  29.6286488   6.4634603  73.9985752  30.7518840
  24.5633411  17.4688518  29.2219543  25.4133487  17.3705304  28.7929416
  24.1932750  18.2650304  28.8406610  22.5928497  38.3223772  32.0989895
  22.1829772  37.4585104  32.0545387  21.9876242  38.8480043  32.6221037
  83.7015438  73.6166000  53.1369352  84.5407867  73.6764479  52.6805115
  83.7781906  72.8300619  53.6770439  83.5509968  27.4383235  59.0837193
  84.2399406  28.1022191  59.1125727  82.7412319  27.9378676  58.9790344
  87.9760312  17.7666879  54.0775728  88.1253905  17.6735568  55.0184488
  87.0688683  18.0639315  54.0073347  10.5771220  81.7409515  32.8503180
  10.6185269  81.0293865  33.4892178   9.9580276  82.3659134  33.2276464
  83.5789108  77.3919249  56.8040657  82.7665138  77.6159668  57.2579956
  83.6238384  78.0098534  56.0744286   5.3914183  15.0213230  35.9045410
   5.8235359  14.1686952  35.8542180   4.6149129  14.9292564  35.3524590
  39.5768237  11.8632257  58.0585957  39.4969988  12.0158470  59.0001726
  38.8453531  11.2831736  57.8471184   4.4039610  28.0921674  36.1055493
   4.8403975  27.6099277  35.4032683   3.7970915  27.4592710  36.4894557
  19.9892294  23.9641738  50.0087309  19.3002725  24.6174836  49.8872471
  19.7583675  23.2576418  49.4056225  81.5937042  72.2269678   1.4072676
  80.9679890  72.9458094   1.4966102  82.4442101  72.6584959   1.3257568
  49.6248722  21.6613007  54.4896460  49.6386433  22.3770285  53.8542128
  48.8746834  21.8545628  55.0518703  52.9278469  23.4456801  49.2235756
  53.6008835  22.7759290  49.3447828  52.5884199  23.6062407  50.1040506
  74.2007637  82.8052902   3.2626081  74.2921114  81.8936825   3.5398683
  73.4022045  83.1082058   3.6947861  77.5600910  77.7810144  51.6586161
  77.3631573  76.8579149  51.8177986  77.8471518  78.1147099  52.5086021
  23.4465671  58.1238604   8.8794923  23.1236720  57.9979897   9.7717518
  24.2809820  57.6553059   8.8584131   1.8052399  69.1225004  40.7412052
   2.2916572  69.2909241  39.9341989   1.5661444  68.1971693  40.6880617
  47.9657507  56.7193222   1.9727397  47.3202324  56.2427139   2.4946371
  48.7340403  56.1484861   1.9624323   3.0915570  10.8578396  62.2517204
   2.6630679  10.8375692  63.1074190   2.7884710  10.0628138  61.8131971
  66.3993692  74.2607117   4.1350642  67.2980499  74.5766544   4.0413108
  65.9206486  74.6855593   3.4233338  57.5874329  14.0869558   3.5935676
  57.5114441  13.2690406   4.0849674  58.3627892  14.5140374   3.9577779
  20.2843761  14.6716344  50.7089663  20.7575917  13.8459373  50.6063843
  20.5532837  15.1970291  49.9553871  61.7589045  62.3767090  16.2491786
  61.2998819  61.7409182  16.7980874  62.5660324  61.9316339  15.9909451
  78.3597994  59.0836811  67.7255201  79.1249943  58.5299397  67.8806925
  77.7538872  58.8582230  68.4314013  37.0432973  14.9259198  41.3130713
  36.3446808  14.6216464  41.8923712  37.4738169  15.6257594  41.8041039
  16.0629320  22.0423889  43.6928225  15.4536605  22.5737739  43.1803322
  16.1576164  22.5163507  44.5190334  65.8906126  39.1345763  20.4123807
  65.8613968  38.6792302  19.5709300  65.3256130  38.6159372  20.9851122
  64.4271374  74.3005037  17.8840780  65.1981640  74.7146320  17.4964595
  64.3166971  73.4889030  17.3887563  48.4453535  74.3301725  62.7534819
  48.3177185  75.2777338  62.7079058  47.7937794  73.9714813  62.1509647
  44.4793463  40.2259016  48.8047504  44.6434784  39.6723795  49.5682335
  44.8996162  39.7640514  48.0792856  19.7215092   4.2175528  69.0940619
  20.3391576   4.4923097  68.4163809  19.7618449   4.9126229  69.7509336
  29.6472311  37.1571851  15.2248836  29.8475218  36.4931369  15.8845472
  30.3154755  37.8305674  15.3523016  84.7626972  54.4325161  51.7695665
  84.1114044  54.9395609  51.2848425  85.5841827  54.5909357  51.3044882
  57.7852917  79.8710394  43.8000727  56.9957352  79.5395756  44.2278051
  57.6033545  80.7981968  43.6467171  73.0376291  39.6378040  69.3497086
  72.2072649  39.8954701  69.7501230  73.0410719  38.6819005  69.3994045
  39.8286223  27.6438689  49.8392725  39.1288066  27.0339298  49.6059036
  40.2597666  27.2374344  50.5910397  17.2181034  47.5339127  36.1175108
  17.0216596  48.4467888  36.3279986  16.3834667  47.1717358  35.8201241
   5.4532069  23.4556866  59.3780041   6.1096019  23.6965275  60.0317430
   5.2482998  24.2767000  58.9305878  43.6609650  35.0700092  68.9653349
  42.8647232  34.9670744  69.4865179  43.3613682  35.0189924  68.0576611
  68.8645935   6.3491660   7.4873406  68.0810404   6.1452484   7.9979253
  68.5618305   6.3634306   6.5793961  24.4415951  15.8216870  58.4433365
  24.2916918  16.3535213  59.2249441  24.4125652  16.4468479  57.7190685
  61.7690277  27.1973085   1.5240100  61.6888571  26.4233160   2.0814517
  61.1630058  27.0355392   0.8009643  27.3448396  72.2381926   6.2589383
  27.6853466  72.7080011   7.0202315  28.1137156  71.8188095   5.8727032
  68.9868355  61.3192081  54.4042397  69.1504765  60.5475378  54.9464369
  69.4035292  62.0383120  54.8790884  21.3699412  69.9507856  63.4275055
  21.3998294  70.0647020  64.3774319  20.9028029  70.7228613  63.1082726
  64.7761393  65.4898977  55.0850725  64.2268133  66.0298920  55.6532955
  65.2898359  64.9529886  55.6884623  18.6498928  32.0327616  29.0272713
  18.6171389  31.0817552  29.1309214  18.5440826  32.1749568  28.0866241
  85.2194691  22.4042916  53.2076597  85.1687527  22.1321201  54.1239500
  84.3929005  22.8594494  53.0469036  12.5965941  71.9113636   1.0887445
  12.3377240  72.6566982   1.6306786  12.7735937  72.2910404   0.2280758
  87.0421314  75.1753569  26.2825656  86.8130875  74.2998171  26.5943432
  87.3823357  75.0336313  25.3991604  12.1326256  58.7432861  32.9999471
  13.0632985  58.6224365  32.8116012  11.7487586  57.8750229  32.8774953
  83.0899334  23.2705164  50.0468111  83.5894203  23.7620640  49.3947983
  82.2476673  23.7228179  50.0941706   7.4624169  32.6319170  30.8240390
   7.5185460  31.7585874  30.4362559   7.9182172  32.5516820  31.6619158
  64.9489069  81.3247395  63.3384991  65.3120375  81.8540859  62.6284599
  64.8678350  81.9328213  64.0732670  46.6662550  20.2890015  53.7055588
  46.9684315  19.7353971  52.9855299  46.7798328  21.1833811  53.3839750
  73.1898642  29.4464540  55.5232620  72.6139545  30.0691104  55.0795746
  72.9751873  28.6001468  55.1309490  85.4374599  62.0301056  60.2696085
  85.3119564  61.0817194  60.2372646  86.2491703  62.1475935  60.7631302
  72.4755955  79.2347431  61.7376995  72.9689169  79.5469379  62.4962473
  71.5770006  79.5205450  61.9022322  55.3512239  59.7990417  54.1326141
  56.0316086  59.1552019  53.9356899  55.6864309  60.6197596  53.7716579
  25.2245331  17.2704434  56.4008379  25.4302621  18.1731033  56.6439724
  26.0770726  16.8407357  56.3318491  13.6069560  19.2574012  55.5479383
  12.8356040  18.6909664  55.5279827  13.7319279  19.4592929  56.4752197
  19.4038808   6.4635956  49.6120882  20.1000047   5.9913850  49.1552925
  18.6122477   5.9566629  49.4316244  12.3612082  73.4694719  41.8651628
  12.9842746  74.0160084  41.3862896  12.5040078  73.6930370  42.7848673
  56.3255310  41.6688299  43.6163664  55.8256054  42.3809576  43.2173920
  56.9596195  41.4160872  42.9453373  18.5658741  78.4479809  53.0769587
  18.6974490  77.9701090  53.8958359  19.0377474  77.9343319  52.4214220
  37.9954076  60.5650043   7.7594697  38.3441377  61.3321877   7.3055458
  38.3518219  60.6284428   8.6455715  64.1421795  71.5175724  64.7882462
  65.0949001  71.5774632  64.8587370  63.9211512  72.0796776  64.0456724
  14.1471910  21.8163776  61.9005060  15.0342882  22.1197605  61.7075062
  13.5836446  22.3554063  61.3454437   8.6640537  27.7036095  58.7489557
   8.4381229  27.6721811  59.6785784   9.3349034  28.3836985  58.6883688
  84.6594238   2.8346941   3.8133398  84.7716236   2.8686324   2.8633443
  85.5423450   2.9541251   4.1632131  86.0450172  65.9150887  50.7983732
  85.9473610  66.8507004  50.6213760  86.8991947  65.8396769  51.2237215
  66.8380594  60.9114695  65.5334616  66.9944143  60.9639740  64.5905781
  66.9718313  61.8053627  65.8485699   8.8644654  62.1736240  62.8107262
   8.3302754  62.5898743  62.1342564   9.2442781  62.9039955  63.2991219
  18.1239903   1.3776614  66.7716694  17.8512061   2.2669026  66.5456820
  18.2422805   1.3974735  67.7213240   1.7848527   2.6078108   3.1519255
   2.0183638   2.9822874   2.3025304   0.8277215   2.5964850   3.1537136
  14.9347532  16.9129193  58.4592152  14.1234374  17.3539162  58.7112474
  15.6295395  17.4839222  58.7870264  75.9353590  78.1342125  61.6001987
  75.8037567  77.8940439  62.5173855  75.6052876  79.0305185  61.5375805
  63.4732962  17.3335063  31.3421416  63.0118465  16.7848837  30.7078600
  64.2324209  16.8118262  31.6025472  49.3344498  58.9044905   0.9930852
  49.0174866  59.4748020   1.6934520  49.0604973  58.0261278   1.2570135
  12.4350023  75.1655054  60.8547831  12.4973667  75.3922939  61.7826319
  11.8164814  75.8007240  60.4940033  75.7406759  12.8681314  33.7621307
  75.1653576  12.6119804  33.0412817  75.2834368  12.5735593  34.5497799
   6.6955048  81.3251400   6.5923285   7.1921504  81.4447784   5.7828450
   6.2684727  80.4748726   6.4878863  64.9200392  14.0885389  56.8335342
  64.2033434  14.0130746  56.2035465  64.4893885  14.0804625  57.6883459
  58.7665129  44.4278812   6.5148169  59.1985607  43.7759161   5.9629959
  58.5696268  43.9614773   7.3271781   8.0554813  68.2356310  70.4937410
   8.4000313  67.6740885  69.7993422   8.2872266  67.7831602  71.3047886
  43.6911249   8.1229991  57.8455687  42.7484417   8.1123030  57.6798582
  43.8799238   9.0271753  58.0966711  15.5569780  50.4851723  46.3648224
  14.9726665  50.4832602  47.1229839  14.9692035  50.4747820  45.6094122
  22.3655391  38.7900662  64.2658615  23.3148599  38.8874125  64.3403149
  22.0097828  39.4445801  64.8669291   3.6002746  16.8971181  47.9185867
   3.6776328  16.6210198  48.8318300   3.1413007  16.1756992  47.4883223
  36.7964387  36.6998672  66.9681692  36.1702943  36.2367868  66.4116383
  37.5770569  36.7952514  66.4224863  10.2061379  27.3642921  52.2047424
  10.8186042  26.9404793  52.8059864  10.4567337  27.0401335  51.3396645
  31.4357400  73.1064463   2.0491268  31.0367966  73.9541054   1.8527992
  32.2863579  73.3245468   2.4300610  53.5044670  48.4467697  11.0374486
  53.5602856  47.5123596  10.8374560  54.3843508  48.7816763  10.8646071
  16.7404795  35.7718945  70.7042503  16.2457955  35.8574271  71.5192413
  17.2689939  36.5687370  70.6601191  21.5031886  19.3564367  57.7049971
  21.0780525  20.1859069  57.4871254  21.1213064  18.7243533  57.0960045
  66.1598873   6.6052544   7.2229296  66.4121819   7.3911685   6.7382449
  65.2068233   6.6617763   7.2914886  25.0617075  54.3816185   9.8478180
  24.7738051  55.1826143  10.2857077  24.6512508  54.4201326   8.9839464
  36.8307590  14.1165936  67.4476099  36.1967182  13.4006429  67.4881172
  36.9189572  14.3058527  66.5134621  39.3335772  29.8344612  51.7786837
  40.0545406  29.4471121  52.2750711  39.2429066  29.2719245  51.0095501
   3.1164253  25.5971336  36.9782591   3.4110165  24.7095919  36.7740130
   2.1748045  25.5823350  36.8069029  43.7402868   2.3880038  28.6929750
  42.8474236   2.0482904  28.7531447  44.1813326   1.7957953  28.0838776
  62.1734858  69.8101044  65.8922863  62.2628355  69.9612045  66.8332529
  62.8602886  70.3471565  65.4971886   2.3215643  16.4418340   2.9317164
   2.3041405  15.4975724   3.0875975   2.8175125  16.5413249   2.1190855
  42.1580696   8.4298664  41.4209127  41.6302013   7.7179503  41.7825222
  41.5614128   9.1776311  41.3880777  72.6112366  35.7018137  67.6084518
  71.7415047  35.8444190  67.9819012  73.2158756  35.9581208  68.3048391
  47.0729303  73.1310654  20.7665372  46.6568089  73.9422798  20.4749846
  46.5209484  72.4362946  20.4075933  13.3286023  14.6851957  49.7129583
  13.8118982  14.4384420  50.5014801  13.4517741  13.9473104  49.1158104
  33.8243508  69.4690228  49.2404985  33.4966493  69.8286200  48.4161615
  34.3239450  68.6944962  48.9821386  36.3880134  29.3154359  37.6937962
  36.9594359  28.6516905  37.3075986  35.9924340  28.8807058  38.4492826
  44.8860025  20.5872202  35.9674668  45.6116438  20.4605556  36.5787220
  44.8644066  19.7815418  35.4510856  87.4209976  31.7134476  68.1962347
  87.2235394  31.9833231  69.0931225  87.2842216  32.5031471  67.6728821
  65.3400993  43.0689621  57.5512743  65.8418274  42.9019642  58.3491564
  64.5045614  42.6250839  57.6964426  17.5902617  17.5175250  62.0392084
  17.1637273  16.6612148  62.0070410  17.3364210  17.9424691  61.2199259
  87.6050377  24.6369362  47.5169420  88.2193756  24.6517944  48.2508278
  86.7812538  24.9533629  47.8877401   2.8905714  40.8699417  40.4358625
   2.9803625  40.4567337  39.5771265   3.1097281  40.1772451  41.0590649
  81.0602093  31.8633890  67.1134281  80.8811665  32.7759576  66.8867350
  80.2190685  31.5227580  67.4178696  37.4397302  10.3759944  57.7785730
  36.8038845  10.2854037  58.4883118  37.7093005   9.4787049  57.5825262
  33.8203955  18.2892990  68.8398552  33.7989235  19.2010403  69.1305399
  33.3019304  18.2821620  68.0352545  80.8169842  17.5450897  37.2329187
  81.2804317  18.1985474  36.7090511  80.9628010  16.7199171  36.7702532
  68.7313318  75.5148888   5.1208991  69.3086290  74.7860813   5.3484893
  69.0024233  76.2256336   5.7019240  16.7712319  23.5881662  33.1225300
  17.6733696  23.5619712  32.8036356  16.8546748  23.7241578  34.0663385
  75.1162434  35.1509714  48.5344410  74.8883581  34.3927574  49.0724182
  74.6754360  34.9934196  47.6995182  44.7197390  15.3677845  61.4078712
  44.2622948  14.5996284  61.7497921  44.2034626  16.1117506  61.7180347
  -0.0444084  67.4629736  53.5331535  -0.0011562  66.7569590  54.1780615
   0.7125064  67.3159695  52.9659653   5.7289165  10.1000631  31.7900944
   4.7928363  10.0386178  31.9803858   6.1106241  10.4746449  32.5839591
  43.5234785  69.6664619  16.2392974  44.0899992  69.7789335  15.4759908
  43.8515520  70.3008366  16.8766141  65.0656843  73.7405634  55.3137159
  64.2301798  73.7600994  54.8470497  65.6609344  73.2828140  54.7201109
  80.4446983  32.9681540  32.2322226  80.9469414  33.4936166  31.6094279
  80.7419872  33.2664800  33.0917883  39.2495275  60.3387594  55.7998991
  39.7420216  59.5569897  55.5498600  39.6741986  60.6430197  56.6019630
  10.7537794  17.3590636  62.8901863  10.0908172  17.0650244  63.5148859
  11.4361167  17.7538455  63.4331369  17.3217547  55.4183006   0.7842809
  17.9857278  54.7410631   0.9135890  16.6455531  55.2174044   1.4312923
  65.4106855  79.8614883  57.1214581  65.8642244  80.6844330  56.9389915
  65.5032015  79.7414732  58.0665874  26.3200521  22.6071787  53.7256527
  27.1426606  22.3661661  54.1516352  26.3718367  23.5576868  53.6252356
  14.0391624  34.3883133  31.5013099  14.3850100  35.1335502  31.0101438
  14.4837606  33.6277103  31.1270833  13.1591821  41.4503908  62.3594046
  12.6278090  40.6571102  62.4270487  12.6755893  42.1061563  62.8617382
  42.8901577  19.4368112  54.2915297  42.3067760  19.8342383  54.9380207
  43.6867619  19.2325103  54.7813416  20.3253293  21.7767620  57.7690172
  20.2194452  22.6602197  58.1219006  19.6697330  21.7162108  57.0742083
  22.4502230   5.8327055  56.2210464  22.1261573   5.9935796  55.3348589
  22.3644686   6.6767305  56.6643286   8.6587977  50.4237938  37.6237202
   8.6800772  51.0672760  36.9154048   9.4767994  49.9358654  37.5286984
  85.9794521  19.1639471  36.6710496  86.6423893  19.0740848  35.9864569
  86.4819241  19.2509186  37.4811029  41.2801170  76.7280388  16.5531778
  41.6936255  76.4551306  15.7341754  41.0965538  77.6593733  16.4300847
  76.3259554  67.1335793  54.5189095  77.0222092  67.3352337  53.8937712
  75.5896616  67.6786566  54.2414188  39.6024895  71.1934757  66.8428612
  39.9912047  70.6082392  66.1927605  40.3460169  71.5073633  67.3575211
  37.0353723   7.9799300   8.0585033  37.1537113   8.1514966   8.9927375
  37.0257306   8.8478434   7.6549375  53.3523321   1.2003136  66.8611765
  53.7299299   0.5485363  67.4518013  52.4083328   1.0496920  66.9103146
  53.2390118  79.9995804  15.9486532  53.4877014  80.5382633  15.1975214
  53.5513401  80.4900169  16.7090142   7.7731991  23.4774327  51.6974163
   7.6550728  24.1904354  51.0697985   7.1069133  23.6344433  52.3664761
  48.1344748   6.0465217  63.4217024  49.0176535   6.2319291  63.1025553
  47.7622175   6.9079554  63.6103439   0.7689665  43.3056545  12.6938128
   1.0027178  43.8064003  11.9122458   0.2918044  42.5467587  12.3582160
   3.0609542  15.3377247  50.5111456   2.8572196  14.6822286  51.1782646
   3.9005721  15.7061827  50.7859421  19.2979300  19.4707727  38.3155012
  19.3881750  18.8258195  39.0170169  19.8464274  19.1329205  37.6075196
  13.7761235  62.5053263  42.1157837  13.6317539  63.3529568  42.5363922
  14.6796095  62.5444031  41.8020725   9.8563743  11.6901922  11.9803309
  10.5728018  12.1681786  12.3980534   9.2620260  11.4735866  12.6987064
  71.5590858  34.1243839  47.1380758  70.6257534  34.0053439  46.9621515
  71.9981432  33.6197448  46.4533854   5.8160943  41.6507816  37.7432132
   5.4746783  40.7663441  37.6111746   5.0609565  42.1567011  38.0432868
  31.9177556  43.1603861  68.9096594  32.7721310  43.1054592  69.3377399
  32.1166277  43.4227324  68.0108500   9.7556132  34.6642065  53.3909750
  10.3354347  34.0757775  53.8744926  10.3384423  35.3335643  53.0325031
  57.8362942  57.7391481  11.4281547  57.5841475  58.6275053  11.1762202
  58.1168652  57.3287392  10.6101835  22.7855563  62.1748114  29.3812323
  21.9216847  62.1197033  28.9726686  23.1875348  61.3237143  29.2072225
   3.8921124  30.8094525  36.1345458   3.9697015  29.8554039  36.1331296
   4.1471335  31.0718083  35.2500319  21.3574934  22.7781367  47.2710037
  20.5076265  22.3389339  47.3035574  21.9153666  22.2638917  47.8545761
  30.7197165  78.5111284   2.2256844  31.3810492  78.1065512   1.6642661
  29.9836946  78.6877441   1.6397583  49.5299768   8.7227154  46.7108965
  50.2322054   8.1108600  46.4901257  48.7366295   8.1871456  46.7101812
  73.3996534  21.6890407  49.0468931  73.2183552  20.7601428  48.9036846
  74.3549824  21.7487431  49.0511084  70.8901310  77.5697613  47.3644590
  70.6572723  77.9352188  48.2179499  71.5037727  76.8632603  47.5657797
   7.2838342  37.9035664   6.9444579   6.5516198  37.8095150   6.3351566
   8.0579376  37.6903176   6.4233810  38.0307603  23.7642837  66.2064981
  37.7282023  22.9882526  66.6781664  38.9172530  23.5414290  65.9224272
  52.9896021   9.1899252  38.1490350  52.0447302   9.0368676  38.1449175
  53.0784225  10.1365077  38.2600498  57.6933241  72.3605919  60.8307028
  58.5026407  72.3672152  60.3196287  57.3753309  71.4602184  60.7640600
  20.3844285  46.1134577  58.1480074  20.9566569  45.8976126  57.4116659
  20.9338856  46.6343594  58.7336636  13.1027937  79.5773745  52.2123098
  12.4837637  78.9799023  52.6319075  13.0828476  80.3642559  52.7569628
  77.4503517  79.6670771  43.6584234  78.1638861  79.0406895  43.7798166
  76.9340372  79.6006060  44.4616890   3.9783061  70.7333517  13.3020723
   3.6919966  71.4673519  12.7584767   4.6975553  70.3372335  12.8101313
  22.0954251  23.9926863  34.3669009  21.8269968  23.5382771  35.1654577
  22.4600673  23.3043051  33.8106656  55.2988768  46.5598917  69.6542454
  54.6511269  46.8265486  70.3065825  55.6438303  45.7303047  69.9844408
  27.4344444  57.7821016  18.1589234  26.7360377  57.8190708  17.5053990
  28.1586266  58.2671070  17.7632487  77.3363829  15.4244518  43.1802750
  78.2525206  15.2063024  43.0089903  76.9637585  14.6226132  43.5469294
   8.8139230  38.9866662  33.0611229   9.7684240  38.9743280  33.1318831
   8.6263043  39.7242451  32.4805975  21.6226697  31.4646006  61.9097567
  21.3522935  32.3523164  62.1444607  22.4739885  31.3537097  62.3330641
  82.5580788  34.1912270  56.3287973  82.7649307  34.0388346  57.2508717
  83.0137730  35.0046992  56.1123753  86.7565918  50.3819942  55.5974197
  87.0520878  50.9449959  54.8819160  86.5739822  49.5401716  55.1800251
  38.8966775   5.8955550  67.4031687  38.0553675   5.7315129  67.8292227
  39.4001913   6.3901407  68.0497694  70.9320402  75.0679874  14.8849452
  71.4989281  75.4206944  14.1990376  71.4982557  74.4799185  15.3847539
  13.5291445  35.8341122  61.2968922  13.7896085  34.9489737  61.0420942
  13.8834119  35.9433317  62.1793890   5.4402566  31.4138126  40.2509403
   4.9507129  31.6102004  41.0496950   5.0648206  31.9962621  39.5906162
  71.7482901   7.9064369  59.1016912  71.5457058   8.3396029  59.9308825
  72.4701643   8.4169179  58.7348938  68.8113880  11.3596857  67.9252863
  69.3685293  10.5894375  67.8132820  69.4252157  12.0900631  68.0027342
  78.3171368  31.3433075  27.7905059  78.7164831  32.1162152  28.1897140
  78.1505966  31.6010380  26.8838239   7.0139325  11.5102446  49.9972200
   6.0635757  11.5420067  50.1069689   7.3108101  10.8862698  50.6595993
  13.8824904  10.1650083  52.9919577  13.3939517   9.5250595  53.5096693
  13.2154441  10.7699919  52.6674938  78.1191349  65.3900671  37.8239036
  77.4536991  64.8356533  38.2313991  78.5034132  64.8403835  37.1409583
  80.1314545  21.5027165  32.4920583  79.2234564  21.6708493  32.2400594
  80.2969360  22.1116281  33.2118320  21.9012141  41.4186716  61.5864897
  22.1331453  42.2108603  61.1018467  22.2842240  40.7050371  61.0763407
  26.6045713  17.5466990  40.2766562  26.7353511  17.0536113  41.0865927
  27.4751019  17.8764522  40.0537872  65.3336811  55.5755329  16.1452925
  64.4760275  55.2671432  16.4377892  65.2472544  56.5282583  16.1125517
  82.3164845  74.6189547  57.4071264  81.7322063  74.6776628  56.6512108
  82.9020119  75.3706980  57.3162127   7.9049700   1.5249754   2.6674354
   8.3960402   0.8415774   2.2113116   7.8499073   2.2422934   2.0360443
  12.8001773  31.8649435  66.9607735  12.4137759  30.9990525  67.0917606
  12.3487842  32.4264812  67.5909710   6.7584878  13.4964895  59.3873930
   5.8436525  13.3639169  59.6358538   7.2461963  13.3912826  60.2042818
  22.7940583  16.1358976  27.2461581  23.5990715  15.6541145  27.0562363
  22.9098558  16.4520180  28.1421995   3.5029814  31.3382006   7.6374006
   2.7492762  31.8874931   7.4219072   4.1093361  31.4666677   6.9079745
  62.2810316  32.8768921  48.9176702  62.7274561  33.6881995  49.1599894
  62.0434713  32.9995465  47.9985666  61.5220785  73.0943775  14.1122901
  61.5089035  72.7689457  15.0123751  61.3408613  72.3225880  13.5758829
  38.4071231  20.5567169  49.7983217  38.0831218  20.9760618  49.0012026
  37.9841018  21.0366249  50.5103445  40.6179190  80.8457661  30.5514264
  40.0378895  81.5985298  30.4367614  40.0271511  80.1115894  30.7193828
  36.6181850  76.9041920  62.5977182  36.4406133  76.1017132  63.0883551
  37.5732160  76.9640875  62.5740528  39.0014052   5.2639598  24.1680622
  39.3238211   5.9328103  24.7721481  38.9595270   4.4657472  24.6946883
  67.8714418  54.6655655  37.4300003  67.8238869  55.4000473  38.0419683
  68.4026337  54.9926996  36.7040181   9.3678916  20.6446815  31.1861300
   8.5922861  21.1959147  31.0821605   9.1720968  19.8574543  30.6780243
   7.5645179  28.7705636  53.0253124   8.3765137  28.8869786  52.5320148
   6.9122142  29.2701316  52.5342274  23.2008696  47.9827023  71.4866018
  24.0236735  48.3589602  71.1741066  22.5248384  48.4261608  70.9741974
  74.7494507  26.2630868  55.3380299  74.3997717  26.5152836  54.4834232
  74.3960524  25.3870010  55.4923630  59.4668531  39.7767162  39.4219136
  59.9963140  40.4984331  39.7610664  60.0475168  39.0165663  39.4570470
  60.2108526  60.1439142  13.6087656  60.6793070  60.5492496  12.8790462
  60.9013414  59.7944593  14.1720974  67.2838020  15.9248233  51.2835169
  67.9553986  16.1775327  50.6500149  67.0125055  16.7494619  51.6867542
  15.6259859   8.3149004  57.0055532  15.6381023   7.8987420  57.8674698
  16.3923860   8.8883668  57.0056772  12.4206209  33.9838791  57.8412628
  12.9102540  34.6219754  57.3222971  11.6359115  34.4548321  58.1217337
   2.0813277  76.7094231  15.6295919   1.3618235  77.1913433  15.2217913
   1.8666887  75.7883501  15.4820025  84.9825001  74.7873497  41.6517353
  84.7997761  75.6869745  41.3805914  84.1618633  74.4825077  42.0388556
  45.0382805  64.2172813  24.9329948  44.9251842  65.1232576  24.6455193
  44.7156000  64.2098856  25.8341336  78.7254143  30.1618862  67.5592184
  77.7763224  30.2856708  67.5706005  78.8534737  29.2636204  67.8640938
  20.4777598  56.6096926  71.5595341  20.0297642  55.7676029  71.4794588
  20.5746579  56.9161320  70.6579018   4.9976411  13.8034010  48.1707430
   5.2484572  14.0268052  49.0670776   4.2000002  13.2832301  48.2678127
  49.0626764  74.4565868  71.0032129  48.9572382  75.4063845  71.0579300
  49.3272591  74.1937923  71.8847847  45.0698376  74.9401140  12.6916122
  44.6255159  75.5897331  12.1468139  44.6426105  74.1118479  12.4732411
  19.5375609   7.6307297  63.4742785  19.5932996   6.7424691  63.8265800
  20.3185248   8.0709088  63.8097906  54.9695539  52.3712921  40.1355982
  54.4981861  51.5874529  40.4178047  54.2904234  52.9436684  39.7786665
  11.2311614   4.2262819  10.2751279  11.5602553   3.8096040   9.4786924
  11.4625895   3.6178738  10.9769201  87.2153473  36.4597058  27.8100276
  86.4608669  36.8652654  27.3827982  87.2208118  35.5601120  27.4830246
  12.3025811   2.7808717  70.9077263  11.6752505   3.5021740  70.9568310
  13.1276071   3.1975168  70.6587839  16.3306165  34.8832059  12.6708055
  16.9551480  35.5466771  12.9640591  16.5755153  34.7088027  11.7620468
  66.2391567  53.9626646  14.1523302  65.9965706  54.4382238  13.3578312
  66.1820316  54.6161032  14.8494577  67.9965591  26.3701749   6.9898057
  67.6815701  26.1230254   7.8592479  67.9217815  27.3242497   6.9702351
  84.4584084  12.2805047  61.4453983  83.7127113  12.2467947  60.8462048
  84.6946621  11.3635731  61.5855837  16.0701847  38.4530163  51.3277483
  15.8809555  37.5520277  51.5897512  15.9183872  38.4645486  50.3827333
  36.1676478  27.0692897  63.8463736  35.5626726  27.6555610  63.3919239
  35.9034491  26.1916566  63.5703468  87.3212433  18.7639225  20.8781910
  87.5676823  18.9769089  19.9781156  88.0370998  19.1103613  21.4108825
  43.4783840  10.8238518  15.8281064  44.2932558  11.1527908  16.2075984
  43.0663157  11.5956461  15.4398215  36.6507339  80.5169392   6.8007475
  36.9051313  81.0907745   6.0780960  36.9546962  79.6488476   6.5356791
  70.5946493  77.0047760  25.4131126  70.1662064  76.2185955  25.0746107
  71.0585737  76.7066908  26.1955142  25.1424217  22.8178501  43.4696293
  24.3926692  22.4669123  43.9501953  25.6167603  23.3417630  44.1151905
   4.1835636  82.0353031  61.6685390   4.8069978  81.5891933  61.0953474
   4.6705920  82.1898460  62.4779558  11.7340803   6.7938495  32.3755383
  11.0629761   7.4337924  32.6128674  11.9709373   7.0177591  31.4755416
  32.8196049  29.7948074  56.6610336  32.8853440  30.4933763  56.0099506
  31.9684243  29.9337316  57.0762730  82.6756382  11.4820659  42.4444485
  82.8663254  12.1198750  41.7566490  82.6776218  10.6370807  41.9947529
  81.6937637  69.2120123   6.3001573  81.7342091  70.0003290   6.8415868
  81.1748600  69.4708586   5.5385983  23.1234097  29.5895028  59.7833300
  23.1575561  28.9084363  59.1116047  23.5297275  29.1886306  60.5517292
  82.6885891  47.4614239  17.8983080  82.7904415  47.0320988  17.0488751
  82.2117519  48.2681608  17.7032828  41.9850826  75.2967930   4.3071046
  42.3250580  75.9355927   3.6805418  42.4275017  74.4790888   4.0793890
  39.9335074  38.3465600  10.6473494  40.4660225  39.1410327  10.6090057
  39.2599392  38.4772563   9.9799246   2.5443029  48.8284779  22.1262240
   3.4133178  49.1011286  22.4206829   2.3448704  48.0544758  22.6528883
  31.4671898  24.2472458  36.4857888  32.1572828  24.6601081  35.9666085
  30.7128000  24.8279858  36.3864517  28.7308931   9.9927986  43.6379004
  27.9551554   9.6828771  43.1705570  28.3937931  10.3168285  44.4731236
  24.7971654  40.8969927  52.2710180  25.1841283  41.4369535  51.5818644
  25.1861596  40.0316572  52.1441078  33.0741692  31.6258574  46.7877197
  33.1447005  32.2594833  47.5017023  33.3106565  32.1212840  46.0035896
  54.3781233   1.8808755  26.6827941  53.7980270   1.5139674  27.3499513
  53.9541006   2.6977015  26.4196825  72.5338411  70.7887745  22.7126312
  73.3950806  71.1616659  22.5243521  72.6327515  70.3795528  23.5722756
  27.3445868  74.0624142  36.0350871  27.0389199  74.0233803  36.9413280
  26.5718460  74.3204784  35.5325842  30.4608083   8.9318347  40.0254488
  29.5958900   9.2998886  39.8446631  30.8519816   9.5374519  40.6550837
  44.8682451  40.4255199  67.3864508  45.0879431  39.5477223  67.0743036
  44.1893387  40.7307720  66.7846680  20.5629802  56.9273186  52.7667665
  19.8199296  57.0815468  52.1833944  20.2045536  56.3921118  53.4747982
  12.7889442   7.6725733  65.4486513  12.3514211   7.9927605  64.6598005
  13.7202883   7.8168654  65.2812910  77.0872116  80.6659222  11.5860629
  77.6987696  79.9311256  11.6339982  77.1461248  81.0830307  12.4455881
  77.2010326  19.0146029  28.6852050  77.4438286  19.4883418  27.8896832
  76.3500118  19.3779802  28.9300537  30.9901643  31.5318894  62.3161793
  31.6886854  32.0783234  62.6763344  30.2599025  31.6448259  62.9246187
  82.4970627  69.9225569   2.8651735  82.1855354  70.6164408   2.2840485
  81.7276478  69.6769714   3.3789122  25.9846783  36.3736820  57.1747637
  26.5716100  36.2776685  57.9247808  26.5326190  36.7557883  56.4892101
  53.7145281  26.6174293  59.8024464  54.2998028  26.0012746  59.3619490
  53.2024240  26.0745573  60.4018402  15.1950073  50.1876354   7.1256667
  14.4816554  49.6264315   7.4296647  15.9842718  49.6607542   7.2509199
  62.6185226  66.1682415  30.0784278  62.5128174  65.3249836  30.5188489
  63.4102488  66.5426350  30.4647326  57.6865292  72.7916050   2.5781059
  57.2536278  71.9578218   2.7615023  58.6200666  72.6028824   2.6736066
  85.2117348   5.4700178   0.8379397  84.7016144   5.6157559   0.0412121
  85.8049393   6.2198871   0.8830522  62.0055580   2.1387962   5.8744842
  61.6790915   3.0335507   5.7792670  62.3091650   2.0898069   6.7809361
  18.3396828  34.7234559  64.6427870  18.9563429  35.4545379  64.6043062
  17.9552722  34.7801566  65.5175686  16.0014760  24.3653393  59.1551924
  15.7208896  25.1794624  59.5731688  16.5769970  23.9517617  59.7985935
  28.6445880  14.3922257  47.0535374  29.5242667  14.7092724  46.8488979
  28.7898159  13.6007047  47.5718403  46.5293074  28.7176609  52.4735355
  46.9669676  27.9178739  52.1819544  47.1627712  29.4140720  52.3004293
  23.4584093  32.0482302  27.6418138  23.6849666  32.9748750  27.7207565
  24.2119837  31.6539979  27.2025657  80.3001595  52.3367453  51.9543552
  79.3945408  52.6231527  51.8357897  80.2266788  51.4601851  52.3318148
  38.0503058  38.8810778  45.8611488  37.9539752  38.0097795  45.4767132
  38.0461216  38.7277842  46.8059826  63.7817192  18.5395026  58.3884716
  63.6626053  18.4877396  57.4401236  64.6553326  18.1789196  58.5401726
  74.7279539  45.9946412  71.4403013  75.4527463  45.3746283  71.5208579
  73.9753236  45.5325422  71.8094128  80.1048088  70.7133818   9.6784300
  80.9448624  70.2942038   9.8650748  79.6437407  70.0875854   9.1198361
  39.8413253  24.1433024  57.9747725  39.0682912  23.6496282  57.7010250
  39.6697354  24.3694925  58.8888979  24.3512630  14.1452634  56.1701155
  25.0296259  13.6198473  56.5943718  24.1886425  14.8644781  56.7804575
   5.3874540  30.1694083  68.3160162   5.6313014  31.0708022  68.5263920
   4.6144181  30.2544355  67.7579689  52.7966356  13.6322594   1.1221351
  53.3229208  12.8422630   0.9990131  51.9221830  13.3870387   0.8197570
  71.1582088  71.0189772   1.2027756  71.8702412  70.3997326   1.3633105
  70.5613852  70.8942413   1.9406629  28.0353165  36.6025972  52.4712133
  28.4482670  36.7442274  51.6193628  28.4123230  35.7812166  52.7865458
  45.4092836  63.4849691   0.8150396  45.5379152  63.1380987  -0.0677770
  45.2190542  64.4136143   0.6821346   0.7961024  10.7242513  63.9896059
  -0.0090779  11.2207353  63.8432550   0.6411457   9.8839879  63.5581255
   4.6219486  67.1187305   1.1400315   5.1714587  67.8423595   0.8389817
   5.0688630  66.3322878   0.8269684  57.1049166  70.6337976   6.4356411
  57.9625511  70.5274677   6.0240746  56.7978144  69.7393894   6.5838110
  18.7838423  39.3692875  43.4827566  18.2798851  39.1369772  42.7028275
  18.2848275  40.0785780  43.8878822  34.1010547  17.3965693  30.2064753
  33.6166596  17.4179161  31.0317850  33.5683155  16.8485630  29.6301842
  53.4058380  37.6113796  62.3299313  52.6214504  37.7786493  62.8524065
  53.4324312  36.6591787  62.2358990  81.4763355  17.7885282   7.1159261
  81.3096333  18.2199073   6.2778604  80.7961750  17.1180463   7.1796602
  13.2887411  26.8971777  61.9554520  12.4967039  27.1255112  61.4688587
  13.9693713  26.8274975  61.2860346  69.7076988   2.4203485   5.2679032
  69.2526913   2.9368961   4.6027899  70.5148029   2.1355651   4.8392797
  16.2484741  29.9636078  33.9952898  15.3530777  30.2916145  34.0784097
  16.7965209  30.7463288  34.0520573  14.7840321  45.6286001  41.5642500
  15.5748641  46.0819435  41.8563032  14.2442727  45.5572796  42.3515272
   3.3217284  66.0370922   7.5523031   2.7900010  66.5021324   8.1982428
   3.2796928  65.1199484   7.8230619   9.0243065  73.6913824  61.6139030
   8.4656066  73.0385208  62.0356321   9.4449896  74.1516590  62.3401308
  46.5977049  38.9771628  47.1796417  46.7737389  38.0377722  47.2324657
  47.4645567  39.3828893  47.1660233  30.6974053  16.8993604  34.4775558
  29.8652458  16.5333581  34.7771978  30.4623222  17.7417457  34.0885115
  18.2683134  28.0078840  64.6892071  18.2281840  27.9329705  63.7357855
  19.0724814  28.4991241  64.8572206  34.4515061  31.0589385  51.7929411
  34.5525146  32.0020103  51.9219542  33.5710382  30.8660674  52.1151352
  43.0541134  27.7762008  71.0439062  42.1286106  27.5379801  71.0980749
  43.4269142  27.4789548  71.8739033   2.6849782  77.0330667  40.5495310
   2.4704695  77.5564766  39.7773480   3.2763380  77.5878477  41.0581970
  30.3484201  35.9476256  39.2795992  29.9172997  35.0934124  39.3058610
  31.2418771  35.7742000  39.5760584  58.2105494  14.1753531  49.9762630
  58.1005955  13.8596570  49.0793324  58.1586504  13.3864725  50.5158949
  73.2983255   3.6261448  15.1326454  73.8451719   4.2512122  14.6567500
  73.9004755   2.9275239  15.3887165  30.5620813  12.9139578  55.8921814
  30.2953386  12.7576566  54.9862862  30.4756904  13.8602602  56.0074234
  37.9750657  19.2883551  30.9009290  37.0211482  19.3644595  30.8789372
  38.2399321  19.3302810  29.9820614  31.6725826  14.1195786  30.8592772
  32.5089383  13.6578751  30.7995081  31.6294336  14.4204664  31.7669320
  38.0194259  44.1894579  19.8113656  37.1238041  44.0969038  19.4865167
  38.5699177  43.9195156  19.0762985  48.4862328  11.5302956  56.4010000
  48.1359959  11.0021544  55.6836224  48.6659098  12.3830426  56.0050583
   3.8691416  22.2547865   9.6500641   4.4783503  22.0610666  10.3625023
   4.3323329  21.9820690   8.8580346  23.2734013  39.0963459  69.3794489
  23.5767150  38.2602501  69.0256453  23.8458252  39.7489095  68.9760637
  36.6902852  22.2620702  51.1041355  36.2497783  22.2657323  51.9539404
  37.3031378  22.9959917  51.1488676   5.1139539   5.4371846  55.2596474
   4.5919019   4.7967008  54.7764540   5.2609116   6.1469811  54.6344852
  55.0773096  64.0278196   7.0537621  55.6717110  63.4355974   7.5144076
  55.4591608  64.1191721   6.1807919  51.3340664  19.3785775  67.7601624
  50.6186247  19.0049136  67.2456264  51.8726635  18.6256647  68.0036068
  52.2221851  21.2774944  60.0410748  53.1342888  21.5521336  59.9468374
  51.7210913  21.9472027  59.5756435  67.4470425  29.8847127  67.5617933
  67.7110243  29.0265727  67.8936720  67.3981237  29.7698021  66.6127777
  44.4978285  24.6855855  54.0067244  44.4078207  25.2030301  54.8069620
  43.9610386  25.1463556  53.3619165  50.2640772  26.2344909  55.3006172
  50.2852964  25.5931520  54.5903635  49.8848820  25.7600737  56.0404634
  68.9570761  46.5117550  39.2069554  68.5704708  46.9305134  39.9759865
  69.7917080  46.9635439  39.0824127   9.5879728   6.6217530   8.0912310
   9.3017763   6.0977215   8.8393712   9.2963398   7.5102496   8.2955712
  23.5159707  44.5471096  58.6303616  23.8543439  44.6670246  59.5176935
  23.9878559  43.7847900  58.2950640  44.1283560  10.4823363  39.9048853
  45.0084162  10.1092398  39.8546076  43.5853815   9.8854440  39.3899775
  17.8737748  59.2865753  57.9812384  18.5147488  59.7753334  57.4650049
  18.0539846  59.5379543  58.8870907   2.5175226  24.6667528  19.2310429
   1.9391647  25.4278564  19.2806220   3.2625106  24.8954391  19.7868562
  38.3785510  34.6588898  42.7944374  37.7674127  34.0455627  43.2025671
  39.2375731  34.2520881  42.9076815  67.5901937  32.8410888  43.0789137
  67.5391912  32.1406507  43.7293100  68.2743406  32.5560904  42.4731445
  67.9404402  79.6324873  14.5421338  67.7649021  80.3139210  13.8932419
  67.3389006  78.9237595  14.3139005  10.9714389  47.1269512  63.3559513
  11.2921214  47.9081583  63.8066292  11.4856982  46.4091778  63.7255049
  61.0820389  35.4742956  59.9183083  61.5264940  36.1223531  59.3717623
  61.7799330  34.8874187  60.2094316  85.6110001  50.4718399  68.4557676
  86.3321781  49.8437452  68.4961271  86.0324860  51.3080692  68.2575321
  86.1808395  59.2561626   0.9800766  86.7634010  59.4643974   0.2496728
  86.7552567  58.8725901   1.6427571   3.6508277  51.4106655  59.3267679
   4.5079941  51.1471796  59.6615410   3.6576974  51.1375380  58.4093857
   8.1016266  10.7028961  14.3922472   8.3729559  10.0893664  15.0750303
   7.8783232  10.1469934  13.6456943  36.7855501  52.6959944  34.2971539
  37.5797224  52.2793770  34.6317387  37.0945096  53.2769346  33.6019635
  18.8866973  28.4169436  57.5860262  19.0197921  29.1640139  57.0025873
  18.8806605  28.7971640  58.4644508  20.4653573  76.2075758  13.4487128
  20.7028008  75.2836227  13.5271883  21.2646866  76.6807508  13.6798155
  78.7605619  49.9243784  10.0502038  78.7558794  49.0282869   9.7137123
  78.6013174  50.4702091   9.2801762  21.9439769  38.8995600  59.9724960
  21.5776372  38.4223318  60.7169962  21.1797881  39.1883874  59.4736719
   7.2922218  26.2327671  27.3110843   6.3473356  26.3750386  27.2546792
   7.6369262  26.5854120  26.4906859  24.4867969  18.9325392  31.6674018
  23.9544654  19.6731901  31.3770723  24.6273470  18.4135854  30.8754635
  66.3923073  23.7201929  49.1305017  65.8321714  22.9530144  49.2484808
  66.0572433  24.1419864  48.3392620  40.7478571  30.9337473  57.2149420
  41.1589098  31.5490627  56.6077757  40.0943804  30.4759288  56.6861677
  16.0979521  41.0612726  63.3117914  15.1904726  41.3654709  63.2983732
  16.2027478  40.5839300  62.4887562  10.5838025  26.1225176  28.4584594
  11.2761080  26.0803485  27.7987885  10.4688513  25.2159452  28.7433147
  24.3940997  32.1623278  59.6512604  24.5022845  32.0690989  60.5977488
  23.9122772  31.3786197  59.3869162   1.1569872  30.5632234  41.0300446
   0.9203043  30.0746393  40.2416945   1.6408321  31.3224936  40.7050323
  83.8663197  29.9188018  50.9076691  83.9217281  30.0438929  51.8550444
  83.2646751  30.6015015  50.6107235  58.8459158  25.3560138  57.8258085
  59.6875954  25.3250647  58.2806110  58.9339018  26.0820770  57.2082949
  30.5330873  20.9456658  60.3620243  31.0347533  20.7330060  59.5750427
  30.5827165  20.1546454  60.8987284  34.4056129  30.6998134  62.3923016
  35.0564241  30.0204039  62.2160053  33.7132192  30.5404425  61.7508745
  33.7970948  30.1071334  66.3426924  33.4596825  30.8792448  65.8885670
  33.1878352  29.9706936  67.0682383   7.5419670  40.2849245  49.8230553
   6.7739964  40.8554411  49.7920847   7.6780504  40.0169325  48.9142656
  37.1580648  32.7553892  70.1180887  37.9829526  32.5567484  69.6749926
  37.3333764  32.5767064  71.0419750  30.2223825   7.9373032  10.3170586
  30.8930635   7.2904068  10.5360234  29.8415160   8.1822795  11.1603618
  45.1947975  23.6319661  50.5844927  45.9988308  23.8529444  51.0545301
  44.9634123  24.4337368  50.1156092  14.9729180   1.5079747  18.0928004
  15.2696717   2.0212658  17.3413336  15.7426667   1.4439914  18.6581540
  87.5472450  64.7439384  21.8355179  86.6170883  64.5468998  21.7250156
  87.9659557  64.3640232  21.0631347  35.9207010  27.0445728  71.0381842
  35.7583857  26.8417335  71.9594526  36.3130903  27.9175591  71.0506725
  48.2176828  42.6865196  65.8934069  48.8265181  43.3514309  65.5717897
  48.5974503  42.3948860  66.7222404  47.5268078  46.6121054  11.8613911
  47.2230339  46.3094568  12.7171695  48.1512880  47.3093271  12.0617366
  27.3321128  10.7472050  61.4539194  26.6006756  10.4799175  60.8973312
  27.9522610  11.1597788  60.8527279  23.0196762  34.3935347  53.8909245
  22.5709057  33.9502335  54.6108723  23.3739877  33.6832356  53.3559799
  75.2063608  72.3689604  59.7944546  75.5517006  71.6371727  59.2831230
  75.3412294  73.1353569  59.2370701  67.2474098  68.4905577  15.4122162
  67.9404354  69.1486216  15.4660404  67.0168543  68.3104324  16.3236046
  16.3435888   0.4763278  47.8704262  16.5913904   1.3887405  48.0198574
  15.6450486   0.3110703  48.5036421  35.3256249   3.7969229  46.5888691
  34.8858166   4.6264148  46.7752695  34.9562812   3.5125750  45.7528305
  19.3269217  26.9072413  29.6306419  18.8102770  26.7642736  30.4236555
  18.7780869  26.5691686  28.9230275  68.4001207  81.7259407  16.3033104
  68.7692642  81.0987282  15.6815612  68.7263203  82.5760555  16.0081291
  43.0065536  60.5304003  65.0143623  43.8147688  60.3948736  64.5197392
  43.2922506  60.9332705  65.8343077  17.7262795  20.6530380  18.7156928
  17.7180839  20.3283501  17.8152812  17.7530789  19.8627210  19.2550552
  45.9902430  41.9359064  69.4964314  45.3841829  41.7880774  68.7704325
  46.8582010  41.9042778  69.0940905  43.1479740  56.9166422   1.7576297
  42.6034832  56.2420797   2.1635008  43.4836960  57.4283504   2.4936160
  84.0607929  39.1965818  29.3447256  84.4929409  39.0132618  30.1789141
  83.1364536  39.2990899  29.5712709  29.5413327  33.1823850  63.9104700
  29.2653418  33.0606961  64.8189068  29.3106270  34.0893674  63.7095070
  23.0399442  41.9137955  64.3872833  23.8388681  42.4134064  64.2189264
  22.5377893  41.9843340  63.5754347  27.1160698   7.0372927  38.3802843
  28.0045700   6.8448746  38.0806541  27.1487045   6.9042528  39.3276310
  56.5254498  22.2516155  32.9338884  56.0311270  23.0378222  33.1657457
  57.1207333  22.1168399  33.6712503   8.4530723  65.1376200  22.4160361
   9.1324180  65.2815008  23.0748391   8.1205028  66.0134506  22.2197008
  42.6879549   9.3504494  46.7010307  42.0927668   8.9467579  47.3327065
  42.1144581   9.6849936  46.0115242  35.8649135  12.9973030  23.4183025
  35.3203154  13.5750639  22.8836656  36.7449903  13.0932212  23.0543017
  53.3470964  37.4261069  47.9945135  52.6746416  38.0382085  47.6955605
  52.9831076  37.0410156  48.7916660  34.4614840  22.0176458  57.1984434
  33.5063529  22.0490980  57.2528934  34.7551179  22.7788544  57.6990128
  78.8570976  11.1035097  33.5211492  78.3435583  10.5528760  34.1121769
  78.3925772  11.0562086  32.6855588  26.4354610  28.2541442  39.3665051
  26.7761874  27.8530765  40.1660585  26.4919877  29.1959119  39.5280862
  14.5168853  19.3546271  63.0473232  14.6467566  20.0736165  62.4289274
  15.1085758  19.5531130  63.7730932  26.0386276   2.7713731  24.9215508
  26.7191076   3.3143464  24.5236063  25.2360106   3.0183229  24.4621468
  34.6475768  32.2510743  64.6019316  34.4937181  32.0113945  63.6880875
  35.4223442  31.7487144  64.8541212  74.8269939  79.8023510   3.6263832
  75.6010294  79.7176075   3.0696797  74.1404057  79.3300390   3.1554732
  75.4395962  42.9099798  57.3146248  75.5352926  42.3734713  56.5277100
  74.5018482  42.8899574  57.5055742  32.1399999   9.6865553  37.0713973
  31.8200111   9.1684794  37.8099346  32.1574903  10.5856776  37.3992753
  37.1717072  33.4974265  46.6340446  37.8307843  33.9322948  47.1750975
  36.4632702  33.2870340  47.2423935  86.8364048  34.8531628  55.5955219
  86.2719345  34.4414520  54.9412298  87.3883057  34.1407084  55.9180880
  72.8791142  73.8900518  54.0288544  72.2601366  73.1599617  54.0369606
  72.3386812  74.6640110  54.1874504  67.3519754  69.6319580  42.8729200
  66.5921545  69.6158457  42.2909880  67.0667219  69.1554451  43.6525297
  11.9027877  23.8288927   5.7236332  12.5759411  23.4776831   5.1407540
  12.3341262  23.8944173   6.5756214  70.8440971  56.3154507  40.5050659
  70.3857136  57.0412970  40.9284544  71.2341118  56.7029476  39.7215033
  47.6526833  48.5581446  51.2060261  48.3409214  49.0544081  51.6490650
  47.2728443  48.0099583  51.8926430  73.1177711  41.3093615  51.7901754
  74.0098667  41.5305710  51.5228510  72.6325321  41.2366295  50.9682941
  63.2906246  73.1701040  50.2824211  62.7666378  73.8880682  50.6376648
  64.1250372  73.2295609  50.7476616  40.8071995  10.7658517  41.3368416
  40.0604343  11.3362896  41.1546946  41.5371132  11.3669693  41.4855528
  65.6364441  80.3844833  31.8567085  65.4280949  81.2954807  31.6495657
  65.1854610  79.8763609  31.1824226  40.9393215  19.3408573  58.1451893
  40.2254629  18.7031889  58.1412077  40.7723665  19.8920655  57.3806429
  38.8720989  68.8242769  27.6205850  37.9364181  68.7481689  27.4336648
  39.2365670  69.2549181  26.8473148  40.7446289  51.5617943  45.7490635
  40.5943966  51.7537785  46.6746998  39.8694611  51.4172125  45.3893280
  54.6539068  55.5685616  61.6322327  54.9172354  54.8600578  61.0449457
  54.4617462  55.1325655  62.4624252  32.0383310  11.0043216  25.0609779
  31.4372587  10.3321636  24.7398162  31.4681339  11.6802096  25.4274225
  74.8526382  57.3270750  66.3142729  75.4975414  56.6417027  66.1393642
  74.3530798  57.0005322  67.0626354  24.6418476  53.1804228  67.2249460
  23.7997270  53.2803488  67.6688814  24.4120049  52.9702616  66.3198280
  34.7125268  62.7186871  28.9798784  35.6229734  62.9070234  29.2075753
  34.2108703  63.0026102  29.7440529  68.0284595  40.5830717  47.4255371
  67.5126123  39.9191856  47.8831244  68.8773012  40.5736876  47.8678226
  77.8773594  67.4132872  24.0074968  77.0716190  67.7602482  24.3904185
  78.1151295  66.6793537  24.5741010  54.9716282  22.0616674  59.8256350
  54.7021151  22.1173048  58.9088488  55.8405876  21.6613507  59.7959566
  80.0866127  61.6405153  57.2047710  79.4584846  61.6685200  57.9265070
  79.5560789  61.7782831  56.4200497  23.1912470  18.8956726  34.1768122
  23.8006759  19.0562105  34.8972678  23.7452865  18.8645470  33.3968735
  62.7560329  60.1939154  33.2781315  62.1925402  59.9252415  32.5525093
  62.2769022  59.9303436  34.0637493  53.0824184  43.0816269  43.6938238
  53.3522987  42.1767807  43.8508081  52.8087091  43.4024429  44.5531225
  21.8479896  38.4326243  48.0120611  22.2592688  38.0127335  47.2565651
  22.3500681  38.1178665  48.7637758  43.5306120  61.8545532  70.6203985
  42.6089096  62.0702839  70.4784203  43.9033318  62.6434088  71.0141325
  72.3620462  81.4747524  43.5182667  71.9496250  80.7589436  44.0017509
  72.2595119  82.2380447  44.0866899  63.4127426  61.6449642  46.6739273
  62.5703382  61.2033272  46.5665102  64.0468931  60.9332800  46.7610455
  70.1021624  76.7693090   0.5208435  70.4091024  76.1149597  -0.1067334
  70.8835411  77.0078039   1.0196403  37.7821827  60.1718044  63.3691931
  37.3190069  60.1761723  64.2068529  38.6989689  60.0269365  63.6031818
  25.7313895  68.5106516  70.0899887  25.5749702  69.4405890  69.9257183
  24.9556518  68.0719376  69.7407150  32.5214267   9.6464908   4.4352746
  31.8610787   8.9748746   4.2646688  32.3565984  10.3180420   3.7733963
  45.1338243  47.3335838  56.5767860  45.2058411  46.6279840  57.2195768
  44.5269203  46.9963121  55.9178925   6.2826622  13.1914961  56.7010021
   6.1650717  14.0445304  56.2829876   6.3309747  13.3878684  57.6365948
  70.5576468  14.5902491  43.6360645  70.7506323  15.5275774  43.6561728
  70.3537655  14.3681467  44.5445442  49.8301840  50.5293655  46.9759321
  49.6279812  49.9139690  47.6806545  50.6976748  50.2655792  46.6691685
  29.8887420  31.0085464  45.0259161  30.4140639  30.2608275  45.3108501
  29.1494226  30.6181335  44.5598507  75.9366608   2.0924416  26.6240001
  75.8534336   2.7203822  27.3416328  75.0442171   1.7805862  26.4739132
  80.8019352  12.3972976  67.2866583  80.7454205  11.7207623  67.9614496
  81.2954998  11.9867814  66.5766621  42.8198195  12.8726077  14.1578782
  42.7158642  12.2607303  13.4291577  42.1087885  13.5033047  14.0443420
  44.1386700  36.6137743  53.1597519  44.9658108  36.6007662  53.6413097
  44.0209389  35.7118678  52.8615332  36.5496778  64.5401621  57.5131989
  36.9550991  64.7811365  58.3461428  37.0921826  64.9673653  56.8503094
  82.0375347  59.7218275  68.6416054  81.7224598  58.8467884  68.8680220
  82.4142361  59.6219683  67.7673340  44.6555328  40.4121780  55.4837084
  43.8350248  40.8873940  55.6147289  44.7358656  39.8550034  56.2578773
  49.9930382  53.4512377  39.8027062  50.8178949  53.6103487  40.2615452
  49.3194199  53.5732079  40.4717255  60.6720638  18.4318328  68.8199091
  61.5761232  18.1235182  68.7579060  60.6311083  19.1761005  68.2193947
   5.7318330  22.4339581   1.5078448   6.0765195  23.1020498   0.9153253
   5.3811938  22.9286051   2.2485262  41.1677647   1.8193515   4.4490725
  41.3468504   0.8875529   4.3229300  41.3895226   1.9839419   5.3655684
   2.0394787  58.8489246  45.4154730   1.8209758  58.0586100  44.9216127
   1.2276362  59.0820646  45.8657885  44.5217514  79.2936563  35.4261374
  44.3825245  78.4356689  35.0252604  45.4710245  79.4152546  35.4080963
  40.9791946  36.2314868  61.6346931  41.6318035  35.9056544  62.2545052
  41.4046907  36.1617041  60.7801104  65.5885315  35.1771021  62.9628658
  65.4298782  36.0944581  63.1853914  64.8794746  34.6999884  63.3939457
  77.3374128  78.6405039   8.3591068  77.3101425  78.2329845   7.4934191
  76.5864658  78.2693529   8.8223118  42.0247221  55.1278162  31.7541432
  42.8472710  55.5141687  32.0547724  41.5805054  54.8553896  32.5570679
  81.3369465  50.5504179  42.9883909  80.8949375  50.1962137  42.2167683
  81.1676216  49.9079323  43.6774302  68.2766390  64.2340946  63.6115932
  67.7811813  64.4479132  62.8210020  69.1930819  64.2749214  63.3382893
  20.5555296  22.2256374   0.1739102  20.8356833  21.7374468   0.9481292
  20.7105923  23.1427431   0.3999698  52.1225023  64.2421293  46.4106941
  51.8155432  64.2840958  47.3163700  52.2884703  65.1539946  46.1715555
  62.7529716  59.8013687  71.8646097  62.4199438  58.9208603  71.6913223
  62.4181080  60.3308296  71.1408901  43.7685919  48.1205606  50.9910870
  44.2627239  48.7053061  51.5656710  43.4402561  47.4346828  51.5724564
  43.8737059  56.9292831  59.1015148  44.2192936  56.0524988  59.2690039
  43.5266781  57.2153854  59.9464703   0.5239229  14.9189281  10.0508571
   0.1944278  14.4527709   9.2825067   1.3541594  15.2984595   9.7629410
  48.9653683  47.4497414  59.8544025  49.2065811  46.7500210  60.4613972
  48.9754391  47.0332718  58.9926100  52.1121550  36.3932848  55.0837851
  51.2460518  36.3823009  54.6763897  51.9370747  36.5282106  56.0151100
  41.3995504  39.6602035  54.5432568  41.6963339  40.4749393  54.9486637
  42.1463966  39.0668797  54.6234035  63.2972097  26.4544463  53.5688782
  63.7210369  27.1500397  54.0716267  63.6570549  25.6444144  53.9302540
  43.2946062  43.5978031  51.8357706  43.6969995  44.0037060  51.0679436
  43.7439871  42.7574348  51.9256067  44.1602087  81.1212826  54.2887449
  44.6992493  81.8830013  54.0755510  44.7452497  80.5434132  54.7786713
  61.7698193  42.5777006  60.1028347  61.8348742  42.7971172  61.0322762
  60.8766794  42.2504330  59.9959421  55.4905748  65.7790709  46.5061903
  56.0848904  66.2099552  47.1204853  55.2050734  64.9883270  46.9638443
  42.7167702  52.2801971  71.3629293  42.4032927  52.0919275  72.2475290
  42.5532150  51.4736176  70.8741379  42.0405006  22.7303147  58.1024122
  41.3032103  23.2741308  57.8251171  41.6381502  21.9128275  58.3957767
  63.2153988  47.8063011  25.1561260  62.3778534  48.0713844  24.7760177
  63.1135178  46.8708134  25.3313613  84.8698807  81.1432934   1.9321732
  84.6232700  81.5032291   2.7841482  84.3986034  81.6839314   1.2982617
  57.9989862  80.0431347  54.0286446  58.4870195  80.8665085  54.0179014
  57.8523588  79.8637152  54.9573755  35.3135228  24.0104246  65.5129194
  36.1707997  24.0872025  65.9317446  35.4866672  24.1606927  64.5835829
  77.6528978   1.6177413  11.9862449  78.1486511   1.6491581  12.8044581
  78.2168341   2.0540270  11.3476062  66.2508774  32.1155810  52.0021629
  66.0305643  32.2652626  51.0827684  65.5624294  31.5322495  52.3215294
  48.5236979  51.8509674  35.2511430  49.3470955  52.3388100  35.2352977
  48.7878656  50.9330988  35.1881528  52.5043678  28.7842941  58.3562660
  52.9787254  28.0267930  58.6989117  52.4345589  28.6180091  57.4162102
  44.7252989   6.3610107  43.6415291  45.6338453   6.3178861  43.9397192
  44.7553253   6.9146717  42.8612804  83.9977741  70.7375669  58.1925774
  83.9697361  70.1041937  57.4754429  83.0833626  70.8423758  58.4554529
  17.4191427  11.4273119  10.3948367  17.1467710  11.0063636  11.2102199
  18.1949782  11.9341457  10.6344855  49.0524769  45.4710770  68.9205694
  48.9203024  46.3515091  69.2721367  50.0008678  45.3949022  68.8157749
  66.7360163  71.7007160  64.6021986  67.0836449  72.4019289  64.0511227
  67.4196148  71.5474796  65.2544594  24.6745133  16.0638797   4.0457404
  24.7124600  16.9366765   3.6545652  24.8813510  15.4691136   3.3248359
  41.0016441  59.4859838  44.2330265  40.3250694  60.1605988  44.1749334
  41.7871523  59.9035025  43.8796282  28.1751490  11.8417954   5.2391946
  28.2961607  12.7437174   5.5360532  28.2864428  11.8852615   4.2894807
  41.0940504  33.3121872  52.5920105  41.8950796  33.7496066  52.8805304
  40.9751177  32.5950861  53.2147932  71.7893410  20.6922960  54.2138958
  72.6461077  20.4406023  53.8691807  71.2790966  20.9276175  53.4389687
  86.1970711  26.1017179  52.1933270  85.3406239  26.1224294  51.7663574
  86.6980553  25.4567432  51.6940737  17.6008415  18.0738688  16.3293827
  18.2425499  18.7805486  16.2583506  18.0833733  17.3517275  16.7317593
  57.0847416  53.8585758  51.1063433  57.5128174  54.6084929  51.5193844
  57.8008175  53.2579660  50.8996105  41.0299206  72.5729227  38.4035945
  40.2560234  72.3650455  37.8800392  41.5534496  73.1436062  37.8410411
  65.9420347  43.1855297   8.1819755  65.3254509  42.7282238   7.6102000
  65.6744003  42.9403067   9.0676779  69.2633009  36.5432143  40.3508520
  68.8301182  36.5646887  41.2041521  69.3876600  35.6117630  40.1687527
  46.8672180  30.0822902  66.3233900  47.7607918  30.0185561  66.6605854
  46.3232517  29.7020483  67.0131397  69.6488905  33.6368728  57.0576382
  69.5785809  33.2983327  56.1650705  70.5347443  33.9959121  57.1085310
  58.4600735  57.5554180  55.3536367  59.3835497  57.3162365  55.2748013
  58.4718800  58.4356403  55.7295370  26.7921066  19.8078656  47.3894453
  27.1604156  20.4140520  48.0321836  26.4715099  20.3712392  46.6851282
  38.3030868  58.2926846  35.0258613  37.9676270  57.7609730  35.7476521
  37.9796839  59.1750145  35.2079034  55.7959414  61.0342693  60.7080650
  55.8437634  60.3904200  60.0013828  55.0458717  60.7571459  61.2342072
  49.9802876  62.3229170  46.7135286  50.3948784  61.9439602  47.4886036
  50.5820417  63.0124187  46.4329767  46.3996792  36.5749645  54.7788811
  46.4864635  35.6763577  54.4607496  46.1494017  36.4805484  55.6979465
  50.4024029  35.2594352  63.8365364  50.9507656  36.0125160  64.0565300
  51.0222673  34.5419192  63.7055111  39.2291689  10.0539553  43.8322306
  38.3838868  10.2994537  43.4561205  39.8490691  10.1460588  43.1087160
  86.8330002  72.7341223  10.4011667  85.9678459  72.4671221  10.0906050
  87.4437046  72.3337078   9.7823435  14.2526925  65.6066513   0.0486662
  13.5850561  65.0910902   0.5010898  13.7561035  66.2439108  -0.4646881
   0.2977138  81.1272907   4.2897972   0.5980220  82.0355701   4.3226594
  -0.1422133  80.9899807   5.1287502  56.8295860  77.7394247  35.0994349
  57.1566772  77.9724407  35.9683108  57.0239449  76.8061876  35.0126886
  69.1281748  31.5479684  59.4602108  69.8734188  31.7193818  60.0359392
  69.4819498  31.6427112  58.5758495  45.9728193  21.4972997  64.5473719
  45.3509521  20.8197284  64.8127270  46.7149878  21.3872910  65.1417732
  44.9952698  49.9233770  52.6548433  45.8565378  50.3344822  52.5810623
  44.3839359  50.5903816  52.3424196  58.6038780  28.4526467  52.3631668
  59.5291042  28.3580709  52.1367836  58.2605648  29.0682650  51.7155743
  52.1087170  44.0055084  46.8657637  52.8727531  43.4631252  47.0614624
  52.1849680  44.7506475  47.4617386  56.8031359  75.6477451   3.1427407
  56.9162750  74.7294331   2.8975317  57.0306206  75.6772852   4.0720469
  76.6032171   7.9712033  32.3093653  77.3770571   7.6238465  31.8658042
  76.5174866   8.8647234  31.9769430  69.0050507  41.4304209  44.9452400
  68.9967775  42.2996378  45.3460169  68.5092306  40.8817339  45.5529737
  36.9021487  27.8899670  57.7018070  37.0249772  27.7632976  58.6426067
  36.5635037  27.0509601  57.3893690   7.3312902  38.8431168  42.1228361
   6.8840921  38.2885981  41.4834976   6.9821662  39.7202635  41.9648552
  28.7954259  21.9231153  30.7325745  28.5193944  22.8365612  30.6573486
  28.3612776  21.4808631  30.0030804  65.7218361  38.6369085  51.9941425
  65.0127363  38.5700607  52.6336288  66.5215635  38.5576391  52.5141287
  63.3856773  56.6821241  47.5872087  63.5391140  57.6261902  47.6249075
  64.2544270  56.2939310  47.6911879  55.8154869  36.6345429  48.9049768
  56.6392279  37.1163225  48.8303375  55.1637411  37.2112823  48.5064411
  11.1154425   7.6560384  39.5880032  11.3393831   8.5683221  39.4040966
  11.9269359   7.2726029  39.9207020  11.0759461  76.8628645  10.7788062
  10.3520060  77.2333479  11.2836683  11.6893685  77.5897121  10.6709278
  14.3425333  47.0416021  47.9111433  13.7615371  46.3516617  47.5907373
  15.2056122  46.8047285  47.5717020  27.8420091  62.9410982   1.6202709
  28.5080481  62.2834063   1.4201011  27.0519137  62.6223564   1.1839405
  58.1943321  70.2034903  69.0769339  57.7337360  70.9493446  68.6925030
  58.2271624  70.3990459  70.0133705  47.7175760  52.2515249  62.7307272
  47.9967117  51.3360786  62.7472830  48.4963608  52.7344227  62.4540663
  50.9413004  25.9596419  21.0217166  51.2978601  25.9390998  20.1336408
  51.2095881  25.1254344  21.4068818  43.0203962  57.5702143  39.9651527
  43.7164211  58.0606651  40.4024553  42.4703932  58.2422686  39.5625639
  44.2212391  67.9224348  42.0318270  44.9122190  67.8859758  41.3704300
  44.2913246  67.0891523  42.4976158   5.7143408   8.4093684  39.5710516
   5.2068007   8.2214165  38.7815523   6.5391898   8.7696570  39.2454028
  22.7824998  23.2709432  14.2174554  23.3144808  23.3913994  13.4308696
  21.8797231  23.2774687  13.8993573  83.1993198  72.5476360  55.6840324
  83.3445644  73.4778309  55.5111980  83.2593918  72.4686861  56.6360807
  77.6168919  74.0678310  12.7442062  77.4019670  74.9047565  13.1560194
  78.3458996  74.2697191  12.1576691  50.4909992  40.7410002   8.4218043
  50.1002026  41.2240410   9.1499400  49.7448301  40.4650688   7.8895205
  61.5866613  80.3239059  36.9033980  61.0369635  79.5895195  36.6300130
  62.1660900  80.4799843  36.1576557  56.3694763  16.7628527  33.9273429
  56.9582605  17.3854852  33.5008502  55.4914761  17.0745146  33.7077785
  44.2509317  17.0764828   1.1127774  43.7612295  17.4422026   0.3761151
  44.3392658  16.1465991   0.9036272  73.8669586  74.3795776  68.3291626
  73.8650370  75.1106358  68.9470530  72.9811573  74.3701458  67.9665327
   3.9201206  37.4153781  28.8657928   4.3324667  37.1190238  29.6771955
   3.7818682  38.3535290  28.9961505  54.7324896  20.0962329   2.6041934
  54.1510201  19.9968541   1.8503729  55.5945778  19.8390639   2.2772411
  69.7520924   6.4314616  43.2292128  69.8105764   5.6905568  43.8324261
  69.7115993   6.0307312  42.3608732  30.8415318   5.4311603  54.5651865
  31.4637136   4.7664338  54.2697906  30.9870028   5.4926765  55.5092669
  31.5922713  23.4450197   7.3025793  31.4281440  22.7505898   6.6645640
  32.5195885  23.6559272   7.1938109  31.3680410  12.7445483   5.9925830
  30.7553625  13.3340979   5.5529380  31.8893623  12.3685265   5.2833146
  59.3667889  71.5000105  63.3842945  58.9568901  71.6379023  62.5303650
  58.6328554  71.4465475  63.9964390  10.7988632   9.4809961  48.4464836
  11.0255659   8.7385172  47.8865147  10.3925323   9.0844911  49.2171383
  28.1622243  31.7320824  10.7693040  28.9190769  31.2190819  11.0525644
  28.4083271  32.0656776   9.9065292  60.1394320   6.9805551  45.2058983
  60.4983521   7.8329360  45.4525805  59.9285841   7.0693636  44.2764425
  18.5911882  17.1466684  10.4003322  18.9067245  17.0859551   9.4986767
  17.6492095  17.2937560  10.3150475  63.5972738  60.1339436  59.8968172
  62.7771807  60.6227255  59.8277664  63.3425188  59.2197895  59.7717047
  68.3434248  52.7099609  51.8111801  68.4669781  51.8056631  51.5227127
  69.1138697  53.1734800  51.4828634  10.7220387   1.6393919  15.9608734
  10.8855879   2.3762611  15.3722250  11.1685026   1.8781166  16.7732239
  45.5502558  68.1438208  29.6634269  45.9433317  68.9508963  29.9956107
  45.5524731  68.2502079  28.7121582  68.8628197  82.3165703  39.5714355
  68.6547232  82.9291725  38.8659906  68.6781740  81.4533615  39.2012906
  48.4494495  73.6907482  29.8452330  48.9748240  73.5397387  29.0594816
  49.0619898  74.0743113  30.4728532  13.9618635   8.5498518  11.2877011
  14.0368450   8.3717769  10.3502047  13.0204272   8.5339338  11.4599729
  56.8515444  57.1312618  34.1533756  56.8118763  56.8662643  33.2344437
  57.7859688  57.1370792  34.3608475  64.8453665  64.8223782  52.4921179
  65.0572872  65.2462149  53.3237934  63.9716864  64.4550610  52.6262760
  81.5779114  78.7616777  58.1322813  81.9789505  79.0803719  58.9408827
  80.8330631  79.3453312  57.9881334  65.0480843  40.5320740  34.9167538
  64.9502230  41.4813662  34.8425937  65.6701326  40.3008080  34.2269707
  26.6222048  22.3256660   0.4276162  26.4254642  22.9705596  -0.2518228
  26.6650677  21.4912200  -0.0393884   5.6702107  20.3119493  28.7342811
   6.2181997  19.6458375  28.3192706   5.4160458  20.8934760  28.0177212
  58.8307142  53.0202675  20.6422901  58.9231730  52.1153641  20.9403419
  57.8855419  53.1700230  20.6209564  21.3789296  28.0738211   6.6977555
  20.9490180  28.9154577   6.8495941  21.8901420  28.2065701   5.8994615
  38.1317806  13.1468177   6.5247327  39.0248990  13.4387505   6.7073393
  37.5782108  13.8685369   6.8229157  66.5434647  54.1892433  28.9094782
  66.0829973  53.6792803  29.5759177  67.0303059  54.8474169  29.4054818
  51.1363173  49.7775888  32.7612305  52.0102453  49.9764538  33.0972791
  51.2119102  49.8931217  31.8140411  34.1362095  22.3108506   9.7756940
  35.0343037  22.5896764   9.9543405  33.8084888  22.9497433   9.1427267
  45.0918293  44.9432278  57.8643417  45.4593706  44.7115993  58.7172747
  45.5507660  44.3768692  57.2439814  74.8562908  77.4660015  64.0883446
  74.7870588  78.4064722  64.2525339  74.2705727  77.0668077  64.7316265
  83.5302925  66.9861937   5.1658010  83.1159019  67.7843761   5.4935461
  83.8019943  66.5162897   5.9542173  21.4747238  12.9675364  16.7188895
  20.8486724  12.3182774  17.0394433  21.1887622  13.7913060  17.1136832
   0.5767054  13.1874192  55.4490423  -0.1068393  13.5710895  55.9983969
   1.0308103  13.9404094  55.0708532  26.0464430  15.2902794  47.3440552
  26.9853401  15.1787245  47.4932528  25.8748627  16.2043178  47.5706100
  20.1820183  12.8509450  53.0529642  21.0679507  12.8845143  53.4138298
  20.2510619  13.2934320  52.2069883  50.9628439  73.5609818  63.4055281
  51.3886547  73.6064672  62.5494671  50.0357962  73.7108469  63.2201767
  60.2922106  26.4688492  45.0969791  60.9823418  26.3525915  45.7499981
  60.4857397  25.8152127  44.4250107  41.5713167  35.6706023  18.1551087
  40.6381989  35.8154631  18.3117509  41.6126394  35.3133750  17.2680271
  56.5379858  37.0003343  61.8713665  55.7843161  37.4450922  62.2591829
  57.2660923  37.6087809  61.9973993   2.3451000  58.0640268  64.1940022
   3.1909290  58.4711552  64.3812132   2.4394727  57.1629000  64.5027018
  54.7449064  65.4909420  51.4366579  55.6603670  65.7292509  51.2904692
  54.6647692  64.6109772  51.0685921  81.1734867  69.4718504  35.8792615
  80.4242897  69.4422007  36.4742804  81.3060570  70.4041004  35.7073331
  27.7677727  12.6586294  69.5852518  28.2836127  12.0322633  70.0929928
  27.3186088  12.1240079  68.9305258  60.8201265  45.9749413  43.7523174
  60.7171583  46.5945005  44.4746590  60.4163218  45.1673412  44.0700531
  55.8582544  81.6568851  39.3161249  55.5311680  80.9635639  39.8893213
  56.1752939  81.1958885  38.5394645  60.6674671  52.5819540  61.5533352
  60.8716059  51.6604042  61.3942480  61.3900089  52.8970432  62.0963669
   3.1883353  72.3918009   5.7531041   2.3175272  72.7593851   5.6020921
   3.3280265  72.4861288   6.6953462  31.5642619  67.6504469  46.2077427
  32.2985196  67.1378565  45.8695841  30.8677840  67.0086193  46.3463211
  59.9351692  45.5498409  52.5629759  59.4263792  45.9968805  51.8865776
  59.3113995  45.4028654  53.2739878  17.0583558  37.3432279  24.1183019
  16.6937053  37.6598978  23.2918739  16.6805398  36.4706206  24.2280555
   8.5927200  24.5849824  42.8880739   7.8599596  24.4652534  43.4921932
   8.3376187  25.3324533  42.3472929  35.8771491  73.4001303  47.4154329
  36.3553166  74.1331530  47.8030729  35.0350285  73.7739277  47.1559334
  49.7272587  59.4384956  39.5075798  49.2583466  59.3062878  38.6836433
  49.0370321  59.5155191  40.1662827  10.2701235   4.2952535  47.0170593
  10.2512670   5.2442163  46.8931818  10.5355561   4.1780084  47.9292154
   4.6366677  78.4703398  62.1342850   4.9198326  78.4054136  63.0463362
   4.8428026  77.6146793  61.7580080  75.1479626  48.7642241  47.3847389
  76.0413218  48.9532900  47.0976925  74.6500969  49.5472383  47.1496773
  20.0203538  77.2201967  50.7911777  20.4591680  76.8575573  50.0216579
  20.1106143  76.5417099  51.4603138  86.7583656  27.5250649  22.7786160
  86.8606091  28.3115768  23.3145046  85.8248138  27.4977708  22.5689602
  21.3085246  67.3238707   2.0976953  22.0860982  67.6602697   2.5431734
  21.5760875  67.2352839   1.1829305  48.8378763  56.8029594  45.7220507
  49.0400696  57.5876856  46.2315178  47.9113913  56.6366911  45.8958483
  58.0797863  71.1548996  48.1731606  58.9258623  71.4523220  47.8386068
  57.4717617  71.2978411  47.4478292  77.1996117   6.6427881  67.0374537
  77.6322651   6.7031538  67.8891563  77.7782440   7.1174467  66.4406967
  52.9571819  69.0480566  44.1555023  53.6179304  69.4894266  43.6217976
  52.1361876  69.1867065  43.6833000  32.5987291   7.7523619  59.5251989
  32.5854373   8.5635149  60.0332212  32.1149659   7.1251917  60.0626612
  35.5663967  38.2039595   4.8912799  36.0706878  38.9564729   5.2005470
  36.1476994  37.4551702   5.0240672  45.2619600   2.9316285   7.4187297
  44.7821283   3.3835804   6.7246616  45.2548456   3.5451195   8.1534475
  67.2690487  28.1711268  57.1646929  66.8282843  29.0206861  57.1789837
  66.9308710  27.7128792  57.9340315  43.1164265  75.1839924  69.7722101
  42.7610111  74.5107269  70.3524065  43.5083866  74.6944237  69.0490770
  44.8001909  66.4662170  17.3209131  44.9629545  67.3631430  17.6129115
  44.0343571  66.1863518  17.8223169  54.5336628  23.8268709  11.7292309
  53.9118290  24.5349765  11.5614855  54.1413593  23.0597997  11.3121784
  49.3501854  51.6778517   7.9954123  48.5101223  51.9808960   7.6508993
  49.2087412  50.7515860   8.1909966  66.8553495  62.0120001  44.2345381
  66.0766315  62.0549536  43.6795807  66.6305017  62.5355387  45.0036812
   3.4296492  40.2826452  62.6170063   3.8279504  40.6974077  63.3822250
   2.5461924  40.6490660  62.5786448  43.4986734  61.1272144  51.7320156
  43.6710024  61.9294882  51.2391758  44.3329096  60.9213591  52.1537971
  23.4296823   3.7835497   3.2371128  22.9249001   4.5565972   2.9844818
  23.4932828   3.8400850   4.1905227  12.8364289  42.3461485  15.3506458
  13.6922133  42.2745275  15.7734168  12.4119782  43.0817652  15.7921672
   2.2607534  27.6026845  54.2451000   1.7462741  27.0585465  54.8413038
   3.1638330  27.4985647  54.5448303   4.9512193  52.0176077  19.7847068
   4.9310169  52.2997379  20.6991625   4.3939036  52.6472998  19.3274140
  83.9743042  40.4042912  21.0285187  84.6138191  40.1407862  20.3668427
  84.0862751  39.7694159  21.7360663  45.6317902  20.6393671  10.9147346
  44.8279810  20.9929895  10.5338502  45.8264112  19.8649240  10.3869176
  36.8001461  73.0835915  43.0102682  36.7836475  72.1329403  42.8997135
  37.6571321  73.2650042  43.3961391  61.9026232  66.8848896  27.6068187
  62.2596264  66.5588617  28.4329462  62.5941706  67.4426413  27.2505760
  42.8172922  62.5550270  10.5402207  42.6645803  62.5668573  11.4850867
  43.6215401  63.0602551  10.4212379  22.9657412  48.1586933  12.4310577
  23.5410905  47.5307703  12.8680003  22.0873427  47.7939701  12.5388646
  45.6551266  21.5321445  21.8003416  44.7238016  21.4463258  21.5966249
  46.0840607  21.5771604  20.9458137  76.0228014  79.7629929  51.1220598
  76.5413761  80.3461647  51.6763353  76.4300871  78.9037037  51.2314796
   5.0332934  48.7202978  46.7200184   4.1185147  48.9181948  46.9206429
   5.2541661  49.3119907  46.0007477  10.7590747   0.3496109  64.8557234
   9.9733335   0.4358093  65.3955507  11.2068272   1.1905310  64.9484777
  70.7767916  20.0738907  56.7357159  71.1255884  20.4932833  55.9491491
  69.9987650  19.6058667  56.4326286  44.4581461  37.9055476  10.1768112
  45.1261330  37.2226286  10.2371979  44.8249674  38.6431599  10.6642568
  61.0646391   5.8861917  52.0007324  60.9439039   5.3762382  52.8017330
  62.0136023   5.9229559  51.8809557  78.1867647  62.5112391  34.7681594
  77.7378750  62.1280003  34.0145922  79.0951395  62.2232962  34.6777272
   8.8060343  73.0568457  23.4589458   9.2057383  72.9315996  24.3196321
   8.3774662  73.9108467  23.5158730  53.9231157  49.4957495  51.5540695
  54.8076439  49.8615503  51.5481424  54.0044689  48.6803150  52.0487165
   4.8425952  32.3664021  22.2003007   4.8414931  31.6581893  22.8442454
   4.5752865  33.1407475  22.6954436  85.7843113  15.1586819  11.0937858
  85.2403641  14.4973457  10.6660128  86.6726017  14.9707735  10.7907021
  61.4202690  56.5964079   0.5303591  60.4684019  56.6967630   0.5408515
  61.6083431  56.0184431   1.2698284  73.2853985  52.8278017  59.1941881
  73.6242819  52.6063061  60.0615597  73.6821938  52.1817732  58.6098671
  35.2127504   3.4138381  18.7245512  35.9478760   3.5254842  18.1217611
  34.4512129   3.3022165  18.1554878  37.3235917  18.8137841   9.0774572
  36.5503621  19.3364072   8.8648218  37.1073842  18.3939910   9.9100798
  37.4486899  63.3529997  29.5217204  37.7111816  62.4582100  29.7377944
  37.9059863  63.8980055  30.1620960  80.0684643  37.7090311  51.8275833
  80.1490402  37.0584226  52.5250435  79.1438389  37.6829505  51.5813637
  57.3523712  78.0836725  37.9161072  57.3783207  77.2154713  38.3183312
  57.6879168  78.6713791  38.5930443  55.3375673  62.8190184  40.7550240
  54.7136307  63.1274414  40.0978994  54.9019814  62.0730495  41.1673689
  16.5342236   1.8118498  51.5970087  17.4425375   1.9629043  51.3355064
  16.0175335   2.0952897  50.8427382  78.3364630   9.8557413  59.9326754
  78.0580711   9.6723336  60.8299446  77.5209761   9.9019688  59.4335985
  64.6100283   1.6916549  54.4900274  64.4944859   2.1828699  53.6766434
  65.4771996   1.2945852  54.4089079  17.0040619  30.7162619  54.6906900
  17.1253049  30.5887341  53.7498045  17.8864336  30.6541729  55.0564766
  61.5204144  60.1877689  64.7977829  61.7018175  61.1115599  64.6247625
  61.7706442  59.7391748  63.9900827  71.6423655  46.5579700  15.5772078
  71.5349054  47.4459505  15.2363610  71.5767574  46.6564465  16.5270650
   7.0932877  16.0147214  11.0465193   6.2288642  16.3681412  11.2565148
   7.6701307  16.3775027  11.7187345  79.6992826  14.5564830  65.6342459
  79.2456722  14.2906904  66.4341354  80.4743671  13.9958000  65.6008673
  25.0248241  25.1585388  20.4230142  24.8794794  24.2464781  20.6745124
  24.2092156  25.4224467  19.9971414  79.7956705  81.1415672  54.3799067
  80.2091885  80.2798271  54.4312572  80.4858112  81.7539597  54.6346760
  52.0930386  46.1315584  42.2061014  52.9136276  46.4064026  41.7970467
  52.0062017  45.2076101  41.9715595  87.1419430   5.7893842  70.4437494
  87.8850842   6.3879937  70.3686762  86.4363384   6.3273954  70.8027697
  31.5087509   8.9426231  51.0726357  31.9666362   8.8645792  50.2356911
  32.2034693   9.1004837  51.7119169  36.5822077  75.2217150  17.6822364
  37.4505782  75.1701498  17.2828531  36.0984540  75.8319998  17.1256685
  17.7531183  42.6335669  10.7346678  18.2755554  42.0102310  11.2393892
  17.4288607  42.1267748   9.9901855   5.1863503  72.5430822   3.9173383
   4.5478436  72.4380159   4.6226767   5.1793230  71.7018843   3.4606403
  43.2143211  31.7757082  20.6698775  43.3519220  32.0683026  21.5708137
  42.4596357  32.2804785  20.3667402  31.4293194  57.2260380  56.9076204
  30.9403348  57.7396679  57.5505066  31.7801809  57.8758955  56.2986755
  66.8322039  45.5474520   7.3798221  67.5056601  45.1698112   6.8140692
  66.3848352  44.7903681   7.7578700  80.9329033  46.4610672  64.8058653
  80.3803635  47.1802807  64.4998312  81.8142223  46.6957140  64.5152521
   1.7248891  45.3209496  57.2528887   1.2158636  44.6368885  57.6878405
   1.8691336  44.9860382  56.3678694  64.0288782  35.8194709  68.1142950
  63.9645243  36.7571235  68.2956696  63.7041950  35.3986883  68.9103794
  40.5146551  35.9483314  55.3651762  41.3356543  36.4365482  55.3032351
  39.8831701  36.5835094  55.7028198  57.5680780  63.7350464  41.9229031
  56.7609882  63.5079241  41.4611197  57.2975636  63.8548851  42.8332281
   2.3868552  66.6354465   5.1517904   1.5486085  66.2112904   5.3352803
   2.8446645  66.6348553   5.9924108  59.7226381  76.0461903  48.0309772
  59.0636873  75.5948591  48.5585260  59.5401525  75.7705784  47.1326637
  71.6832399  39.2907476  62.2384930  70.8328867  39.0552425  61.8674612
  72.3123837  39.0790129  61.5488720  44.9093533  45.2591038  44.6522331
  45.6716871  45.6494045  45.0797176  44.5824146  44.6184874  45.2838612
  53.9015150  25.3540206  51.2910700  54.1473722  25.6032228  50.4001808
  53.8412285  26.1840677  51.7639542  54.5750999  80.6728840  65.5643702
  54.7938538  80.2600384  64.7289419  54.8082066  80.0186920  66.2231064
  70.3214025  41.6177511  62.3970938  71.1431789  41.1636305  62.5833511
  69.6452999  40.9530497  62.5285578  10.5419934  15.1068509  45.5285931
  11.2374747  15.2859843  46.1614084   9.7387528  15.3800642  45.9717560
  84.9511909  79.8095465  69.5410728  84.6915722  80.5872536  69.0471029
  84.1506672  79.5293474  69.9847889  40.7149506  71.7144537  16.1699557
  41.4166069  72.1445704  16.6587412  41.1697006  71.1671448  15.5297303
  26.4444852  56.5804148  27.6154327  26.1306310  55.6854391  27.4860311
  27.3663235  56.5503216  27.3594236  21.5350914  53.5211277   1.0663243
  20.8705854  52.9558754   1.4602172  21.0473561  54.0758848   0.4575596
  54.3196774  42.5827646  61.9062662  54.8529387  43.0074978  62.5781822
  54.6607065  41.6896296  61.8589783   1.2675828  11.0024083  70.5869102
   1.9816902  11.3456130  70.0497961   0.5029551  11.0248899  70.0115204
  86.1881828  13.8922930  41.3474607  86.4834690  14.5571744  41.9695330
  85.2334881  13.9086318  41.4146280  65.8237791  78.2730055  61.5070868
  65.3349733  77.7343225  60.8848953  65.3173065  78.2218885  62.3177099
  53.5517740  39.6211481  69.3399620  52.7225065  40.0980759  69.3728733
  54.1476440  40.1391840  69.8810768   3.2062414  27.2823882  41.3218164
   2.8779674  27.8630638  42.0083141   4.1453281  27.2145605  41.4942884
  42.0615578  66.0200119  67.0589972  42.1427631  65.3113270  66.4207172
  42.7700377  66.6243029  66.8373632  11.3581765  78.4470034  42.2146320
  11.9593263  77.7764130  42.5389099  11.1853135  79.0017557  42.9752874
  12.1431220   1.1354735  56.6725063  11.6140652   0.5249650  57.1859360
  12.2669661   1.8890211  57.2496223  37.6934838  54.3611956  26.8754005
  37.5949979  55.1254797  26.3075924  38.6367822  54.2920685  27.0225048
  42.0290136  16.8944907  10.8185124  42.9505777  17.0012128  10.5827975
  41.6620922  16.3597500  10.1144850  36.4803886  56.5797663  25.2467275
  35.8106089  55.9039450  25.3511000  36.1609817  57.1244526  24.5273328
  27.4783278  46.2692451  13.5447145  27.4476528  46.8152714  14.3303001
  28.0625439  45.5475616  13.7773037  20.6942868  15.6444204  25.6254125
  21.5597248  15.7061350  26.0296869  20.4840469  14.7109413  25.6508899
  20.2174234  34.0611792   9.0213108  20.1063561  34.8854208   9.4951493
  20.0626683  33.3837366   9.6796083  50.6407261  49.8715782  27.5924850
  51.4931393  50.0364208  27.1894336  50.0627708  49.6700621  26.8565583
  60.5585194  49.2634726  71.7199278  60.5674267  50.1741457  71.4252520
  61.1816120  48.8195038  71.1447096  44.7120762  63.6908150  50.5440617
  45.2460814  64.0247440  51.2648678  45.2950764  63.7101364  49.7851372
  69.5764875  46.1521196  60.3520727  69.0247965  45.8478785  61.0726976
  69.1593981  45.7997847  59.5658636  32.8936243  41.3324356  16.4658630
  33.6786056  40.9294891  16.8369019  33.2238579  41.9146824  15.7816362
  23.8141894  71.8458748  21.0061574  24.4240832  71.3406372  20.4685712
  24.3462706  72.5522757  21.3723755  16.8521774  55.5707169  23.5005927
  17.5645530  55.1501751  23.0190325  16.1220455  54.9553299  23.4339952
  67.2409773  54.5232248  57.8124523  66.6411638  54.1096544  57.1916342
  67.3078489  55.4299498  57.5131035  55.7651424  67.8883696  36.9458914
  56.3606644  67.4826002  36.3158631  55.0151587  67.2947693  36.9831872
  42.4256945   6.2180603  24.5344043  42.1295166   5.5215609  23.9484000
  41.6633987   6.4126402  25.0796366   5.7773191   1.0268732  52.0075369
   6.6956788   0.9866141  51.7406511   5.8024508   0.9649014  52.9623985
  34.5803666  69.9372387  32.1754861  34.1485739  70.1091480  33.0122852
  35.4921794  70.1900768  32.3200703  85.9254169  81.1393356  13.7459016
  85.1165009  80.6287003  13.7797558  85.6929016  81.9824219  14.1349626
  41.4143467  47.7458096  19.4964576  40.7398033  48.0367231  18.8827884
  41.0911274  46.9081402  19.8282266  49.4298315  48.5663080  48.7031031
  48.8048553  48.9622164  49.3104696  50.1965141  48.3709764  49.2418766
  32.9114580  46.4811087   2.3962764  32.1241665  45.9366894   2.4001524
  32.9784703  46.7988968   1.4958602  52.1987343   3.9302805  62.9902029
  51.4779282   3.3006442  63.0051661  52.7952433   3.6277893  63.6749697
  53.3080387  70.4617882  54.2113209  52.8154421  70.8470583  53.4866524
  53.3877516  71.1701822  54.8501158  69.9449396  68.7493563  50.3268051
  70.7737160  68.2731867  50.3780270  69.4559622  68.4627342  51.0981560
  44.1346312   1.5936783  36.9474292  44.0421677   1.2381381  36.0635328
  43.8855886   0.8709834  37.5235534  29.5308137   3.5595036   3.4419543
  29.5850229   3.6852610   4.3893075  28.5933590   3.4849307   3.2634938
  69.3239975  67.7843761  63.8889265  68.9525175  68.6222172  63.6127758
  70.1006365  67.6742744  63.3403492  81.5854931   3.4025604  53.5842180
  81.2268066   4.2267120  53.2550430  80.9899139   3.1464538  54.2884398
  60.3643703  56.4525700  58.1456327  60.6698322  56.5158796  57.2406960
  60.3749943  55.5147457  58.3369541  78.9842606  65.1578760  69.8746395
  79.5682335  64.6610308  70.4476643  79.2100763  66.0735369  70.0383472
  39.7661686  16.9346917  14.8630762  39.6671128  17.8346992  14.5525813
  39.1439056  16.4305902  14.3387651  39.3740654  64.0344572  39.0426636
  38.5613608  63.9071608  38.5532355  39.9399137  63.3167505  38.7581563
  10.8966482  57.2500992  18.2868898  11.3007033  57.2076941  19.1535926
   9.9557650  57.2146749  18.4592736   6.5402514  43.7808990  42.4625635
   5.6178123  44.0359306  42.4797916   6.9807667  44.5052910  42.0182228
  73.1838560  55.9413147  41.7834854  73.4031200  56.7583942  42.2312975
  72.3589611  56.1278105  41.3351536  51.5999222  60.0549221  48.3027124
  51.9384623  59.6404505  47.5090933  52.3207712  59.9962473  48.9297390
  55.4176283  67.2719145  33.5232067  54.7064924  67.2545528  34.1636872
  56.0585737  66.6457844  33.8599324  36.4365458  66.7755938  55.0929260
  36.0368061  67.2919035  55.7928276  36.0209012  67.0952845  54.2921352
  60.3592110  37.9051471  42.2637749  60.3737450  37.7288508  43.2044888
  59.4296026  37.9813147  42.0487022  61.3596010  74.9454594  59.2968845
  61.9523191  74.5448828  58.6609173  61.5193748  75.8855963  59.2141151
  57.4510670  56.4245796  69.5304775  58.0237341  56.8461800  68.8897467
  57.4422836  55.5025005  69.2737055  53.7031698  50.9251022  56.2347698
  53.5052347  51.6620255  55.6568480  54.1196728  50.2787733  55.6646681
  71.9508123  73.7705231  46.2717390  71.3423347  74.4624996  46.0125780
  71.9736385  73.1778908  45.5204058  81.3030148  50.9225512  54.5476484
  82.1823215  50.6541109  54.8140860  80.7261944  50.2541208  54.9173832
   7.8820020   1.1628053  37.4061894   7.3212051   1.6482434  36.8011379
   8.2428956   0.4501466  36.8788314  63.8291979  40.8160830  45.5081701
  64.7087288  40.9668875  45.8544540  63.3401918  41.6041422  45.7449532
  78.2402658  45.3107834  52.5961590  77.3983192  45.6618357  52.3061323
  78.0524063  44.9072552  53.4435701  64.8439884  68.2778311  47.5145817
  65.6356287  67.8086567  47.7780485  64.1629362  67.6055479  47.4935961
  76.3308239  79.0365458  46.0692883  76.3871050  79.4450903  46.9330883
  75.5173540  79.3761730  45.6962538  39.0151834  59.9478865  41.2745047
  38.5154605  59.1743660  41.5356207  39.6622062  59.6161270  40.6519842
  62.9358292  78.5785961  38.5698509  63.2208633  77.9484749  37.9080892
  62.6489592  79.3408394  38.0669332  44.6940088  74.0789938  17.8285849
  44.5788717  74.5987463  17.0330787  45.0475979  74.6963453  18.4689593
  83.3028126  19.6541846  39.3844652  83.9913368  20.2907896  39.1923690
  83.7713337  18.8854921  39.7097874  58.2140303  64.5126915  49.6093559
  57.4383926  64.0464878  49.2974758  57.8710508  65.3230095  49.9861574
   7.6983893  16.3658965  51.8779707   7.7123427  16.5289748  52.8210735
   8.3515930  15.6791663  51.7439604  16.3969290  23.6103868  35.9189010
  16.1081314  22.7101254  36.0684252  16.8734825  23.8444567  36.7153549
  25.6894946  57.1092796  53.5565329  26.0141015  56.5487671  54.2612934
  24.7940922  56.8074608  53.4036016  23.7618995  22.6789546   6.8503666
  24.1163611  23.4214282   7.3395717  24.1943216  22.7255559   5.9976822
  34.8360586   9.1169620  71.3673735  34.3984175   8.9527166  70.5320740
  35.0206161  10.0561762  71.3604641  11.0408151  10.2624464  38.8251662
  10.2090359  10.7275558  38.9148760  11.7033410  10.9532869  38.8307166
  77.5730658  74.0510750  55.3690958  77.6700783  73.1636381  55.7144594
  77.8943157  74.6175480  56.0706234  73.0877876  60.8624601  63.8698292
  72.2060061  61.2095547  64.0047979  73.1967068  60.2097225  64.5614243
  73.0579853  59.9400997  53.1638813  73.1943417  60.7953691  53.5715055
  72.8836870  60.1383448  52.2438002  18.6996675  73.4400082  47.2114897
  18.2755840  74.2781162  47.0271921  19.4651818  73.4274817  46.6369772
   8.3673483   2.7253062  52.7204752   7.6771969   3.2666600  52.3372555
   8.6039603   2.1113375  52.0252848  71.4177513  37.9622889  39.4475436
  71.0890245  37.1258330  39.7769547  70.7212973  38.2848215  38.8755631
  24.9236274  23.1363082  61.4922905  25.2986288  23.7914824  60.9037733
  24.0035510  23.0811119  61.2341309  33.6854768   2.5278431  56.5144300
  33.2436180   2.3061159  57.3340797  34.2588401   3.2598117  56.7418194
  12.9778504   9.4149721  67.7052402  12.6579225   8.7581724  67.0867825
  12.4220264   9.3079287  68.4771442  65.7620573  66.8866682  42.6724100
  65.3023100  66.3930845  43.3515549  66.5225410  66.3466835  42.4571943
  33.1643367   2.3789616  61.2647629  32.7898335   2.9553026  61.9309568
  32.7665854   1.5252414  61.4356089  50.6123352  81.4508724  71.1778355
  49.8013210  81.9577503  71.1381960  51.0257721  81.7241192  71.9967556
  64.9764919  76.2877893  45.4797125  64.6635056  75.7995987  46.2412500
  65.9176159  76.1148930  45.4546213  51.6074133  45.0046873  63.3424330
  52.3895454  44.7724819  63.8430119  51.5693617  44.3535566  62.6418543
  37.8369608  41.4161894  -0.2031631  38.2404396  41.9457071   0.4846220
  36.9020739  41.4292417   0.0018911  66.6629601  82.1812725  53.6183405
  66.7585611  81.2667656  53.3522987  67.5348186  82.5578594  53.4988785
  30.6836677  29.8888159   5.4314977  30.9949017  30.5731702   6.0239691
  31.0567069  30.1204944   4.5809686  52.9135513  25.0622487  56.4355040
  52.5915718  24.9461389  55.5415916  53.7665367  25.4835773  56.3300085
  22.0661283  13.4173536  58.3724737  22.5298357  13.9063990  59.0522099
  22.7528024  12.9297173  57.9175901   9.5630401  20.4280448  63.5409641
   9.0357482  20.7837653  62.8256655   9.2905146  19.5128560  63.6072445
  16.5146482  48.5961056  18.7773061  17.1951365  48.5523081  18.1055546
  15.7058144  48.7502575  18.2891905   4.0282780  79.5390797  32.1168566
   3.7224922  80.3477097  31.7059541   3.8949016  79.6813202  33.0539846
  61.3110828  35.8255768  70.3417778  60.7635641  36.4553237  69.8728704
  60.7365751  35.4648972  71.0171223   6.5122545  75.1284266  18.3766925
   5.6461900  75.2435780  17.9856634   6.8304205  76.0196304  18.5207558
  34.1599488  45.4627323  26.7559290  33.3648753  45.7420540  26.3019800
  33.8471222  45.0941610  27.5820804  81.0833549  65.8853292  38.7213588
  80.2097225  65.5591297  38.5055089  80.9251785  66.6171837  39.3176818
  43.4528971  59.8191166   6.5345192  44.3809843  59.7079515   6.7407376
  43.2677460  60.7334328   6.7489362  58.0790043  36.9862461   6.5878981
  57.1473837  37.0843959   6.3912266  58.1174088  36.9278407   7.5425428
  87.8332126   8.0923587  58.2821560  87.2862450   7.5055659  57.7599192
  87.3971703   8.9423984  58.2227278  16.4713871  24.3443537  54.0713310
  16.6199958  24.2101336  53.1353092  16.2459123  23.4759831  54.4049835
  11.9680083  50.6940937   2.4048048  11.1247694  50.9903145   2.7474907
  12.1056378  49.8394156   2.8132397  17.5741923   6.5789747  38.7121797
  17.0923698   6.8185186  37.9205370  18.4422231   6.9633901  38.5897875
  72.2761202   3.5378438  60.1047134  72.7401495   4.0533963  59.4450808
  71.8435955   4.1890937  60.6570053  86.3925076  80.6888962  45.8934116
  86.5298939  81.3058090  46.6122866  85.5519104  80.9459591  45.5145407
  44.7897339  10.4865503  31.1291695  44.1506577  10.9259295  30.5681372
  44.2818117  10.1905358  31.8845630   9.6305054   9.3612438  50.9913445
   8.8535333   8.8374877  51.1868572   9.3818498  10.2553558  51.2257910
  56.6840696  52.7925682  35.2079248  56.9862795  52.5583172  34.3304133
  57.3181152  52.3833609  35.7967901  83.7759590  64.3322706  50.4555941
  84.3509102  65.0921392  50.5465031  83.8002396  63.9094830  51.3140154
  66.5837908  51.0776186  48.3253384  67.5193357  51.0224056  48.5201168
  66.4969254  51.8656111  47.7889061  12.6573145  66.9214535  38.9637566
  11.9494402  67.1835327  38.3751488  12.9166639  67.7318525  39.4021893
  18.0964077  18.0406582  19.5229435  18.7983179  18.2761693  18.9162409
  17.9507530  17.1070647  19.3699062  55.4923248  51.1163473   6.4736593
  54.5920706  50.7973814   6.5371919  55.9864998  50.5603313   7.0760471
  72.8945684  16.1087108  56.2752628  72.8425980  15.7629716  55.3841972
  73.4581280  16.8788421  56.2008619   5.0565881  71.7066383  63.3636427
   4.8599687  72.6388454  63.2710981   5.8054358  71.5612507  62.7854395
  56.3149834  19.0653658  44.7689533  57.1167517  18.7250268  44.3720007
  56.6205978  19.6509409  45.4617262  50.4363298  39.2223644  18.3291757
  50.8539200  39.7491026  17.6477087  50.5125332  38.3211637  18.0157137
  15.6237233  31.3319826  27.3460674  15.4111183  31.2196040  28.2725692
  14.8415995  31.7338419  26.9678879  39.8138547  12.7135825   1.2048266
  38.9947891  12.3001909   0.9319381  39.6140814  13.1016266   2.0567323
  24.6531916   6.0908026  25.1081538  24.5561910   6.0320872  24.1576934
  25.4827785   6.5508050  25.2362800  42.8882647  71.3638163  65.8484364
  42.4280262  71.9742584  66.4244366  43.4874773  71.9149876  65.3450680
  19.3263280  26.4094710  67.3254395  18.8657200  26.7094660  66.5418100
  18.7961352  25.6821442  67.6512003  59.6602821  53.8633347   1.4282799
  60.4689026  54.1828012   1.8286636  59.9533701  53.3281565   0.6907721
  19.4181943  76.7501593  16.1634743  19.3070793  75.8040619  16.2571824
  19.7932553  76.8619108  15.2899349   0.2465115  28.7626410  37.9264140
   1.0857526  28.4788036  38.2888269  -0.0939172  27.9893708  37.4765325
   2.2748610   4.3734381  22.9421926   3.1674945   4.1529804  23.2083440
   2.0815292   3.7672427  22.2270823  35.1960135   6.7096227  29.5492411
  35.4104114   6.6325980  28.6195445  35.8303976   7.3403007  29.8898816
  25.8150363   9.4062096  45.6580591  25.5062032   8.5038376  45.5769539
  25.5658770   9.8198324  44.8315811  62.5734282  75.5211020  14.4609880
  62.2511435  74.6298885  14.3264353  63.5267067  75.4352903  14.4499278
  72.8275681  55.3645992  57.8182650  72.8186274  54.6204233  58.4202242
  73.3611250  55.0694227  57.0804214  43.3958292  70.4976845  69.9224329
  43.2112360  70.5220985  70.8613491  43.5002327  69.5673370  69.7229719
  21.9122267  12.5339985  50.1413488  22.7230024  12.4938607  50.6485605
  22.1243548  12.0984542  49.3157959  72.6456165  67.4798012  50.8412695
  73.0302572  68.3514977  50.9331131  73.0894184  67.1009111  50.0825119
  83.8956261  70.5437136  30.9573722  84.1580486  71.0508204  31.7256212
  84.2927742  69.6831560  31.0913301   7.9714191  71.4695072  62.7050686
   8.3166248  70.6690264  62.3097277   7.6996851  71.2047148  63.5838604
  36.3857174  78.2872963  22.5948167  36.0907364  79.1932631  22.5029397
  36.2310219  77.8966522  21.7347598  12.7899253  69.4397783  36.9646311
  12.5528157  70.1198435  37.5951266  12.5964129  69.8267841  36.1108088
  23.7134480  24.0775228  51.5397739  24.0097475  23.4101105  52.1586418
  23.2729483  23.5839748  50.8479595  61.6028929  74.8355865  44.8895788
  61.8283606  74.1376781  45.5046558  62.1450281  74.6611786  44.1202259
   4.1308302  58.7388182  33.4114909   4.2884916  59.6822214  33.3745217
   3.6948025  58.6016273  34.2524981  65.5903673  82.0741081  39.5647597
  64.7008419  82.4238014  39.6165490  65.9344864  82.4160576  38.7396026
  24.0902352  52.0784616  39.6604276  23.7822080  52.2248650  38.7660456
  23.7223697  52.8056717  40.1624966  57.7481270  57.6131582  48.0859232
  57.1844816  58.2197046  48.5661697  57.4491405  57.6756096  47.1787643
  66.8258762  82.4131203  56.4728689  67.1686506  83.3012199  56.5729570
  66.8737602  82.2424984  55.5322170  75.8429146  64.5061684  52.0703316
  75.0105524  64.8736477  52.3675919  76.4148617  64.5583582  52.8360844
  53.5548019  50.9864616  17.8510308  52.7486467  50.8206177  17.3623097
  53.9711285  50.1277065  17.9247999  52.8171635  44.7431517   0.9913851
  52.7048779  45.4897451   0.4029785  53.6426592  44.3438673   0.7168607
  19.7923517   5.9337246  66.2498474  20.7152104   5.6821781  66.2139797
  19.3692255   5.3872162  65.5876350  48.4622431  65.8028698  56.7102766
  47.6592541  65.4710102  57.1119118  49.1034937  65.1050949  56.8449593
   3.3155471  24.2365575  41.0427570   4.1633192  24.5839071  40.7655144
   2.7991506  25.0120592  41.2622213  64.2064953  66.7213583  69.7745800
  64.1476488  65.7788754  69.9310732  65.0150394  66.9868803  70.2127457
  64.6575928  29.5320821  37.7104974  65.3072929  28.8894415  37.4256539
  65.0538969  29.9508119  38.4745908  21.1915588  23.7393236   7.3285025
  22.1478438  23.7301469   7.3693174  20.9911489  23.6826253   6.3942367
  27.8861165  20.7069397  28.4573603  26.9495845  20.5333495  28.5522509
  28.2594490  19.8671699  28.1897044  28.4933758  36.6763496  11.1137378
  28.1264281  35.8303809  11.3704765  27.7410150  37.2677946  11.0942864
  54.3034077  72.0941114  60.0474548  54.1666555  71.1646557  60.2308989
  54.9255657  72.1056795  59.3201160  71.8746424  25.2450395  57.4062109
  71.7626333  26.0274887  56.8663406  72.3674297  24.6400476  56.8517923
  17.2911525  12.3374844  23.7909389  16.9796050  13.0176306  24.3880749
  16.6167116  11.6592407  23.8276553   5.9680176  14.2718899  50.6236410
   5.6976295  13.6252737  51.2755680   6.9185483  14.3277621  50.7216263
  55.9173107  24.0876055   8.7532061  55.8544064  24.9848652   8.4257919
  55.6384516  24.1459990   9.6670222   4.7879344  27.3598409  55.8669806
   5.1282966  28.1861401  56.2099314   5.5496413  26.9301009  55.4779339
  29.8307920   2.7202067  24.2657924  30.4327893   3.2050782  23.7012291
  28.9613676   3.0264267  24.0078020  33.0502248  59.6444225   3.7602848
  32.6433969  58.8116026   3.9993238  33.9479589  59.4128370   3.5222274
  70.9998512  53.9527655  54.6329832  71.1761427  53.9079046  53.6932278
  70.0605631  54.1272306  54.6924067  72.3432922  60.4328156  71.0357571
  72.1356392  61.2871170  71.4142799  73.2094526  60.5481291  70.6449890
  18.5416377  13.6917627  46.2480497  18.7634850  12.8098118  45.9494209
  17.8514802  13.5581315  46.8977118  64.1907740  69.6024418  36.0027504
  63.7115049  69.6857214  36.8271279  64.1624689  68.6668062  35.8027124
  10.7673204  55.1923132  35.7375550  10.2405214  54.4706726  36.0809875
  10.4544806  55.9634638  36.2105131  62.9335785  80.7075500  50.7539225
  62.3657942  81.2903595  50.2497625  63.0073929  79.9199152  50.2150202
  14.4467354   4.3647107  42.3005676  14.4378781   3.4475902  42.0266294
  13.6763918   4.7475293  41.8807411  72.1261597  63.5029650  58.3724976
  72.3545361  63.4763718  59.3016768  71.4034462  64.1285038  58.3212996
  74.2191792  61.5412092  69.3326616  73.9351988  61.9039631  68.4936190
  74.9965000  62.0501471  69.5628452  16.5537548  72.6619816   1.7000987
  16.1687839  71.9497061   2.2106761  17.3898876  72.8404713   2.1305132
  83.8603306   5.4623765  56.1618328  84.0713978   4.7949350  55.5089903
  83.3361435   5.0002617  56.8159771  85.7697105  25.4730701  27.4136639
  85.1124763  26.1081266  27.6982260  85.4556656  24.6349669  27.7530622
  44.9552059  58.2557631  32.0545769  45.6334734  58.7457561  32.5194335
  44.5581627  58.8968277  31.4649773  14.6097243  58.7965727  48.3113146
  14.0841806  58.7437534  47.5130367  15.2843285  58.1269026  48.1986904
   4.3255565  47.2245455  49.4248009   4.5437235  47.7465725  48.6527109
   3.3705011  47.1622944  49.4097805  66.0647917  30.9820294  34.2313600
  66.4659882  31.0886264  35.0938630  65.3726816  30.3349662  34.3674588
  86.6310406  57.1318150  51.2825727  86.9087124  56.2580633  51.5576935
  86.8109703  57.6896620  52.0393181  65.5801296  76.0935402  56.6684008
  65.3887033  75.3584528  56.0859632  64.7978592  76.1771202  57.2136450
   7.6923096  51.8646955  67.7700233   8.6064368  52.0941973  67.9371548
   7.2174060  52.2052670  68.5281229  77.3571301  70.1717043  64.4578981
  76.8651819  69.9949217  65.2597523  76.9924402  70.9934902  64.1294241
  24.5269895   6.9212568  59.7829723  23.6101055   6.9401252  59.5087433
  25.0108218   6.7033952  58.9863062  51.2903500   9.5715618   0.2893403
  50.4785872   9.0935421   0.4589620  51.6147280   9.2079604  -0.5345553
  84.7765446  24.2381310  21.2542462  84.2000484  23.4864497  21.3915634
  84.2004108  24.9987864  21.3297272   5.0882030  55.9673166  13.2565641
   5.7924604  55.4051590  12.9337180   5.4301280  56.8565750  13.1641364
  86.0109425   9.1173005  65.0456476  86.4497852   8.3015347  64.8044634
  86.7158413   9.6859574  65.3554392  31.4761162  24.1640115  70.0501633
  31.4191151  24.9026155  69.4439888  31.2087274  23.4061861  69.5301294
  78.2213593  73.8086224  69.0588808  77.7809429  74.5795918  68.7012863
  78.9173317  73.6172390  68.4302139  74.0163612  57.8357697  57.6410866
  74.4046021  58.1003857  58.4750414  73.7419653  56.9295502  57.7814627
  21.8060923   2.4327129  42.7265882  20.9228158   2.7955264  42.6601028
  21.7902637   1.6590407  42.1631908  41.8238211   3.2336846  66.8392324
  42.1149445   4.1098788  66.5867233  42.5644875   2.6651791  66.6284180
  43.5055876  69.7129488  47.4599218  43.9530039  70.2422667  48.1201267
  43.4433651  68.8423347  47.8528500  87.8282166  44.1176033  33.8840508
  87.7766228  43.2181406  34.2073727  87.0453072  44.2231083  33.3435369
  48.2239246  80.9288406   2.4469315  49.1372585  81.0677242   2.6974562
  48.1745577  81.2357807   1.5416229  80.4640102  12.1483159  63.6187649
  79.6348047  11.6704094  63.6029530  81.1116600  11.5145075  63.3104324
  65.4983807  36.5058851  50.1993704  65.5185127  37.2631741  50.7844734
  65.0527954  35.8252645  50.7037926  51.5114880  48.3088589  12.8129292
  52.0423841  48.2157946  13.6039531  52.1221113  48.6344290  12.1515834
  78.0727339  72.5248146  42.6659632  78.4095383  72.9888296  41.8994856
  78.7648439  72.6112270  43.3215141  18.4448922  39.8649335  67.8329802
  18.6312234  38.9260650  67.8267431  17.5762534  39.9340987  68.2291031
  68.0333757  14.0669096  53.2931805  67.8871536  14.5401573  52.4741030
  68.4297132  14.7142589  53.8763523  56.8584347  30.0782561  11.0234416
  56.4542723  29.6765208  11.7925251  56.2867117  29.8320556  10.2962911
  36.4176655   5.8635354  15.4886353  36.5970755   6.7364490  15.8380139
  35.5115867   5.9092867  15.1834106  29.3342757  50.3490067   1.7054951
  29.0463138  49.4418907   1.6032724  29.5419288  50.4309320   2.6363015
  53.4570837  71.8296385  39.3014741  53.5642147  71.0973930  38.6943746
  53.0614281  72.5228691  38.7731552   1.0202972  74.5487022  70.8026552
   0.3598404  75.0784349  71.2492085   1.0659526  74.9167156  69.9202108
  45.6744289  46.8129301  42.6081181  45.3736877  46.3402891  43.3842611
  44.8752546  47.1692181  42.2200394  14.8792493  11.4995682  55.4734659
  15.0923121  10.9001327  54.7582674  14.2390358  11.0234749  56.0023260
  14.2946672  64.2840528  25.2914381  14.7431254  63.4389448  25.3215647
  14.7234905  64.7574759  24.5785475  69.7077990  27.1218348   1.6196001
  70.4719257  27.1915460   1.0473432  69.0083694  26.8055558   1.0477583
  18.3031893  12.3200405  64.6714592  18.0744684  12.1717465  65.5890226
  18.1178844  13.2476938  64.5253325  36.1379004   4.5311335  71.0386419
  35.8137560   4.0868318  71.8220711  36.9134808   5.0065148  71.3365030
  81.3413143  78.8358593  27.3021984  80.7948971  78.0882788  27.5446463
  81.4386940  78.7634277  26.3527226  54.6712494  69.0841198  51.4348507
  54.9217081  68.6065483  52.2256899  55.3882074  68.9240074  50.8211994
  55.6775236  34.2094660  58.1908560  56.5238142  34.6543622  58.2366371
  55.8748007  33.3593559  57.7976322  11.2525117  32.8833675  55.1271963
  10.7616174  32.1635771  54.7307682  11.7643237  32.4699211  55.8224249
   7.0200163  29.6318531  11.1159408   7.8472483  30.0970745  11.2403905
   6.7465079  29.8628640  10.2282143  22.5019503  28.9001727  10.4859626
  22.0221162  29.0401125   9.6696246  23.4018731  29.1541696  10.2813804
  15.9868121  18.7558246  13.9843750  16.7058384  19.2180634  13.5535979
  16.4174938  18.1705987  14.6074772   7.2931820  11.7400503  20.9686089
   7.8180027  10.9757435  21.2065816   6.6873664  11.4164352  20.3019071
  85.7755661  82.2410774  41.4663792  85.1038265  82.7369595  40.9983015
  86.3512993  81.9086266  40.7777357   1.3097347  64.8048973  36.7616653
   0.7365772  64.5716858  37.4919629   1.5159661  63.9693022  36.3427591
  25.0633121   0.2007295  28.7848401  25.0567389   1.0515541  28.3463359
  24.3671012  -0.2957818  28.3547258  25.5227399  22.2170615  40.8846951
  26.2959099  22.6903439  40.5773830  25.4353952  22.4717832  41.8032408
  29.3345380  12.9205477  53.3563614  29.6935844  13.2128930  52.5185919
  29.1963339  11.9802284  53.2426548  85.7495022  37.7474546  10.9781551
  84.9783897  37.4457359  11.4583457  85.6650066  38.7008119  10.9640539
  27.0410061  16.3581216  12.4251747  27.6304865  15.6362545  12.6434672
  26.9485593  16.8474293  13.2426488  67.3691130  21.1021662  68.0899239
  67.8985453  20.3358173  67.8693581  66.8758011  21.2903166  67.2915030
  14.6937633  30.7149386  46.6438389  13.7787879  30.9761047  46.5397024
  14.7993958  30.5828333  47.5859737  87.7038346  57.0891428   6.4514071
  88.2193847  56.6630363   7.1361530  86.8896777  57.3417759   6.8867886
  49.6865082  53.8954639  65.5074739  50.3853703  53.2545996  65.6383133
  50.0758743  54.5623302  64.9418640  60.1308870  35.7384825   5.4735494
  59.3460369  36.2375832   5.6996971  59.8425198  34.8257542   5.4733610
  72.9009724  70.0337791  57.5407028  73.7101936  70.5447721  57.5239801
  73.1921577  69.1227436  57.5025272  69.3893242  26.6744518  10.1457977
  69.8983192  25.9183908  10.4382420  68.5026312  26.3343859  10.0259495
  39.0836501  70.6812906  63.9170599  39.3991494  69.8544121  64.2816925
  38.1877947  70.7611799  64.2446136   2.1164952  70.9060144  36.6834497
   2.5776941  70.1134682  36.9580388   1.7257395  71.2466860  37.4881148
  49.0835190  45.8585167  53.5852385  48.2049799  46.1571550  53.8202095
  49.5997810  46.6618252  53.5188437  38.4980965   9.9751353  46.4722300
  38.7180901   9.8579842  45.5480480  38.2247996   9.1058975  46.7654324
  80.8461857  67.7348328  26.1472917  81.6543484  68.2467318  26.1146688
  80.9637165  67.1490765  26.8951583  60.4299831  55.6106186  41.5134287
  59.8888493  54.9453449  41.0881996  61.0589600  55.8731985  40.8413649
  63.0383539  69.0138578  59.1186380  62.0879078  69.1189909  59.1614866
  63.2405710  68.3806562  59.8074055   4.0217978  58.3486366  60.0619364
   3.2971725  58.7927628  60.5022812   4.3212673  57.6947594  60.6935930
  87.0049381   1.7655174  63.9541769  86.7938900   2.4649580  64.5726204
  87.2361183   1.0189011  64.5067644  63.8101912  79.0046453  46.1837292
  63.9986944  78.2097435  45.6849003  62.8887272  78.9207077  46.4288664
  80.9219551   6.6369933  13.1317413  81.2859249   7.0087230  12.3282671
  81.1809826   7.2512728  13.8186157   3.2286569  81.4844513  38.6488843
   3.5570842  81.2541771  39.5179892   3.9386690  81.2448692  38.0533075
  54.7723007  35.4096293  14.6265340  54.7756147  36.1741877  14.0506279
  54.1390371  34.8124957  14.2282379  60.8478212  60.4499483  18.5289657
  61.4338017  60.2029467  19.2444038  60.7742023  59.6585417  17.9955888
  45.1485968   7.0421422  59.7469425  45.0136662   6.1010003  59.6361399
  44.7067642   7.4375570  58.9955044   6.6747135  58.3683729  19.7040451
   6.5405476  58.3507204  18.7564588   7.6010472  58.5845661  19.8108029
  15.3925896  27.5425959  37.7934551  15.6269157  27.3065901  38.6910224
  14.6176386  28.0967665  37.8860593  32.4647260   3.0309305  40.7803392
  33.3860397   2.7760506  40.8298540  32.1122551   2.8245139  41.6460085
  13.4099627  56.9252300  56.0091591  13.9803195  57.4745417  55.4714012
  13.1058633  56.2404585  55.4134703   5.4354209   2.3820573  26.6592908
   5.1852471   3.2615992  26.3763571   5.8017451   1.9733292  25.8750844
   2.3950210   1.8221864  59.8321009   2.9738164   1.2796426  60.3677082
   2.6217711   1.5961277  58.9300394  37.9699945   5.9236366  12.2648931
  37.6266074   5.0693351  12.0031965  37.1994638   6.4139235  12.5514805
  29.9765038   8.4555185  25.7916021  29.6017265   8.2297057  26.6429424
  29.4246864   9.1676968  25.4682875  85.2829075  15.9556377  23.6922050
  85.1282120  16.0590160  22.7532625  86.0194016  15.3467953  23.7480044
  28.7937021  73.6824322  42.5046062  29.2734480  72.9943562  42.0434856
  28.5968471  73.3040857  43.3615398  53.6406565  42.1895170   2.0302996
  53.3114052  41.7344141   2.8053522  53.4922314  43.1167459   2.2159046
   3.5918596  67.4162388  56.1061335   3.3406481  67.4689341  55.1839876
   4.3233770  66.7990541  56.1202002   6.0856795  27.2793317  47.0689583
   5.7414246  26.4717627  47.4504757   5.4630899  27.5015855  46.3767052
  56.8006754  22.4624538   0.6457904  55.8485460  22.3657632   0.6275634
  56.9699621  23.2608008   0.1455747  75.7844639  45.7958031  30.1041722
  75.2075911  45.0372028  30.1934314  76.0404205  45.7948542  29.1818261
  46.8279552   9.6822321  39.6446633  47.4282742  10.3460264  39.3052149
  46.7000771   9.0783781  38.9130640  38.5675907   1.7191152  30.6366944
  38.1212640   1.8618146  31.4713550  38.1539106   2.3380315  30.0349927
  21.0384417  79.0510559  47.9299021  21.6632295  78.3553314  47.7253580
  21.2057638  79.2607021  48.8487530  81.0892487  38.8839841  30.3494334
  80.4107475  39.3572378  29.8678780  80.8255005  38.9549184  31.2668419
   9.0633076  67.4367857  50.9190273   8.5254121  67.1974707  50.1642895
   9.9478787  67.5255394  50.5642176  52.6548958  62.0272398  53.9891052
  53.1717873  62.1917057  54.7777796  51.9655275  62.6909304  54.0118170
  70.7369137  49.6374798  46.4457893  70.9017277  49.5011139  45.5127954
  70.3351736  48.8200092  46.7400265  13.5361469  66.5605879  16.7598438
  13.9418089  66.4048433  15.9069586  14.2042708  66.3003206  17.3939610
  11.6497421   0.0295806  36.6312480  11.3355350   0.9051922  36.8566585
  12.4683285   0.1829596  36.1594176  45.1587296  37.5215936  67.0254326
  45.5098629  37.0045161  67.7503967  45.7345629  37.3213863  66.2874889
  43.4777498  12.5847197  38.0789280  44.1677999  12.3717010  37.4506903
  43.6496353  12.0124280  38.8267040  36.7435503  32.2950482   0.9851842
  37.3193026  31.5863323   0.6980205  36.3936543  31.9944477   1.8239002
  24.7013354  31.8119740  62.2365427  25.2406240  31.0937023  62.5674248
  24.3709302  32.2455454  63.0233622  39.2143202  14.9259198  48.8084316
  38.4554958  15.3806126  49.1740417  39.9204326  15.0995982  49.4308996
  65.4480457  19.9445891  41.1392927  64.5375156  19.6913111  40.9875727
  65.5359507  20.7934451  40.7057571  80.8786964  59.1499376  29.2527962
  80.5465221  58.8456583  28.4082198  81.7544270  58.7689114  29.3170977
  47.1645784  45.0758028   9.7034365  46.5321970  44.6209049  10.2596700
  47.4992847  45.7852364  10.2519846  24.6495271  14.9911082  38.0289721
  25.1128817  15.4883480  37.3549628  24.8900127  14.0797603  37.8621078
  13.0578125  72.2624159   9.4001883  13.6861873  71.6515350   9.0152180
  12.5260043  71.7222977   9.9847287  15.6168568  66.5696335  71.1604071
  15.7450616  65.6231880  71.2239408  15.5521321  66.8640852  72.0688868
  87.1579170  78.7328720  26.5487504  86.3155079  79.0450668  26.8790674
  86.9384289  77.9657936  26.0199285  70.1480389  25.6257010  14.6228921
  71.0039473  25.2072096  14.7152090  69.6074200  24.9705124  14.1816580
  72.7692318  74.7911882  24.2066073  73.0337286  75.6640100  23.9159966
  73.2945204  74.6303272  24.9904633  44.2741632  27.0369220  17.6734054
  44.3406820  26.0890412  17.7888501  44.5770311  27.1910572  16.7785609
  29.1229630   5.0529629  31.4702058  29.3327188   5.9738249  31.3144922
  28.9836955   4.9955639  32.4154782  33.8950443  17.4721980  38.5701394
  33.0050921  17.5372827  38.2237577  33.7804532  17.4369144  39.5198011
   5.9403443  66.5471268   6.9991928   5.8298528  67.0364904   6.1839974
   5.0736409  66.1829472   7.1792829  78.1425953  41.0472155  38.4450102
  77.4594927  41.0092449  39.1144609  78.7978983  41.6448259  38.8051081
  67.2335672  27.1471143  34.6176767  68.0091286  27.6617360  34.8410702
  67.1244335  27.2751379  33.6753750  40.3053665   3.7068495  46.1932707
  39.5452118   3.4658948  45.6638002  40.4246902   2.9687041  46.7908812
   9.4735432  75.0224829  43.4982109   9.4469219  75.7258272  42.8494978
   8.8828021  75.3144884  44.1924620   4.8252469  71.9774914  66.7104626
   4.3362156  71.5188932  67.3936653   4.1683787  72.5104666  66.2624741
  19.7345662  76.0869884  27.4187970  19.4381297  75.6699514  26.6098237
  20.2968144  75.4326630  27.8334808  15.4893279  28.3046865  40.5718088
  15.7298291  27.4932837  41.0190439  14.6501017  28.5523748  40.9598589
   7.5955701  75.8164501  45.4978657   7.4036199  76.6574192  45.9127903
   6.7495596  75.3704739  45.4578638   5.6564879  56.8290997  42.4313021
   5.3143811  57.7230310  42.4225664   6.4252436  56.8723917  42.9999590
  12.9861450  18.6413693  20.3283644  13.7871468  19.0875685  20.6031990
  13.2891965  17.8143454  19.9536359  50.4238653  21.1864161   3.5142422
  51.3547277  21.0699797   3.7044284  50.1085138  21.7663980   4.2073536
  19.4711339   4.0768546  45.1679277  19.0362895   3.3636069  44.7005701
  19.8685658   4.6080920  44.4779491  27.9198098  59.4387150  36.6793394
  26.9917011  59.2245436  36.7740703  28.3354759  58.6071157  36.4515185
  66.5624714  67.1853065  29.0221643  67.0780468  67.9506063  29.2765856
  65.8547020  67.1486616  29.6655560  14.7768474  73.8788557  29.7465205
  14.6313906  74.4033098  28.9591050  15.1791060  73.0716801  29.4257545
  24.4194097  52.6554984  71.6522025  24.8747224  52.1922368  70.9491291
  25.1158208  52.9281801  72.2496082  14.7864199  49.3814802  33.4217501
  14.4728470  49.6688175  34.2792702  14.3346620  48.5518646  33.2671881
  14.0169978  18.9182758  33.5554075  14.9438298  18.7124205  33.6772251
  13.9843583  19.8747611  33.5380745  44.1555309  20.2319074  44.1992283
  45.0999308  20.3369474  44.3145752  43.8942289  19.6317410  44.8976231
  25.5116391  65.7323456  39.2026472  24.7193122  65.2778339  39.4887733
  25.3294921  66.6576099  39.3667865  62.9171705  77.3322535  58.7049961
  63.1186628  78.2398987  58.9326096  63.6261463  76.8235922  59.0985060
   1.4631711   7.6434028  33.2026291   0.7028318   7.6479685  33.7840891
   1.0912999   7.5854242  32.3225260  21.1482716  70.8884287  40.0459862
  21.7491198  70.1973200  39.7674465  20.6004024  71.0531378  39.2785573
  15.5122554   2.1598473  56.1988974  15.6825268   2.7832794  56.9049931
  15.3026021   2.7067977  55.4418468  34.4649196  11.8884432  42.2362041
  34.0447235  12.7443492  42.1519852  34.3899727  11.4981115  41.3654232
   0.9781630  20.0108504  39.4789577   1.7206618  20.6003141  39.3468189
   1.2716965  19.1723156  39.1226864  74.6546698  54.0701342  30.7544589
  74.5088148  53.2549667  30.2743959  75.5008793  53.9467144  31.1844921
  17.5141096  68.5211325  31.9863796  17.9655993  68.1071186  32.7218938
  17.4782598  69.4489574  32.2189498  83.8194561  80.3340816  48.8478851
  83.1803131  80.0667763  48.1873703  84.2423916  81.1066628  48.4730673
  25.6151867  30.7831454  35.4623318  26.0002828  31.6434455  35.2955413
  25.5525398  30.7295895  36.4159775   7.2782230  12.2994447  64.1513443
   7.6616746  12.7305532  64.9151134   7.6614219  11.4222991  64.1538906
  45.5808544  13.3394694  55.0071716  45.9731817  13.7581694  54.2410088
  44.6393299  13.4719658  54.8966885  36.9638777  59.2938757  44.8928070
  37.6422787  59.8897219  44.5750380  37.3810959  58.8165522  45.6099701
   5.2895433  30.1448131  63.7049198   5.8180255  30.0834084  64.5006418
   4.3940425  29.9773502  63.9986324  21.4521265  72.9830170  46.4116716
  22.1312809  73.6244345  46.2029409  21.6442394  72.2372007  45.8432722
  21.1289668  26.9238710  54.3676567  21.2391353  26.3376880  53.6189985
  20.5927372  26.4260292  54.9847794  52.3823309  30.8332205  61.6105080
  51.7584038  30.4540801  60.9914732  53.0141115  31.2963557  61.0604239
  63.6341667  10.6461823  22.3913670  62.8814697  11.1989760  22.1813750
  63.4237671  10.2695560  23.2458353  23.7399850  82.9233637  28.3291817
  23.1894860  82.1573080  28.4914947  24.6358809  82.5940162  28.4008217
   9.0246642  40.2933931  28.0763268   9.7736943  40.0268078  28.6093545
   8.3333105  39.6730447  28.3074760  35.7956934  11.1691797  20.0485563
  36.0624623  10.4347837  19.4956291  34.9030542  10.9536922  20.3187251
  10.1078546  48.5336924  59.1968727  10.2866173  47.7870846  58.6251640
   9.4380832  48.2164907  59.8026991  34.5231533  14.0781176  21.1337113
  34.0654397  14.6086955  20.4816246  35.1410484  13.5534251  20.6246567
  32.3549581  10.3674555  34.4851398  33.1278968  10.8971131  34.6807456
  32.1443057   9.9361730  35.3133011  19.2102575  19.5235705  26.8361163
  19.3905759  20.4602003  26.7558384  18.9879370  19.4006991  27.7589965
  24.9462295  67.7331734  21.0189009  25.2754092  67.8519773  20.1279688
  24.5931172  66.8435240  21.0271263  36.6234279  10.2693427  27.8912950
  36.7054033  11.2031674  28.0849028  35.7019567  10.0703347  28.0571818
   1.0051738  78.5166788  28.9425802   1.2723376  79.4356346  28.9619899
   0.4715917  78.4390306  28.1517005  70.5894518  71.5021420  51.2848997
  70.1978159  70.7169294  50.9024143  71.1715794  71.8362093  50.6024313
  11.1705995  78.1094217  53.3803034  10.6027973  78.8794661  53.3509827
  10.8388257  77.5950861  54.1162491   5.2291656  21.7920160  47.8837872
   4.8646688  20.9099770  47.8104258   4.9895072  22.0776510  48.7653828
  34.0068674  60.6215620  33.7025499  33.9259696  61.3593817  34.3069625
  34.1685772  59.8658752  34.2673659  30.2841163  80.9828949  35.6653190
  29.9972939  80.1068878  35.4072905  29.4794226  81.4316559  35.9247708
  31.9949961   3.9832267  46.0292816  31.5267611   4.1733202  45.2163553
  31.4739895   4.4079894  46.7107201  26.8544960  81.6748905  55.2591276
  26.6327262  81.9770527  54.3783617  26.2883759  82.1861458  55.8373642
  29.0501571  79.2534018   7.4325770  29.8480296  79.7354507   7.6499629
  28.3668518  79.9229765   7.4011046  14.7540522  68.2817173  59.7068691
  14.3674302  68.4627104  60.5636072  14.8298264  67.3280525  59.6749401
  81.6090965  19.4653594  31.3296461  80.7952023  19.0590298  31.0318089
  81.3250542  20.2119255  31.8570828  24.3917084  35.3969431  63.1501102
  24.5943308  35.0120139  62.2974634  24.2154336  34.6455622  63.7163115
  30.6214046   1.2487181   9.6397483  30.5042934   2.0891449   9.1968036
  29.7387171   0.9951106   9.9095201  83.2407188  61.8391848  28.2866573
  83.4369659  61.0569811  27.7710271  83.7611961  62.5314903  27.8791618
  74.2573929  57.3746777   6.8732578  75.0130510  57.9528475   6.7687160
  74.6275520  56.5524292   7.1943891  73.8742018   9.2889357  57.8831577
  74.2486048   9.1021192  58.7440586  74.1030931  10.2031553  57.7156973
  39.0938401  17.9082453  49.5095682  38.8349628  18.7626147  49.8549175
  39.2297006  17.3667753  50.2871180  18.4503889  16.9028115   3.1804362
  19.2548263  17.1626270   2.7314276  18.3184147  17.5784338   3.8455290
  63.0817938   7.0036697  46.6044855  63.2257700   6.5902269  47.4557018
  62.2971058   7.5379008  46.7273521  45.5244684  11.9275987  66.3181400
  45.5031347  12.8219080  65.9775686  46.4130354  11.8218625  66.6579914
  33.8133955  22.3187780  15.7469940  34.5981526  21.8474579  15.4672658
  33.0995917  21.9044209  15.2622020  19.4398236   1.2589617  17.9358399
  19.9752104   1.9340128  18.3528519  19.7763991   1.2049432  17.0413959
  29.3666410  23.3252907  58.0256367  29.1058564  22.9054284  58.8453531
  28.8257098  24.1135287  57.9776001  49.5986700  27.0351863  18.2911897
  49.3574810  26.1255717  18.4662926  50.4982090  26.9864273  17.9676378
  31.4743662  13.1971622  41.0836029  30.8250880  13.8931489  40.9822369
  32.3031044  13.6592448  41.2097120  47.2963095   5.0438732  51.6809464
  46.4724779   5.5032772  51.5182066  47.6495028   4.8691887  50.8086109
  33.4803462  27.8775334  28.0463314  33.5862947  27.1087909  28.6067247
  33.6340857  28.6214757  28.6286926  22.5032282  58.9731073  23.2517886
  22.3362684  58.8161993  24.1811633  23.1687665  59.6609783  23.2408023
   5.2592701  62.7056313  54.5072985   5.9270704  63.3900118  54.5508766
   5.0213128  62.5446939  55.4203749  85.3829193  76.5525913  36.8794727
  86.0026073  75.9517145  36.4657354  84.8467731  75.9938097  37.4420929
  51.8194580   8.2376760  61.0212660  52.6376724   8.2542211  60.5247927
  51.1446142   8.4548450  60.3781080   9.9633837  80.4071903  52.9131079
   9.5015574  81.2440968  52.9635763  10.0460958  80.2354622  51.9750786
  43.8780546  28.0095816  53.1521559  43.9247847  28.7052393  53.8079834
  44.6200895  28.1777287  52.5713491  87.8989506  69.5195627  61.4935350
  87.0015430  69.8396778  61.4018154  87.9271126  69.1330910  62.3687935
  12.8157711  40.2806330  43.5434914  13.0293691  40.1394367  44.4658089
  13.1129611  39.4838548  43.1041145  43.5170555  17.5118268  45.4148388
  42.6659298  17.1729827  45.1373434  43.3061743  18.2513762  45.9847736
  40.9056711   5.5422735  39.2631078  41.6050243   4.8929468  39.3373632
  41.0094786   6.0956705  40.0371933  67.2718477   9.3471867  63.3241463
  67.5191450  10.1779771  62.9181099  66.8514204   8.8525814  62.6206970
  29.0068007  19.9626112  19.6364510  29.1801548  20.4590154  18.8365996
  29.7404170  19.3513441  19.7027147  48.8550234   7.1586126  39.2738366
  48.1580734   7.0120674  39.9133778  49.3311977   6.3287866  39.2441273
  17.2609973  32.7079177  49.1766977  16.3795483  32.8983974  48.8557673
  17.1785569  32.7291632  50.1301050  56.3996363   8.2192677  62.2991896
  55.5464602   8.0128682  61.9174576  56.3957739   9.1718155  62.3933697
  65.6361914   1.3705252  48.3727503  65.2240658   0.7161286  47.8086996
  66.5675926   1.3193588  48.1580400  27.8448772   9.5428252  20.9562349
  28.7325406   9.6543407  20.6158662  27.5186133  10.4353142  21.0713267
  18.9255655  30.0961804  32.3754549  19.2891538  29.4015598  32.9245806
  19.1304255  29.8258567  31.4803624  24.4060922  16.8173528  50.2921200
  24.9866343  17.0624983  49.5716333  24.9976587  16.5703344  51.0029411
  33.1147814  63.4329224  31.4332867  32.3151684  63.3155918  31.9462013
  33.8092089  63.5129404  32.0871973   9.1461647  82.2683430  39.3311787
   9.0394551  81.8229866  40.1717186   9.9404997  82.7919197  39.4366813
  12.1828437  72.0490694  64.0754700  12.8594005  72.3527956  63.4702826
  11.4592457  72.6637650  63.9538622  51.6237879  43.0391264  50.5306101
  50.6985331  42.8161907  50.6328011  51.6188240  43.8712072  50.0574875
  35.6381679  28.2348466  45.5565929  36.1913180  27.5027871  45.2839279
  35.5900669  28.1567907  46.5093899   9.8584902  35.4141879  58.0313492
  10.0046504  35.8698630  58.8603449   9.8441344  36.1104226  57.3746300
  53.3688545  11.8564022  50.8532476  52.5031614  12.2461879  50.9752131
  53.4079552  11.1524832  51.5007067  43.0751181  17.5536203  62.1282434
  43.3318853  17.7523708  63.0286837  42.3477364  18.1496096  61.9495010
  31.7403841   3.5642758  50.3789616  30.8791184   3.5127977  50.7934523
  32.2237206   4.1981483  50.9088898  61.9381762  26.9072056  40.6110239
  60.9892750  26.9194412  40.7362175  62.0967913  27.5494766  39.9192405
  38.3895588  42.4399614   6.8035150  38.3494020  43.0350304   6.0548425
  37.7806973  42.8145075   7.4400961  57.4894953  17.1458805  30.6362367
  56.9457388  17.8976452  30.8716369  58.2208300  17.5230229  30.1472163
  81.4145660  57.3576117  43.5282421  81.5014458  58.2769537  43.7802267
  80.6482887  57.0482540  44.0113020  44.9343681  47.0782804   3.4971574
  44.4354105  47.2000647   4.3048981  45.5644608  46.3887978   3.7065017
  25.6901789  51.1135578  69.9575853  26.5920544  51.0039520  70.2589846
  25.7386684  50.9955597  69.0089273  26.4695382  11.3911045  51.8817711
  27.2341895  11.3863826  51.3059950  26.4615440  10.5191135  52.2764826
  39.2864799  31.4508152  54.1048574  38.8500571  32.2633076  53.8486910
  39.0388370  30.8219266  53.4270668  49.3284941   1.8292223  43.8445091
  49.3611383   2.7713621  44.0104580  49.4903088   1.4297333  44.6991777
  56.5759468  11.6431642  48.5930872  55.8809757  10.9899902  48.5117769
  57.3540068  11.2100101  48.2420397  63.8948822  65.3210163  36.9504166
  62.9602528  65.4799700  37.0824718  64.3261242  66.0648203  37.3711419
   7.6159245  75.9247875  36.3395071   7.6828748  74.9810266  36.1943531
   8.4036142  76.2861061  35.9330273   9.4665080   9.1766405  71.4862680
   9.2216694   8.6261648  72.2300816   9.0298754   8.7734401  70.7359266
  54.3758774  21.6234207  39.2118025  53.4348011  21.6096520  39.3862176
  54.7611570  21.1321521  39.9373674  59.9004412  20.8080912  20.8974719
  60.1646805  21.0477352  20.0092268  59.6624851  21.6389322  21.3089466
  31.8046165  39.6955848  46.1884117  32.6925182  39.5721793  46.5240240
  31.9174862  40.2326727  45.4041767  18.5396826  17.0197093  53.7345648
  19.0453231  17.8098917  53.9247561  17.9398298  16.9350421  54.4756699
  28.1582332  22.0678186  55.6714153  28.4922051  22.3726749  56.5150738
  28.5697436  22.6450181  55.0281954  18.4115696  21.0807920  31.9430947
  17.4618685  20.9705925  31.8966627  18.5679328  21.4468956  32.8135824
   0.8732095  24.9140334  68.9892817   1.2610076  24.0693498  68.7604713
   0.6638207  25.3175044  68.1469059   8.4410089  77.6265430  60.5373764
   8.0833763  76.7600203  60.3437948   9.3693519  77.5577641  60.3144836
  73.7736988  71.3094521  42.9228497  73.0760670  70.7588577  43.2783651
  73.4262609  72.1998358  42.9751587  67.7034044  38.2382727  63.8009310
  66.7614746  38.1652069  63.9547396  68.0446291  38.6492181  64.5952368
  29.1062641  73.8172245  61.8407202  28.4138012  74.2954159  62.2968626
  29.4357824  73.1957388  62.4898815  72.8455353  70.7977724   5.4752213
  73.0587530  71.0899162   6.3614631  73.4855509  70.1107979   5.2890086
  24.7430134  13.1325936  48.4587765  25.3260684  13.7858963  48.0721569
  24.5278811  12.5450027  47.7344227  14.9525297   3.9789733  53.8992739
  14.7412479   4.9123096  53.9210796  15.3029323   3.8331905  53.0205250
  65.0961494  24.8325062  32.5140262  64.8705149  24.5982599  33.4142780
  64.4523287  24.3699050  31.9776297   2.9130378  21.9096541  39.6552324
   3.8273972  21.6465521  39.5505643   2.9583609  22.7923632  40.0226641
  37.3741937  71.3102913  46.0991764  36.9516635  72.0619202  46.5148115
  37.8424931  71.6819048  45.3516293  79.9467039  52.9519415   0.4771892
  79.2017746  53.0622578   1.0680769  80.1120472  53.8299656   0.1337236
  13.1096327  72.6185322  19.1960859  12.5075090  71.9959879  19.6036553
  12.7253115  72.7965355  18.3376896   7.3229975   5.6371355  68.2045364
   7.1292168   6.2689334  67.5120687   6.6701025   5.8157921  68.8813210
  85.0617218  72.7143574  66.9754457  84.4037151  73.2871246  66.5815020
  85.5840588  73.2948732  67.5289774  68.2634115   2.3597570  46.6931868
  68.7586689   1.7367402  47.2249794  68.1228876   3.1095535  47.2713614
  38.8337851  22.8419042  47.5447178  39.1853905  23.2528043  46.7549324
  39.5478797  22.2917819  47.8666973  87.0497036  27.1526790  35.9843373
  87.1523380  26.8676591  35.0763392  86.9393539  26.3407922  36.4792061
   8.6503905  61.6918516  25.7745838   8.2577932  62.5024176  25.4504180
   9.5135069  61.9548464  26.0941076  85.0082207  70.7436132  33.6363506
  84.5171928  69.9787092  33.9364338  84.6642971  71.4687634  34.1579819
  69.5449495  75.8499432  63.6210299  69.2094994  76.6408062  64.0432119
  69.5215654  76.0497093  62.6851988  62.5298500  19.8138547  32.2228909
  63.2639074  20.3444910  32.5324416  62.9283381  18.9845335  31.9589472
  45.6187820  26.4916468  15.1226854  45.9485054  25.6725121  15.4921925
  46.3535023  26.8392015  14.6170914  17.4121034  30.4352093  43.4348154
  17.7648342  30.0870967  42.6158953  17.8858745  31.2558818  43.5699749
  15.0879371  82.4727917  34.6142936  14.4885337  82.9233742  34.0193796
  15.7837296  82.1406269  34.0470433   8.5165310  39.3174505  58.0998611
   9.2182142  38.8172221  57.6831532   7.8434438  38.6664057  58.2981682
  13.6205554  28.8509870   0.9569675  14.1744041  28.1610656   1.3223356
  12.7697468  28.7223268   1.3762553  24.8252726  79.7931099  29.5549345
  25.1129007  79.0529966  29.0203977  24.1998339  80.2600193  29.0008116
  59.1233492  18.9345801  37.8903031  58.7544060  19.7328556  38.2682848
  58.4055901  18.5560596  37.3825860  13.7029374  39.4122362  37.7829432
  13.8509142  40.3565264  37.8344512  14.5729065  39.0411496  37.6357031
  10.2325225   6.0598493  42.3413181   9.3268269   6.3625759  42.2757101
  10.7418013   6.8574142  42.4853945  58.7733364   1.9813536  53.7145758
  58.8433743   1.0611165  53.9685249  58.9302111   1.9818482  52.7703190
  53.3866501  14.6531391  40.3940153  53.4655285  14.7827613  39.4489169
  53.4883785  15.5295205  40.7652807  37.7166247   3.7631431   8.5062045
  37.9342103   4.4181705   7.8430092  37.4976158   2.9779303   8.0044997
  37.2105670  61.2360382  39.9545598  36.9085264  62.1059179  40.2159309
  37.6780510  60.9044552  40.7212067  30.2700615  30.6705117  67.2816420
  30.6736231  31.1202264  66.5392637  30.9845972  30.5528188  67.9075909
  57.4493456  31.7441463  59.0986872  58.0652666  32.4728680  59.1751194
  57.8976822  31.1091948  58.5400629  28.0587292  75.6798458  31.7839670
  27.8515196  76.4807892  32.2654080  27.2347236  75.1932335  31.7626762
  26.0761929  81.5600872  42.8225040  26.0567355  80.6288624  43.0431175
  26.9440770  81.6982746  42.4431419  73.9255953  26.5673304  31.2654710
  74.1171741  26.0207582  32.0275664  73.3991528  26.0070968  30.6951809
   1.2847745  10.9828389  28.4899831   2.1382152  10.6457210  28.7624192
   1.3068500  11.9100547  28.7266612  25.4300356  49.6509647  17.6247084
  24.9142838  49.1521788  18.2583058  26.1810207  49.9698925  18.1252444
  80.5591202  82.6957226  57.3982906  80.2427483  81.8271923  57.6468801
  80.3590775  83.2487297  58.1535435  59.2478228   1.7467602  45.9787130
  59.2812967   2.4704507  45.3531027  60.1653767   1.5552782  46.1727619
  38.5750985  76.2023497  46.1676216  39.4031763  75.7275772  46.2390947
  38.0742908  75.9273672  46.9356108  11.3593221  31.0692120  49.8843575
  11.3755465  31.5552568  49.0598965  11.5518594  30.1657319  49.6335888
  51.7866039   3.1398654  56.2654400  52.6907921   3.4411803  56.1766529
  51.8032551   2.2361742  55.9503269   8.6667258   8.7501848  59.6850681
   7.8490543   9.2414284  59.6055365   8.9695787   8.6416358  58.7835503
  43.3126211  18.0530930  49.1219759  42.6097107  17.9140115  48.4873104
  44.0938473  17.7014792  48.6950302  76.7144918  81.5216255  21.5909219
  76.6250324  82.4065304  21.9447184  77.0695496  81.0082912  22.3166299
  27.8353524   5.3612888  44.5817089  27.2077322   5.1602578  43.8875055
  28.0944133   4.5062834  44.9253416   3.1200546   8.5426128  49.0617514
   2.9388848   8.7419921  48.1432438   3.7154570   7.7937442  49.0313578
  76.7868233  22.5956559   7.3645300  77.6301956  22.8445697   7.7426773
  76.5945721  23.2875228   6.7316061  33.4660673  33.5551453  38.0591464
  32.8569150  33.2691336  38.7398529  34.3010163  33.1545186  38.3011961
   5.3428996  57.3754978  31.0039926   4.5824727  57.5580168  31.5559626
   5.6549704  58.2388926  30.7330751  20.3753829  72.5286341  49.4633102
  21.0752439  73.1036139  49.1537571  19.7904634  72.4369431  48.7111807
  56.3123751  18.5781908  55.1847029  56.0567999  19.4024265  54.7705221
  55.8618212  18.5846996  56.0292053  26.4622331  27.0259929  55.4261303
  26.4834428  27.9494715  55.1751995  25.5887198  26.8983388  55.7961464
  46.8717861  16.1693859  71.5269327  46.7606163  16.8582261  72.1821976
  47.1911907  16.6275740  70.7495832  17.8652143  15.8212066  32.3491788
  18.2765782  15.0257409  32.0111775  17.9341257  15.7408249  33.3005047
  31.5666151   3.9048237  30.5642748  30.8046079   4.3670261  30.9134841
  31.9095492   3.4112930  31.3092947  31.2414503  18.9366901  41.4852190
  31.7294955  19.5889902  41.9877625  30.6437564  18.5428166  42.1207142
  15.2588904  13.7070203  41.2797976  15.2647460  13.2448459  42.1180058
  14.3327677  13.8742077  41.1049414  70.1822948   5.2983999  60.5832434
  70.3164864   5.8919501  59.8443794  70.2143240   5.8647102  61.3542795
  22.7021241  28.0989861  46.6595459  22.8704071  27.1680260  46.8052530
  22.7099609  28.4838319  47.5359392  63.6466074  29.9418640  42.8664446
  64.1008568  30.6334734  43.3476591  63.9782763  30.0151992  41.9715405
  34.8078871  19.0592539  34.5214510  34.4628859  19.7486913  35.0887990
  35.3938937  19.5163620  33.9182305  42.7868748  24.9142981  24.1042590
  42.5582075  25.3774643  23.2983947  43.5694742  24.4117880  23.8778663
  41.1109924   2.1982861   9.4349474  41.1437464   3.0366686   8.9742160
  41.1112356   2.4345693  10.3625262  33.8658452  52.9731178   9.3942696
  34.0321183  53.5101128   8.6195308  33.0189419  53.2780886   9.7198164
  77.6842308  75.2133560  63.2091141  78.2103634  75.4564857  62.4473381
  77.7122545  75.9844637  63.7755346  76.5305138  70.8379698  67.9334927
  76.6819906  71.7158890  67.5834370  75.6492376  70.6106567  67.6369858
  11.4937675  70.3560638  16.4265501  11.8041575  69.6736622  17.0217085
  11.7562664  70.0532818  15.5572701  52.3246241  64.2165375  32.4656749
  52.6188850  63.7389469  31.6900802  53.0913448  64.2391062  33.0382657
  30.0677061  26.1684084  33.1015754  29.7043777  27.0472717  32.9928374
  29.6847177  25.8503723  33.9191341  53.1031704  18.1524742   9.4489765
  53.6294699  17.4049473   9.7325981  52.4239731  18.2349622  10.1183975
  50.3688860  12.3264825  58.4714985  50.1375437  12.2717333  59.3987083
  49.6064758  11.9731081  58.0131483  23.5495925  21.3984179  64.1415691
  23.3234715  21.1459470  65.0367546  23.0551839  22.2034597  63.9876270
  32.9216361   8.7372297  48.6050940  33.3975959   7.9532158  48.3312035
  32.7833962   9.2286038  47.7953577  18.1475770  27.2994876  51.6989470
  19.0431452  26.9617295  51.6885090  17.9710186  27.4815822  52.6219320
  24.9759555   5.6929755  22.6146436  25.6781960   5.0937206  22.3616958
  25.0155163   6.3957274  21.9659472  56.0058069  15.3368616  57.8695869
  55.6475639  15.3516817  56.9820786  56.8424463  15.7963395  57.7978706
  87.1420574  67.7061605  23.8732433  86.5336514  68.1292295  23.2673717
  87.3915005  68.3989048  24.4848895  35.9440255  30.1615548  41.6123581
  35.7115936  29.3886089  41.0978079  36.7288017  30.5059671  41.1860466
  50.7380915  17.6860094  29.1689038  51.1139297  16.8056977  29.1637397
  51.4430285  18.2492793  28.8494921  58.5184669  63.4084988   8.1812185
  58.8355255  63.1896019   7.3049831  58.1076622  64.2670822   8.0797243
  15.7014608  27.2930598  53.5893679  15.7167530  27.7017522  54.4547987
  15.9829199  26.3915467  53.7452173  24.4016576  60.7911205  34.7873688
  24.7764611  61.0116577  35.6400800  23.6285424  60.2659893  34.9941421
  76.7481995  29.1927385  19.5640421  76.0835600  29.8728108  19.4545412
  77.2080040  29.4344497  20.3680229  41.7789078  29.3723917  46.0840845
  42.3243093  30.0261307  45.6465960  40.9031582  29.5109439  45.7233953
  40.8602524   4.4365457   2.6680145  40.4217243   4.2106572   1.8477120
  40.1473951   4.6534473   3.2688618  16.4418781  70.8644152  49.0563202
  15.4923570  70.9792900  49.0183258  16.6362560  70.2432156  48.3544970
  57.5030613  30.8356881  45.7269907  58.3638716  30.4237485  45.6525612
  56.8853474  30.1445675  45.4882145  18.7133038   2.7483988  50.0743389
  19.3311274   2.9284245  50.7829428  19.2655408   2.6046142  49.3058395
  51.3872242  74.2059278   0.5397682  51.2770081  74.0731239   1.4812812
  52.2949696  74.4938421   0.4431412  15.1220882  18.3470559  17.1554494
  14.8595214  19.0702939  16.5860486  15.9963918  18.1062829  16.8490934
  53.8232517  18.7984145   7.0033962  54.6447849  18.7611675   6.5135759
  54.0705633  18.5829163   7.9026335  54.5143461  32.4789214  60.1327038
  54.7883415  33.2004070  60.6989336  55.3087568  32.2303987  59.6600723
  15.7748926   2.7772835  60.6638765  15.2823746   3.3184463  60.0467873
  15.8337712   1.9219244  60.2382898  34.1780758   2.4660875  66.8957996
  35.0489211   2.1017176  67.0542097  33.7967777   2.5633326  67.7683735
  46.7970705   9.6919435  45.3097248  46.1774874  10.0616181  44.6806908
  47.5907850  10.2156329  45.2001667  29.7868490   2.0458433  55.7977438
  30.0866580   1.3157713  56.3393545  30.3095412   1.9815421  54.9984360
  26.8904471  38.7847376  67.2997046  26.4078021  38.2143807  66.7013931
  27.4143910  39.3444824  66.7266417   4.3831801  81.3533211  45.6981039
   4.9943689  80.8066559  46.1919022   3.6015496  80.8096790  45.5994225
  16.3682330  78.9682245  51.3872957  16.9377995  78.6475277  52.0865631
  15.4941678  78.9810658  51.7772627  47.2727346  52.4474955   0.0997582
  48.1075907  52.0074224  -0.0601965  47.2749472  52.6312017   1.0391620
  87.0705891  23.1552029  35.1732349  86.3358784  22.9392481  35.7475209
  87.8483391  22.9416847  35.6887412  55.5486441  40.6193256  52.2088242
  54.6173859  40.8305264  52.2750092  55.8806896  41.2098408  51.5326023
   3.6454126  49.0448046  65.5419397   4.5031849  48.7114811  65.8052874
   3.1847316  48.2780027  65.2013302  38.2400799  75.1033258  50.8163214
  38.8849974  75.7396507  50.5074453  38.4087396  75.0279951  51.7555285
  60.1807642  10.6019294  48.3732510  59.4354725  10.7123876  48.9636517
  60.4390240  11.4946485  48.1439304   5.8663619  11.8752825  11.1181653
   6.4844882  12.3507082  10.5630767   5.0053430  12.1029973  10.7674170
  15.7343662  33.2342100   7.2104442  15.4474056  32.4496675   7.6777571
  16.6500771  33.0612707   6.9918209  47.1317482  40.9145975  11.0791767
  47.5642300  41.7641735  11.1652803  46.3959885  41.0790586  10.4893982
  15.0062144  17.2972441  50.2433538  14.4361019  16.5978551  50.5628204
  14.4668806  18.0865812  50.2912855  71.4994860  25.8957314  38.1707072
  71.7801619  26.1477566  39.0504456  71.3474083  26.7266870  37.7205753
  19.5579410  69.3444014  10.4336452  19.8829997  70.2095795  10.1845825
  19.6094084  69.3352175  11.3894165  38.0592322   0.9401636  49.4951391
  37.7751517   0.4078926  48.7520218  37.6287937   1.7848745  49.3631554
   5.3504586   6.0599017  40.9716892   5.6121498   6.7515361  40.3639126
   5.4079229   6.4664924  41.8363333  40.7244968  12.3777807  49.9678802
  39.8806334  12.1441436  50.3545856  40.5057526  12.9980195  49.2724085
  70.1676416  10.9518826  65.5465984  69.3702126  11.2187898  66.0038710
  70.8755398  11.3740635  66.0333014  60.8341360  12.6057541  32.9155779
  61.7018270  12.7588689  33.2896090  60.2944565  13.3153248  33.2641292
  74.1206837   8.6599863  11.4764369  74.3410444   8.5396564  12.4001217
  74.2220306   7.7898324  11.0907006  29.8590183  20.6508780  47.8095484
  29.5703793  19.8041677  47.4689579  29.1450214  20.9355903  48.3799648
   4.3333220  36.1281562  31.6270804   4.3860745  35.2661324  32.0398307
   5.0060076  36.6466570  32.0685363  28.0326915  18.4223139  27.1228981
  28.6808777  18.1384289  26.4783096  27.1997190  18.0918229  26.7864990
  64.8192215  15.1019716  28.0207491  64.1459751  14.4980931  28.3342743
  64.5358181  15.3391504  27.1377659  21.5476489  40.0065279  43.8747549
  21.1895990  40.5751991  44.5564032  20.7779741  39.6578336  43.4250355
  30.8819818  10.6761611  42.2842932  30.8437872  11.6259575  42.1717691
  30.0747800  10.4574895  42.7499485   5.1021641  66.6065025  37.9000854
   5.5319548  66.3387680  37.0877862   5.5013931  67.4493122  38.1157684
  18.5212350  13.9064872  55.0026417  18.9633489  13.3766961  54.3392515
  19.2321742  14.3288112  55.4847622  53.2366371  68.9287758  48.7302494
  53.5912085  69.1175795  47.8614187  53.8929415  69.2721081  49.3365669
  20.7150030  31.0315919  13.5048640  21.0382104  31.9280529  13.5950053
  21.4812684  30.4827929  13.6718643  35.8452845  16.2665093  59.6107197
  35.9827566  16.7010021  58.7689638  36.3653588  15.4649067  59.5542479
  77.7978468  75.2077770  52.3479795  78.7314510  75.1162767  52.1576166
  77.6315308  74.5707846  53.0428267  30.6132054  34.5080519  59.5365000
  30.8653045  33.7300611  59.0390968  30.0064802  34.1813707  60.2008724
   7.6194453  79.5232773  62.1747303   7.9092968  78.7537146  61.6848421
   6.6797012  79.5777655  62.0011044  64.8900509  47.7778816  67.8939915
  65.8277607  47.6908970  67.7226257  64.7818375  47.4725485  68.7947083
  22.6882982   0.6730879   0.7740685  23.5302925   0.9891264   1.1017808
  22.2786832   0.2541076   1.5309724  57.3895693  14.5232928  47.2767925
  57.4120712  14.1187453  46.4095736  57.7616167  15.3951859  47.1440792
  36.6523433  77.3725224  25.8963180  36.0572529  76.9501591  25.2768731
  36.9435215  76.6637421  26.4699697  35.5385447  48.7871552  23.0826402
  36.3761306  49.2431211  23.0003285  35.3908014  48.3999872  22.2197938
  72.8707457   6.0409433  34.5980573  73.1772614   5.5524927  33.8340569
  73.4899044   6.7659676  34.6830106   9.1815674  43.3715487  43.3453560
   8.2519174  43.4229183  43.1232214   9.2825061  42.5130463  43.7564707
  31.9177294  25.4882073  12.4831963  32.7900767  25.2466130  12.1719491
  32.0724058  25.9011292  13.3327866  10.1810741  13.7952602  63.3043194
  10.7353079  14.4182789  63.7743235  10.7978666  13.2210636  62.8503370
  52.2307491  27.6528120  47.1661139  52.8151131  28.3968735  47.0207882
  52.7542400  26.8872762  46.9291639  29.0555263  79.6148157  30.0051355
  28.2680058  79.3825245  30.4971528  29.7762346  79.2580795  30.5243182
  17.0921111  25.4067874  63.2023954  16.3759160  24.9737692  63.6669302
  17.4929142  25.9770823  63.8584089  55.0171280  24.4294500  69.3076038
  54.7390985  24.4743395  68.3927727  55.6502867  25.1412606  69.4007111
  71.5765715   2.4200857  34.1820669  71.3251305   1.7169750  33.5831976
  71.3334227   3.2240784  33.7230396  82.5264072  12.5161636  51.8875551
  82.5008202  12.2875154  52.8166962  82.9211998  13.3878970  51.8662071
  32.7380705  20.7127619  71.4828968  32.5587344  20.0800729  72.1784353
  32.2283697  20.3985953  70.7360792  59.8833704  16.5506506  66.9031715
  59.3953323  17.0847082  66.2764072  59.9944592  17.1181107  67.6659822
  43.6692429  31.0578990  44.6767044  44.1987276  30.6911421  45.3847790
  44.2251444  31.7324829  44.2866468  45.9523964  12.1267128  57.5349331
  45.8389139  12.5297940  56.6741896  46.8976831  12.0009911  57.6177835
  19.4778943  66.5706587  71.3048983  18.8348675  66.1432886  71.8706799
  20.0132012  65.8531094  70.9660721  26.2500000  19.8581016  53.3223677
  26.4200640  19.5264554  54.2040253  26.0540366  20.7863855  53.4493208
  63.4509706  30.9952426  55.5183268  63.0676365  31.4986706  56.2365532
  62.7029896  30.5729985  55.0958729  80.5504894  41.4135122  21.9047976
  80.9145355  41.0031509  21.1203837  80.4876423  42.3423004  21.6820097
  38.2350874   4.8361257  19.5014703  38.0326509   4.4864920  18.6337101
  38.7705708   4.1583103  19.9138498  76.6348934  81.0653973  48.2660675
  76.3646460  81.2056255  49.1735554  76.1457825  81.7193604  47.7667332
  74.1550875  35.7607269  58.2690573  74.0292025  35.3467846  57.4152184
  73.2771158  35.7990456  58.6484337  68.3092737  49.5139694  42.7185202
  68.7830782  49.2085218  43.4921122  68.9958572  49.7442389  42.0925713
  33.2581019  30.4935384  43.2257271  33.4606171  29.6756005  43.6798143
  33.5411000  30.3431654  42.3237658  14.7575426   7.5040823   8.2119429
  13.9700627   7.5676143   7.6715064  14.7906411   6.5857708   8.4799737
  25.5060291  37.6104426  64.4505978  25.2960920  37.1207857  63.6553669
  24.9218655  37.2476888  65.1164722  61.6121626  82.6575661  53.4757566
  61.3620472  82.5809860  54.3965244  61.9578552  81.7942810  53.2488775
  36.9292426  26.3757753  67.8378725  36.1342168  25.9980369  68.2140112
  37.5286579  25.6345749  67.7509546  73.3957052   4.2957249  48.0174112
  74.0382147   3.8984117  48.6052513  73.6411810   5.2203107  47.9840136
  61.4220858  20.7890248  42.5767469  60.8440495  20.9361482  43.3253860
  62.1928453  21.3261986  42.7600574  49.9584150  22.1484470  58.1726599
  49.4480085  21.3406754  58.2294178  50.7985687  21.8755007  57.8040409
  42.2585630  49.4896650  70.5727148  41.9110250  49.4063425  71.4606905
  43.0124378  48.9001179  70.5542612  65.5768347  27.1095896  36.6626573
  65.0567818  26.3108468  36.5744090  66.1407948  27.1148801  35.8892512
  38.3926272  27.5015688  37.0082307  39.2320538  27.6095462  36.5610909
  37.7962565  27.1918440  36.3265848  40.8200550  22.5150633  44.9036264
  41.3746119  22.2101188  45.6217575  40.1898241  21.8070436  44.7704077
  29.2778635  36.7614007  49.9285555  29.6009278  37.4334288  49.3283558
  28.7121248  36.2097406  49.3883324   4.9829698  14.0282941  45.4289865
   4.1609806  14.4297743  45.1472473   4.7936922  13.6815882  46.3008833
  27.8698730  35.6282353  47.6868248  27.1715641  35.0784516  47.3313904
  28.3120036  35.9824634  46.9152832  75.3625393  17.0485640  43.9819622
  74.5379162  16.8248153  43.5504913  75.9823513  16.3888085  43.6708641
   3.6038634  76.3057709  44.0601015   3.7384358  75.3656197  43.9407969
   3.8852772  76.4758301  44.9590540  26.2152386  23.9768839  48.4879780
  26.4339542  24.8140121  48.0785751  26.7267275  23.9650273  49.2969704
  81.3384056  16.4491737  56.2878752  81.3212585  15.5610621  55.9312296
  81.3384533  16.3261175  57.2371292  28.5349059  78.1278515  70.7496595
  28.0765152  78.9471769  70.9362459  27.8662896  77.4506044  70.8522272
  29.4260478   3.6422563  51.8758154  29.0205479   4.1936335  52.5449800
  28.6908698   3.1967011  51.4548349  47.9284239  57.5946712  30.9783268
  48.0524206  58.3814049  30.4473758  47.2705698  57.0865965  30.5036449
  70.3994274  78.3753443   8.8377929  71.2439680  77.9806614   8.6205220
  70.3609228  78.3475399   9.7938138  12.2388661   3.5342315  60.9671545
  12.8131604   4.2582187  61.2166739  12.3368132   2.8962600  61.6739988
  37.8523755  34.1724682  54.9369764  37.1881986  34.7084117  54.5035362
  38.6804700  34.6085787  54.7362328  27.7599001  26.9826794  46.1446285
  27.4583101  26.3084364  45.5358028  28.6555743  27.1735549  45.8661222
  45.5636263  19.3894398  56.0062885  46.2826204  18.8605535  56.3520622
  45.8956385  19.7316432  55.1762915  26.0235500  33.9246488  46.6229820
  25.0728989  33.9831662  46.7182255  26.2514663  33.0794072  47.0100880
  51.5644646  30.4520106  69.1401672  51.3049269  30.0770378  68.2985830
  51.5856504  29.7053480  69.7387314  29.1243911  28.0810952   6.6170508
  29.6124148  28.8107705   6.2354207  29.7917700  27.4241209   6.8150938
  45.8668280   1.2125400  39.3553329  45.8785295   0.2944526  39.0847588
  45.0338936   1.3160205  39.8154950   1.5231393  34.2210627  68.9992523
   1.0182434  34.9558234  68.6507702   1.2402159  34.1469002  69.9106741
  20.8286428  71.5443277  33.5389471  21.1810899  70.8627367  34.1111803
  20.9046483  71.1796999  32.6571846  33.5022402   7.6404369  56.9904995
  34.4512582   7.7462679  56.9241953  33.3378100   7.5357968  57.9276466
  75.9484816   0.3074474   5.5602622  76.6324186  -0.3601385   5.6131071
  76.2406731   0.8950511   4.8634276  83.8558102  63.7093830   4.7372088
  84.4268990  64.3760633   4.3555939  83.0331230  64.1679335   4.9079150
  40.8672094   2.2257088  43.6887121  40.0771046   2.0344022  44.1940498
  41.5190697   2.4686565  44.3461943  34.8114061  77.2790861  60.3730488
  35.3498054  76.9669580  61.1003256  35.3050399  78.0131769  60.0074339
  24.2964649  13.9141488  32.4636197  23.6970901  14.6500599  32.5877810
  24.0312457  13.2750189  33.1249857  42.4177027   4.4654655  32.9385924
  42.7512026   4.6885478  32.0695448  43.0378485   3.8181540  33.2742167
  38.0065536   4.5659834  51.0764647  38.4647655   5.4044455  51.0194063
  38.1938910   4.1334796  50.2433538  77.5621748  42.3607779  13.6675286
  76.9379759  41.9639635  14.2751026  78.4185648  42.1947002  14.0615404
  37.7509856   7.3248684   3.9882946  36.8725038   7.0155114   4.2092076
  37.6560807   8.2733774   3.9013657  31.6022396  50.3754616  60.3724146
  32.0553350  49.7160673  60.8978987  30.8121061  50.5790520  60.8728838
  33.7181711  70.6034184  10.1869607  33.1974030  71.4025831  10.1071405
  34.3082762  70.6258392   9.4336319  18.5924268  22.1890521  55.6842899
  17.8520119  22.7704978  55.5112648  18.7522721  21.7497444  54.8490095
  54.7437382  64.8277521  15.5821061  53.8848257  64.4440699  15.7589960
  55.0351667  65.1636696  16.4297271  31.9771457  31.9365740  65.4806423
  31.4294553  32.7202082  65.4339075  32.7932334  32.1886182  65.0485420
  41.8849373  32.5228810  41.5510893  42.4458742  33.2855487  41.4099598
  42.2346258  31.8557763  40.9603930  45.4632807  32.6323175  43.0816078
  45.2363253  31.9725227  42.4263239  46.0759783  33.2148457  42.6327276
  12.9448354  11.5747857   6.2192947  13.2062793  11.2736523   5.3491235
  13.4599435  12.3687053   6.3627797  15.2142811   6.2312239  11.9701350
  14.9928474   7.1257353  11.7111993  15.9481084   6.3320810  12.5764012
   0.7450780  38.1757998  43.4012842   0.4412274  37.5909376  42.7071333
   1.6591895  37.9280996  43.5401249  81.4876842  22.8294444   2.9530406
  81.4517498  22.9920268   3.8956472  80.8352470  23.4237719   2.5824413
  80.3046703  60.1781559  44.5884466  80.4330063  59.4865179  45.2375984
  79.9756479  60.9220982  45.0929546  74.8107815  42.5935650  35.5182314
  74.6591330  41.7494297  35.0931740  75.7286501  42.5643110  35.7882214
  77.7364874  34.6912432  48.5606623  77.7125931  33.8350987  48.1332541
  76.9790840  35.1570725  48.2062960  46.3926220  44.2175484  55.4895210
  46.7663479  43.7632990  54.7343922  45.8782434  44.9300003  55.1099730
  79.2899799  63.4469271  51.5401220  78.7318659  63.0784464  52.2249269
  80.0664616  62.8871965  51.5369892  12.6044846  52.4457502  32.5007963
  12.1437418  52.2813416  31.6780448  13.5040641  52.1658087  32.3316193
  46.0888767  70.5577898  62.4945641  47.0324039  70.7075596  62.5541925
  45.8999872  70.5903530  61.5567541  53.9710999  62.5355959  49.8182678
  53.7599277  61.7382765  49.3325520  53.1635714  63.0491400  49.7983599
  67.9417562  22.0349717  42.1956110  68.3687735  21.8494606  41.3592625
  67.2360992  22.6427889  41.9746208  49.1016769  58.9820671  47.4354362
  48.6083364  59.4152641  48.1319904  50.0178003  59.1737413  47.6359510
  41.1634016  40.4235172  59.0341139  40.7545185  41.2838602  59.1281700
  40.9319115  39.9590898  59.8384476  80.7607460  38.9233494  44.2004442
  80.7451820  39.5061994  44.9595690  80.7841301  38.0427861  44.5750046
  77.1163177  60.6950665  40.3720236  78.0582905  60.6505013  40.5361509
  76.8506002  59.7832727  40.2526236   1.7489821  52.4867678  42.9505062
   1.6128017  53.2764149  42.4269199   0.8657356  52.1802187  43.1557751
  52.0994377  56.1702347  32.0926905  52.0938778  55.6969213  31.2607193
  51.9227171  55.4986811  32.7514887  61.1279869  49.6151209  41.1387825
  60.9918499  48.6862516  40.9519672  60.2449131  49.9729633  41.2302589
  85.9778118  32.5703764  44.8146915  86.6428661  33.2400513  44.6551085
  85.9964275  32.0225430  44.0299892  47.1631098  40.2761984  59.5239401
  46.9993687  40.5610609  58.6249018  47.4430561  39.3647838  59.4391775
   3.7815428  44.7845030  69.9890661   4.2399615  45.5207205  69.5840120
   4.3319613  44.5396185  70.7329082  45.9372044  81.9360542  40.5272675
  45.4524088  82.7537251  40.6395960  46.0933781  81.8777466  39.5846987
  45.5481863  36.1720777  49.6739483  45.0271845  35.3802013  49.8070765
  45.9545898  36.0499644  48.8159561  52.2483540  18.2511461  46.1605883
  52.1091986  17.3952425  46.5659237  51.5482426  18.3257341  45.5121231
  83.7525749  29.6188092  25.1721001  84.2810249  29.2309976  24.4745564
  82.8654099  29.3001866  25.0058055  24.9345398  60.6970882  37.6334262
  25.6131577  60.8282089  38.2956314  24.7237945  59.7649574  37.6877570
  80.5941486   1.0234303  14.9966526  80.0866699   0.2206850  15.1162374
  79.9360466   1.7040592  14.8556674  60.7683659  40.1352596  49.8285389
  60.9122992  40.9498072  50.3102303  60.8507299  39.4481683  50.4898643
  61.0658455  64.0439415  14.2416275  61.2482357  63.2595921  14.7590780
  61.8817043  64.2157555  13.7714303  72.9249859  17.5740254  32.4209642
  73.1210518  18.4158742  32.0097685  72.7071238  17.7947521  33.3265281
  59.1439533  47.2392893  46.0579681  58.2398081  47.2191858  45.7443666
  59.4529486  48.1190634  45.8417559  41.2986898  45.7572079  54.2560196
  40.9612846  45.0216961  53.7447357  40.5723381  46.0042191  54.8284101
  47.2551680  30.7174802  60.9659243  47.1459150  29.7878098  60.7659054
  47.3332405  30.7497692  61.9193888  68.2555246  15.7586479  11.1412609
  68.3545780  16.2701154  11.9442689  69.0503550  15.2271867  11.0962212
  64.8815393  26.4840841  61.5725565  64.0123558  26.4664602  61.1720037
  64.7319317  26.2224460  62.4810696  78.1375313  24.6500421  38.4019256
  78.7586212  25.3567982  38.2259274  77.3416758  24.9094319  37.9376411
  44.5586205   6.2552893  62.2352934  43.6487007   6.5454495  62.2992277
  44.9499750   6.8361825  61.5828896  11.3152540  80.7464695  20.5452061
  11.6236699  79.9483681  20.9743333  10.9048104  81.2522507  21.2466002
  55.8262682  43.8660669  41.7964697  55.8020735  44.1084957  40.8707952
  56.6303110  44.2659807  42.1278620   6.6633761  56.9703960  38.9933348
   6.8329304  57.6372719  38.3279371   5.7273704  57.0485973  39.1777515
  53.1614876  47.7824926  70.8476973  52.6288319  48.3627367  70.3037977
  53.6395359  48.3724833  71.4304590  11.1127043  46.7345381  18.3924007
  10.5025649  46.4627075  17.7067852  11.4045382  47.6051140  18.1219184
  66.4405680  11.4690888  69.8649406  67.1117544  12.1511590  69.8421574
  66.7075443  10.8476233  69.1876364  50.3750849  28.5881352  52.9107952
  49.7590113  29.1141033  52.4008512  49.9560452  28.4904170  53.7658358
  77.7280045  44.9277544  44.4799137  78.4989262  44.3971777  44.2789221
  77.7396917  45.0157928  45.4329872  44.3220091  81.6582108  32.7380395
  45.1699924  81.3214493  33.0274320  43.9381409  82.0475483  33.5237169
  43.7307692  45.7252884  64.9266815  42.8245640  45.9880447  65.0878954
  43.8222265  44.8885489  65.3824568  50.0168896  27.4021363   5.3501683
  50.6013250  26.6888618   5.0934440  49.4745779  27.5575304   4.5768729
  71.3739538  41.1336279  30.5015969  70.6929493  41.4590883  31.0902715
  71.1830091  41.5499306  29.6610832  58.0369759  46.0691595  42.2082663
  58.7721729  46.5893221  41.8839884  58.3738899  45.1738882  42.2430277
  71.7514992   5.2810812  36.8855047  70.9324026   5.3327614  36.3929200
  72.3971748   5.7074481  36.3219905  86.5967083  49.0922117  51.8650866
  86.9515038  48.2058811  51.7959785  87.3223400  49.6613359  51.6086054
  58.4715509  47.3631525  64.0683174  57.5367785  47.4802685  64.2377758
  58.7264442  48.1461525  63.5802889   8.2513005  63.5093641  68.1029081
   8.4860766  64.3618965  67.7364397   7.4309987  63.2788754  67.6667786
  43.1922388  15.4115617   5.3521371  42.9446554  16.0453534   4.6789035
  44.1470194  15.4660523   5.3928506  30.9622884  23.9346313  14.9034333
  30.4756618  24.3810654  15.5963421  30.2865386  23.5392761  14.3527150
  87.6820087   7.8871202  52.6901579  87.0619869   7.5320780  52.0531797
  87.1431732   8.4122014  53.2819128  55.1979494   9.5217019  23.9236832
  56.0455322   9.9547511  23.8221574  54.6711540   9.8528278  23.1963086
  75.8384275   8.3462012  62.9495430  76.1120939   7.9349989  62.1296310
  76.3054514   7.8598601  63.6289501  45.5200720  75.5673695  26.5103221
  44.7100687  75.4513550  27.0069814  45.2418995  75.5647802  25.5944371
  64.1277122  71.6484070  34.3312907  64.9207687  71.2466717  33.9764619
  63.6898804  70.9391212  34.8018718  73.7261772  47.5690794  52.9567480
  73.7157965  48.4655142  53.2922029  72.8212070  47.4012041  52.6939249
  63.8575840  63.2073355  63.1887531  62.9646683  63.3915329  63.4803057
  64.2838335  64.0641022  63.1665564  69.1391134  62.0177555  60.9867525
  69.7090912  62.7306747  61.2750292  69.6928501  61.2379265  61.0251665
  59.7438622  37.5329137  47.2189093  58.9912701  38.0234122  47.5494432
  60.4715204  38.1533527  47.2614002  54.4083405  25.8799434   7.2273338
  53.7440348  26.5316653   7.4513537  53.9409304  25.0448632   7.2473043
  23.4808540  70.7873726  47.5814629  23.6325908  71.7161989  47.7560711
  23.5727811  70.3649759  48.4354877  62.0537615  51.9822788  30.8597159
  62.2642612  52.7371502  31.4093423  61.1829853  51.7103338  31.1495876
  35.2082181  66.5360785  22.3577404  34.3183613  66.2663221  22.1305394
  35.4695082  65.9358454  23.0560803  55.6796312  66.9949961  56.9753075
  56.2556505  67.7059221  57.2564077  55.9995604  66.2264729  57.4477959
  34.9044991  17.4661684  48.2168722  35.3664565  17.1904027  49.0085697
  34.0294075  17.0887864  48.3064604  65.9042215  48.1469822  53.4121609
  65.9227371  47.7454138  54.2808533  65.6422567  47.4372435  52.8257418
  35.1517987  22.5354552   3.8609636  35.4563928  23.2186460   4.4582105
  35.0693369  22.9760218   3.0151904  51.5925121  32.6620388  63.3061218
  50.9500599  32.1733689  63.8206005  51.9188976  32.0289087  62.6667070
  49.1483021  81.3419914   5.9855586  49.6443987  80.6548023   5.5407065
  49.7134018  82.1132278   5.9397531  75.8101034  27.1637058  66.0482693
  76.7140007  27.1403933  66.3623619  75.6567383  26.2875342  65.6946707
  60.7875061  63.0178928  34.8994684  60.7650185  63.2757711  33.9779329
  59.9165392  63.2367563  35.2307510  78.2616186  67.2136116  29.6874547
  78.3760262  67.3834229  28.7524128  78.4019232  68.0638170  30.1042175
   1.3189241  25.0972557  31.4443135   1.6383056  25.0422359  30.5436468
   2.0610535  25.4419470  31.9409657  47.1735334   1.5222576  59.9439001
  48.1103754   1.3995731  59.7905779  47.0885229   2.4457838  60.1807642
  57.6976871  29.8861194  50.0482273  57.6174259  30.4983711  49.3168354
  57.6867342  29.0210152  49.6387053  66.8530989  62.6922560  51.6483116
  66.8664551  61.7783928  51.3638639  66.2241697  62.7093935  52.3696947
  47.3228836  54.1778231  32.8004670  48.1242990  54.2348003  33.3207798
  46.6295815  54.0306664  33.4438229  56.6897345  50.9366035  38.6966872
  56.1107063  51.5371752  39.1660166  57.4016857  51.4909458  38.3772087
  21.6018820  80.5576229  33.0181170  21.5068293  79.8244190  33.6260700
  22.1948481  81.1627769  33.4635520  69.9923277  21.5681171  58.7949085
  69.6951151  22.2798443  58.2280397  70.4702759  20.9799242  58.2102489
  10.3756249   1.1608932  48.3743954  10.0751543   0.3492261  47.9655600
  11.0293674   1.5072638  47.7670383  76.8474388  40.9992504  48.4782410
  76.0027027  41.0702085  48.9227819  77.0097303  40.0576305  48.4212112
  64.1260481  34.4652987  55.4758215  63.7279129  33.8260674  56.0666704
  63.4046268  34.7590780  54.9195147  49.9817419  17.3543775   1.3202752
  49.6570635  17.0919859   2.1816504  49.2777967  17.1172810   0.7165565
  59.4680929  61.9985437  67.6614475  59.9742031  62.7456856  67.9805994
  58.7447166  61.9162464  68.2828903  62.9384422  68.1554413  54.7412825
  63.3542109  69.0100241  54.8555422  62.9603004  67.7600241  55.6127167
  70.7700062  64.5728207  25.0770092  70.4267550  65.1262808  24.3755150
  70.1880836  64.7379494  25.8188534  26.4101076  59.3031406  39.6922541
  26.2556291  58.5440111  39.1300368  25.7024097  59.2723703  40.3360319
  49.3858624  36.6180277  55.1640272  48.6436081  36.7641020  54.5775509
  49.2244911  35.7544613  55.5440855   8.4803450  29.9307132  30.8963394
   9.2841870  30.4464817  30.8326674   8.6980051  29.0958118  30.4818630
  23.4958792   1.0318656   3.9575016  22.8852987   1.4229690   4.5823693
  23.5834813   1.6876438   3.2657555  52.0521021  24.6292925  67.0704222
  52.5842667  23.9445686  67.4756193  51.6547680  24.2052126  66.3098192
  40.7643127  56.6735744  18.8806915  39.8742056  56.9646406  18.6826563
  41.3127422  57.1279144  18.2411337  74.5879221  36.2209082  43.5581207
  73.7402439  36.3029003  43.1211424  74.4048262  36.4224792  44.4757700
  55.7309294  16.2792015  43.9849949  54.9954844  15.9373128  44.4933891
  55.8501005  17.1726120  44.3072462  43.8684845  34.0528107  52.3051548
  44.1784477  33.2103896  52.6375389  43.5218143  33.8542008  51.4353228
  37.8964567  66.4593267  64.5765591  38.5295391  66.7907906  65.2134037
  37.6590061  67.2252989  64.0539360  51.5988064  70.6131411  46.4140368
  51.0238123  70.0386143  46.9195366  52.3719931  70.0788021  46.2326765
  59.0069771  51.5363789  57.9383898  59.3324423  50.9266472  57.2761726
  58.5439968  50.9825373  58.5669947  81.3117027  48.1709576  55.0064087
  81.4444637  47.3652840  54.5069075  81.1191845  47.8726721  55.8953381
  39.0116596  55.8069801  37.5152230  39.2253733  54.8762083  37.5802326
  39.6151257  56.1456633  36.8538952  41.8312120  74.9055624  35.2925491
  41.5966272  75.0203991  36.2134266  42.5432253  75.5285931  35.1472783
  53.7855196  40.9695959  20.6522036  54.5803165  40.6174946  21.0528898
  53.1294298  40.2842903  20.7792377  46.0549450  70.4892826  57.8317499
  46.9192791  70.0779915  57.8313065  46.1613846  71.2709618  57.2896481
  57.1568966  74.4481993  58.8669348  57.6190710  73.7612915  59.3473387
  56.3641787  74.6069860  59.3793964  76.8971539  32.2602272  47.5306368
  77.2841549  31.5266776  47.0527554  76.1332273  32.5087905  47.0101881
  58.7871170  43.3406448  41.9692135  59.0244389  43.5481644  41.0654211
  59.6177340  43.1188393  42.3900604  84.6378613  33.5814285  33.8600373
  84.5914173  32.8386855  34.4620395  84.5844078  33.1876397  32.9892302
   1.5585431  40.9257555  57.5659513   1.0793215  40.8472633  56.7410755
   2.4404956  41.1920309  57.3061657  39.3418574  72.8724194  57.9087019
  39.0198922  73.6458492  57.4456978  38.5565972  72.4734211  58.2834005
  64.2125130  56.3242912  37.6019454  64.3264437  57.2717571  37.5273919
  63.4255314  56.1366940  37.0903802  76.5115213  10.4435480  31.1837173
  76.9002247  10.6164646  30.3262568  75.6661034  10.8917093  31.1582232
  64.7083712  11.8152392   5.1967585  64.2819357  12.3206151   4.5046777
  64.7547245  12.4175322   5.9392715  43.3862066  51.1864185  41.4947510
  42.4648952  50.9493542  41.3888454  43.4249115  51.6228962  42.3457623
  25.4077101   8.4388274  36.8426585  25.3793430   7.7788603  36.1499333
  25.9660745   8.0534542  37.5178981   1.3612458  31.0418797  36.9090652
   0.8321814  30.2528167  37.0261264   2.2009727  30.7206607  36.5805721
   1.8256091  36.8203521  31.5394521   2.7430481  36.6133118  31.3614869
   1.3321258  36.1659789  31.0449815  67.2577000  51.1761522  59.6253014
  68.0336618  51.4052248  59.1137934  66.9752216  52.0033407  60.0154257
  78.4178114  76.7029715  29.5198584  79.1971254  76.8645382  28.9880705
  78.0897141  77.5759697  29.7353935  67.7750254  45.0456762  42.9607248
  68.4345675  45.6081676  42.5547171  67.0082092  45.6097126  43.0611658
  79.1784477  47.8411388  45.2886057  78.8150883  47.7740574  44.4055986
  80.0740242  48.1519794  45.1560926  40.6582403  57.4758005  42.3894691
  41.4626503  57.6076889  41.8877125  40.7305241  58.0866814  43.1228399
  80.4511547  44.9193001  45.5874872  79.9562979  45.7281685  45.4568291
  81.0385036  44.8733330  44.8330688  59.2248344  36.6170287  44.6725130
  58.3833170  37.0145535  44.4487810  59.3030262  36.7384005  45.6187630
  64.3971348  17.1650517  38.7367463  64.9249363  17.3000371  39.5237899
  63.5449839  17.5442493  38.9518809  10.1831925  77.3296499  16.4497447
   9.4115889  77.8814268  16.5778196  10.5758750  77.6516199  15.6383455
  61.0067081  52.5501013  24.9579024  60.1709461  52.2157431  24.6324110
  61.1554909  53.3518600  24.4566298   9.0239072  39.2904282  21.0995889
   8.2724959  39.8146367  20.8224273   8.6910838  38.7579989  21.8220687
  81.3139629  81.5607166  27.6844335  81.5392303  82.0380020  26.8858790
  81.2806797  80.6431961  27.4137449  56.5221596  44.1536331   2.1540135
  57.2368765  44.6680689   1.7788298  56.8582678  43.2576752   2.1768616
  32.3866558  71.9986725  55.0236750  33.0253363  72.0560455  54.3130207
  32.8995419  71.7286634  55.7854271  77.4696445  42.7120781  36.4241362
  78.1506777  42.4136066  35.8213568  77.5115824  42.0970440  37.1563959
  68.7707663  44.0194654  45.9542513  68.6597443  44.5862770  45.1909494
  68.2509708  44.4375896  46.6407013   1.5103129  59.6049738  51.3862705
   1.3835159  60.5527353  51.4299154   1.1163782  59.3487787  50.5523586
  51.4478445  73.9466286  38.2796669  51.0494423  73.6802673  37.4510765
  51.4263821  74.9033642  38.2591200  26.7940831  12.5575411   0.9400506
  26.2043047  11.8646240   1.2371349  26.6757011  12.5820577  -0.0094843
  77.8639984  35.6217360  43.2579994  78.4363556  35.7269835  44.0179729
  77.3963976  36.4544320  43.1931734  56.9738150  19.7263896  32.1594024
  56.8721724  20.6293750  32.4602628  57.8687811  19.4915438  32.4045920
  61.4420891  68.3570766  13.6497331  60.9136105  67.8693438  14.2814469
  62.2500896  68.5613775  14.1205072  58.3441830  44.6969938  48.3197927
  57.7999163  44.8764753  47.5531149  59.0207052  44.1006565  47.9989576
  58.8952446  56.9492435  15.2993667  58.6795759  57.6184464  15.9488952
  59.7053146  57.2600698  14.8951352  50.1431227  60.4952240  56.0104656
  50.1607180  61.2743950  55.4547501  51.0649300  60.3017998  56.1810017
  61.0939693  26.3301229  36.2903810  60.3610134  25.7216358  36.3839245
  60.6815100  27.1871090  36.1822963  56.2364626  66.4036560  66.7968798
  56.0223389  67.1403885  67.3692560  56.9264412  66.7381382  66.2239218
  68.6713791  50.4123354  50.3369045  69.5327568  50.0368977  50.1544094
  68.0882168  49.6556902  50.3972387  60.6776190   5.0946498  66.2516260
  60.2178240   5.8737528  66.5643883  61.5487909   5.4106963  66.0120392
  56.1239290  43.3704901  53.5145187  56.5772915  43.3116055  52.6735497
  56.5912724  42.7574730  54.0819979  76.4646006  44.1385555  54.6743250
  75.7976341  43.9125395  55.3226376  77.2957611  43.9499760  55.1100302
  77.0352125  11.9579411  69.1646481  76.2576532  12.4282503  69.4653893
  76.9783306  11.1032534  69.5918560  65.8758354  49.2295027  71.0163641
  65.1273251  48.8268995  70.5760479  65.4933453  49.7000551  71.7569876
  44.8074102  44.6407938  49.5951462  44.8006248  45.5496740  49.8953438
  45.6529570  44.5391941  49.1581535  77.5322962   9.2459452  42.1212864
  77.7636909  10.1568151  42.3029566  78.3722305   8.8088900  41.9808292
   2.4693260  52.3618412  49.4792700   3.3938959  52.1578217  49.3386316
   2.4739741  53.0432224  50.1515245  56.7914391  75.5607224  67.7699089
  56.2126398  76.0295343  67.1687078  56.3253021  75.5682802  68.6059046
  54.1073895  34.5151639  54.9896145  53.3737326  35.1004243  55.1778984
  54.8664331  35.0949907  54.9273014  82.5388050  24.3168354  45.6843090
  81.9447422  24.9047041  46.1509323  83.3693027  24.7916675  45.6520939
   7.1189147   0.1663650  30.7405758   6.4576298   0.6083313  30.2080345
   7.7895272  -0.1044863  30.1135588  38.1348157  12.1022427  50.9931993
  37.7992463  12.6902521  50.3165388  37.3542523  11.8047261  51.4605713
  26.1339855  54.7014999  15.5986691  25.9090424  55.6086588  15.3920364
  26.0328603  54.2347479  14.7691226  52.8808594  51.7155361  29.4039750
  52.4561501  52.3698521  29.9587083  53.6199379  52.1789408  29.0099525
  70.3387547  68.0699635  54.5519686  69.7016430  67.8611565  53.8687992
  69.9251270  68.7678623  55.0599861  78.4235764  13.4865403  70.8272505
  77.7563763  14.1706991  70.8820391  78.1721401  12.9674113  70.0633669
  77.8029203  78.5291052  49.1158819  77.2680664  79.3218803  49.1567326
  77.4568272  77.9705524  49.8119164  44.9108267  52.5870180  26.9951439
  45.3329468  52.7033377  27.8463292  45.0315475  51.6592932  26.7927122
  85.7861710  68.1811810  38.1437802  85.8802605  69.0098810  38.6134934
  84.8508167  68.1207800  37.9496217  70.6516647  75.6576061  54.6276093
  70.8262110  76.5431261  54.3088341  69.9728155  75.7719326  55.2926874
  32.9878259  65.4111958  60.1830339  33.0468678  65.3832722  59.2280674
  33.8776755  65.2265167  60.4835224  41.2105846  20.7253718   5.0410712
  42.0939684  20.6639838   5.4045171  41.3303661  20.6058693   4.0989441
  70.6429672  64.7966862  33.3451843  69.7569370  64.4553280  33.4662366
  70.5801392  65.7191753  33.5927677  66.1666298  62.7602625  17.4601090
  66.9973326  63.1058216  17.7868509  65.7845306  63.4843159  16.9641483
  35.8471775  19.7964895  64.4957018  36.2688351  18.9436054  64.6007013
  36.5708160  20.4043531  64.3437767  80.9371281  50.5377197  28.0590272
  80.4005527  51.3298225  28.0887747  81.2420177  50.4888439  27.1529984
  19.5532250  14.1003942   1.0083821  19.2988682  13.8551390   1.8979798
  18.9634669  14.8189509   0.7801433  13.8667345  46.9466877  59.5189476
  13.5134447  46.0581636  59.4748640  14.7379708  46.8776655  59.1285467
  75.7449150  52.0084238  33.8547516  75.0795221  52.0724535  34.5398712
  75.4843998  51.2457085  33.3383918  44.5659447  22.0197177  48.5962963
  44.7507524  22.3598742  49.4717216  44.1810942  22.7604413  48.1278419
  28.6449552  10.0616527  50.6082010  29.5067906   9.6460563  50.6355906
  28.0905461   9.4992507  51.1490917   6.3277125  75.2290440  33.5483313
   5.9573531  75.4126501  32.6849914   6.7327136  76.0541296  33.8156128
   5.4610634  69.5023155  25.4889441   5.9026355  70.0720072  24.8591065
   6.1280519  68.8649035  25.7440162   1.4171275  44.1333532  52.0224762
   1.3787006  44.0838814  51.0673285   2.2479260  43.7163067  52.2506809
  55.3768253  76.3849163  28.9418745  55.8224630  76.8573380  29.6450520
  54.5334816  76.1340857  29.3188214  50.2205753  48.1616640  53.0614853
  50.1219654  48.9893198  53.5321188  51.1662817  48.0185270  53.0242205
  23.3248520   5.6220829  43.8446760  22.4099302   5.7366532  43.5877323
  23.3060026   4.9137399  44.4882059  41.1729622  51.6151953  23.4666038
  40.8232880  50.8906031  22.9480219  41.8929386  51.2278557  23.9644313
   5.8081675  38.9564490  38.4858847   6.1962718  39.5005798  39.1711068
   6.5360862  38.7575054  37.8969979  44.8071671  61.8355989  29.1679168
  45.1624489  62.2846937  29.9349380  44.7827911  62.5076962  28.4867954
  74.3649197  36.9676137  28.0318594  74.1361141  36.4445210  27.2635794
  74.7483349  37.7672744  27.6716232  69.1601610  81.4203548  69.8679924
  69.9127817  81.8791199  69.4947147  68.5199213  82.1108437  70.0399065
  68.1140041  55.7629585  41.4454412  68.2013130  54.8782969  41.8003798
  68.9438868  55.9238529  40.9963989  83.3949757  76.3257694  32.0038056
  83.4718418  76.5593290  32.9288864  84.1167641  76.7892170  31.5789962
  72.2608709  39.2381620  18.4780276  72.3003483  39.3840671  19.4232178
  72.8222847  38.4772539  18.3294833  44.1628885  73.8089848  50.2568865
  44.4728899  73.8928604  51.1586046  44.0233183  74.7104168  49.9667692
  84.6414471  50.9520435  48.2556820  84.4579983  51.8546677  48.5161448
  85.5697632  50.8294249  48.4542656  56.0108376   0.5397039  69.3998957
  56.6933680   0.1613907  69.9542046  56.2267828   0.2409743  68.5165167
  67.5825357  51.2722111  71.2310553  68.3025646  50.7776737  71.6224909
  66.9125509  50.6140375  71.0462284  67.1941710  77.5321531  47.1843719
  67.8581142  76.9590712  47.5677633  67.0691156  78.2227612  47.8352594
  10.2184665  50.1616192  61.5741062  10.2350032  49.7926807  60.6910181
   9.7984314  51.0153151  61.4691925  86.3251209  74.9247265   0.0370471
  87.0108891  75.0367403   0.6953815  86.0943699  75.8166742  -0.2225906
  49.5087385  55.9600258  43.3321905  49.0378571  56.0333061  44.1623354
  49.1869450  55.1457453  42.9453707  70.3541660  52.3282671  43.6203718
  69.5482683  51.9287539  43.9477062  70.4631758  51.9628763  42.7424002
   8.1113982  10.6954539  25.0181580   7.6183510  10.1396811  25.6216908
   7.4943525  11.3828468  24.7672033  34.8673439   2.0823283  26.5835118
  34.2567730   2.2753626  27.2949696  35.0721979   2.9373506  26.2050891
  66.7591476  10.8910370  65.9605360  67.2114658  11.4180160  66.6192675
  67.2121906  11.0910559  65.1414013  52.8705454  63.0722857  35.2414322
  52.1551800  63.0132294  34.6081901  53.5402536  63.5932302  34.7983289
  76.6876459  79.5170832   1.7433038  77.5477171  79.8245192   2.0296547
  76.3364887  80.2391338   1.2221804   3.6744276  34.4569325  56.6695881
   4.1833130  35.1759315  56.2950134   4.2513454  34.0740633  57.3305035
  46.7289782  30.7663345  63.7583399  46.9552088  31.6963077  63.7724495
  46.9282055  30.4579353  64.6423244  65.0485563  28.9642453   4.0856752
  65.3697157  28.2131815   4.5846662  65.3441954  28.8008785   3.1900528
  17.8009760  13.3020103  69.6557760  18.1705773  12.6303387  70.2289104
  17.0732594  13.6703742  70.1567459  51.0729074   7.7310836  19.7521484
  51.7114305   7.8147340  20.4603338  50.2283812   7.6644045  20.1977491
  64.5272303  13.4001970  47.4622059  65.1651382  13.0783033  46.8252659
  64.8883486  13.1470335  48.3117533  74.1111183  78.2107687  54.5220900
  73.8696909  78.2876730  53.5990334  74.6492147  77.4202347  54.5638561
   1.0365911   6.7081869  12.5083828   1.5809971   6.0470068  12.9358113
   0.1795248   6.2914413  12.4189818  51.2404156  44.9892616  38.7884688
  51.8416548  44.5909834  39.4178438  50.5320358  44.3519449  38.6976027
  31.9144917  68.0813980  60.2223682  32.4483252  68.7035084  60.7165623
  32.3527646  67.2393227  60.3450727  53.5496902   2.9418266  39.5195866
  53.8042974   2.6972181  38.6298823  54.1914225   2.5063640  40.0806379
  71.7819595  67.6014853  11.2903655  71.3881016  66.7311859  11.2297106
  71.0600471  68.2040787  11.1116123  76.9294214  77.5740385   5.7932645
  76.2778091  78.2734537   5.7437485  76.4994144  76.8174219   5.3946972
  60.1747990  74.9186420  55.0491619  59.4045115  75.0513411  54.4966412
  60.6652403  75.7374811  54.9770212  59.3513060  76.1603642  45.4106665
  58.8550138  76.1350298  44.5925665  60.2084970  75.8009529  45.1820278
  84.5047951  54.4733620  32.9350495  84.8387527  55.2053833  32.4165440
  84.1882801  54.8769999  33.7432075  62.7399540  70.1791954  28.9339304
  62.4903536  70.9412718  28.4112763  63.4913826  70.4763699  29.4470310
  62.3582649  76.1510563   8.1763530  61.4925766  76.1209011   7.7690327
  62.9627991  76.2772989   7.4450290  87.4392223  66.2232447  27.2812963
  87.4284458  65.4182434  26.7635250  87.5062275  65.9239435  28.1880260
  67.7715206  37.5960970  31.2256765  68.0891085  36.7617416  31.5709639
  68.4849548  37.9132700  30.6719208  80.6120968  78.9946032  49.6766806
  80.4268551  79.8454666  50.0741100  79.7791243  78.7242985  49.2902660
   7.7874810  71.2935495  13.9576948   8.5384840  71.8863487  13.9291823
   7.9856724  70.6901693  14.6738553  12.1899796  13.6808968  28.7783051
  12.2300398  14.4280171  28.1812811  12.1318281  14.0732813  29.6494436
  78.0844116  55.9655762  70.8957052  77.5882626  55.3674507  70.3368568
  78.7840891  55.4253674  71.2629366  80.5272579  77.3969078  19.6911252
  80.3583717  76.4807606  19.4711685  80.2428246  77.8850937  18.9184630
  29.6872950  30.8579493  17.7167869  29.1995096  31.4563131  18.2826996
  29.0394950  30.2110600  17.4372864  52.5651932  56.1352634  52.0772314
  52.3397207  55.8815622  52.9722309  51.8147039  55.8559656  51.5528345
  73.6476707  38.3190870  24.4021440  72.9134798  38.7677598  24.8215389
  74.2953396  39.0078235  24.2524862  75.9619999  45.4225397  68.2762718
  76.3686180  46.1971521  68.6646986  76.4707470  45.2575922  67.4824190
  40.7457733  66.0826397  56.5807867  40.4824352  65.4993916  55.8689499
  39.9208927  66.3742876  56.9690466  74.9124336  49.5839691  44.1113091
  75.6174374  50.1780081  44.3688297  74.1894102  49.8009777  44.6998453
  85.6887913  75.7773161  22.9981947  85.1668739  75.6098270  22.2134781
  86.2938690  75.0371552  23.0458927  39.9265983  -0.0761063  67.7069855
  40.4935875  -0.5797703  67.1229696  39.7381368   0.7279937  67.2231150
  40.5107641  43.3375549  53.3388805  40.1552916  42.4791956  53.1084681
  41.3904715  43.3416033  52.9616070  52.9230738   9.8438853  11.0106742
  52.4534130  10.2465332  10.2802467  52.8865433  10.4979563  11.7085922
   0.2389222  25.4385424  37.8814626  -0.0167213  25.9751725  38.6317325
   0.4344474  24.5799160  38.2566452   2.8274503  47.3408937  54.0889692
   3.5416454  47.2619629  53.4565735   3.0640581  46.7381763  54.7939348
  80.1486397  43.8683891  26.4040065  81.0309124  43.5013485  26.4596581
  80.2780151  44.7515917  26.0583878  62.8792286  73.1217098  46.6691780
  63.3603811  72.3319054  46.4223337  63.5222244  73.6591387  47.1317291
  87.3353100  67.8413057  69.0988350  87.5692368  68.3832312  68.3452940
  86.6219425  67.2867918  68.7828302  13.5994065   0.1455976  23.6147785
  14.3394566  -0.1206678  24.1603613  13.9093256   0.9258214  23.1549597
  49.0184116  61.7019987  30.0585675  49.0364265  60.9340763  29.4874287
  49.0855503  62.4466467  29.4608855  59.4205666  49.3298292  55.9327078
  60.1473713  48.7652826  56.1959124  59.7263765  49.7564459  55.1322651
  75.6714010  34.9634862  14.2309868  74.9291372  34.5901251  13.7557173
  76.1912632  34.2051315  14.4972038  77.9468870  32.7842474  42.4533081
  77.7941513  33.6488414  42.8345966  78.6451530  32.9244685  41.8137789
  48.1781340  57.9684591  41.8106842  48.6827517  57.3039103  42.2796822
  48.4692717  58.7994528  42.1860790  74.2080402  46.3025045  24.4044542
  74.5945406  47.0762253  23.9943314  74.3046951  45.6109047  23.7497973
  60.0038910  39.0702868  31.1238384  60.4924726  39.5894766  30.4851222
  59.3130445  39.6571398  31.4313531  87.3538971  43.1781578  57.8455448
  87.3443890  43.6323500  58.6880732  87.2350311  42.2551823  58.0696535
  38.8861942  29.4697213  16.7986584  39.3287492  28.8532972  17.3820961
  38.9406204  29.0624547  15.9341335   5.8216739  75.2648163  25.4726839
   5.7941270  74.6447515  26.2013721   5.3798652  76.0458231  25.8059454
  22.3442030  23.5305452  60.0750542  22.4333096  22.5777912  60.0516224
  21.4140177  23.6881566  59.9133635  66.7310429  15.9012389  64.9216270
  66.2167883  15.1050961  65.0555182  67.3757887  15.6608355  64.2562342
  77.9320908  62.8756809  48.7889862  78.5995245  63.0705833  49.4468451
  77.2345829  62.4386978  49.2776155  85.6614971   7.5643510  50.7329512
  85.7119751   8.3070552  50.1312208  84.8697662   7.7253413  51.2462473
  26.6430521   7.2539788  48.6457062  26.0487318   6.5899807  48.2962465
  26.0810089   8.0076081  48.8256598  74.9524021  61.4280224  62.0114660
  75.7624912  60.9482574  62.1841288  74.3858576  61.2162590  62.7533627
  63.2566404  79.9631310  59.3414783  62.9602528  79.9998426  60.2508926
  64.1670370  80.2569675  59.3742275  85.4628563   2.5790480  37.7569199
  86.1467838   3.1382871  37.3885131  85.0868893   3.0975226  38.4683013
  66.8903017  60.8919239  40.1180029  66.2916040  60.3489780  40.6308365
  67.3137140  60.2792883  39.5166492  -0.2035650  13.4565783  24.7936368
   0.2616686  13.7379193  25.5814433   0.4657407  13.4509981  24.1093636
   8.9206481  66.7260408  56.9160509   9.5657426  66.9395208  56.2418795
   8.7632608  67.5550127  57.3680115  74.6239233  14.7578144  67.6773500
  74.5566034  14.3203282  68.5260582  73.8868332  15.3683329  67.6634598
  45.5695200  33.7051463   7.9337317  45.9289503  32.8284907   7.7976632
  44.7533464  33.5578537   8.4116381  25.1622939   8.2897490   1.2336904
  24.9035645   9.1532707   0.9117851  25.1172781   8.3660614   2.1867812
  29.6115994  17.7860820   0.8254852  28.8752842  17.5936615   0.2449284
  29.2184830  17.8574657   1.6953102   2.5913575  65.2728558  30.7546139
   3.4269503  65.1183701  31.1952400   2.2203313  66.0321379  31.2041211
  40.4266739  81.3302517   6.3342583  40.5031681  81.4164734   5.3840226
  40.4344463  82.2310543   6.6578799  16.2041128  18.7137616  28.8947368
  16.3526368  18.5677147  27.9604769  15.4067481  18.2216275  29.0902996
  53.9368200  60.7024193  41.5831757  53.2771540  61.2613106  41.9939232
  53.4435081  59.9499035  41.2566853  69.9919081   6.8813628  53.9946604
  69.3427181   6.4500797  53.4389877  70.1111031   6.2831157  54.7323132
  59.2932749  58.4484673  51.8132782  59.0066099  59.3321943  51.5828848
  60.0604820  58.5829592  52.3696375   7.7400321   0.1614831  42.4229193
   7.4947560   0.1491208  41.4977598   7.1136820   0.7608154  42.8287745
  42.4619913  60.8578110  32.8779387  42.8548145  61.7271280  32.9567599
  42.9105043  60.4590225  32.1322632   3.9551279  14.5202351  13.7461591
   3.3034042  13.8974428  13.4242618   4.7208562  13.9826000  13.9482486
  21.1404467   3.1239542  19.1411769  22.0835257   3.1953117  18.9937162
  20.9109712   3.9233065  19.6151054   4.7290027  57.0899153  62.3651600
   4.0817517  56.5276623  62.7907991   5.5696994  56.7945147  62.7147293
  85.1614571  39.3370914  40.3467798  86.0502148  39.5366716  40.0526619
  84.8565769  40.1474762  40.7548904  49.1090393  55.5228710  22.6947045
  49.7660875  55.6467104  23.3796740  48.8354301  54.6103096  22.7874470
  60.0978041  78.9452553  50.9296513  60.6164742  78.2096004  50.6040430
  60.0560379  79.5539093  50.1920700   9.6749234  70.0466967   9.5619029
  10.6023371  70.0551224   9.7986817   9.6387857  69.5355988   8.7533826
  64.2882347  48.7301731  38.0781794  65.0324106  49.3270111  37.9992986
  63.6118460  49.2472267  38.5156536  78.2689285  47.1246481  33.0629158
  77.3243952  47.2738647  33.1056094  78.6539268  47.9199028  33.4311271
  43.6072111  68.7318802  66.4598751  44.4665909  68.8056993  66.0448408
  43.3301592  69.6373892  66.5996361  18.5124123   1.7374694   8.3140397
  18.7855875   0.8215131   8.2627499  18.3993471   2.0051160   7.4020016
  59.7253180  55.3619289  33.0692935  60.1244402  54.4919729  33.0585456
  58.7927723  55.1993752  32.9272676  58.5663414  50.0677061  63.2247686
  58.5208702  50.7449818  62.5498915  57.7740288  50.1957655  63.7463713
  44.2473793   1.5025949  65.5047607  44.9536467   1.2872501  64.8956251
  44.6844721   1.9484216  66.2303066  14.0641344  17.3036718  29.6494532
  13.7628376  16.5600276  29.1274905  13.2844567  17.8468108  29.7649288
  44.9048758  32.8404093  60.6334686  45.3324699  31.9938517  60.7628250
  44.0169144  32.6197529  60.3522921  52.0074701  66.5655518  42.2154188
  51.2848377  65.9402895  42.1599340  51.7332268  67.1895266  42.8874874
  62.6084328  76.3950109   0.8022185  61.7207336  76.6252041   0.5279250
  62.8234673  77.0358562   1.4799406   3.9531833  63.6500025   8.9753318
   3.4010163  62.9636335   9.3498218   4.8433903  63.4063053   9.2290539
  85.7937145  59.5785141  39.0439415  85.8894444  60.2127552  39.7544384
  86.6902065  59.3167448  38.8341451  69.3479252   9.3729192  36.3405013
  70.1847172   9.7305214  36.0436296  68.7284613   9.6078104  35.6496167
  52.0845175  71.3133812  68.4221220  52.3388290  70.4059935  68.5900688
  51.8697834  71.3332510  67.4895334  25.2495956   5.5289519  46.5951967
  25.0188780   4.8373413  47.2154188  25.0159717   5.1705050  45.7389450
   9.4379586  30.0087500  67.7222729  10.3941882  30.0518155  67.7210665
   9.2390078  29.1101146  67.9851532   4.7939688  78.0416632  29.8304915
   5.5684185  78.5306072  29.5522952   4.3817320  78.6005354  30.4892421
  16.5119648  33.4358716  36.7368937  16.9147277  32.8413248  37.3697662
  17.0139968  33.3052635  35.9324455  24.5826578  19.9243736  57.9549646
  24.5995617  20.5836272  57.2611856  23.6724949  19.9115491  58.2510567
  32.0066333  80.6682587  50.3515720  32.9393315  80.6196785  50.1419401
  31.5764165  80.7837009  49.5043325  41.4708567  56.7008352  66.4777422
  40.6860399  56.1548853  66.4304686  42.1031952  56.2609673  65.9095049
  75.4190922  56.5074539  60.9155226  75.0659704  57.3460293  60.6183243
  75.7013178  56.0685110  60.1130867  73.7433815  76.9811249  40.0222301
  73.5024405  76.5464640  39.2041564  72.9138422  77.0958424  40.4858446
  35.6920052  20.7121539  14.3989956  35.6738782  19.8441887  13.9958334
  35.2172351  21.2716866  13.7843823  49.4398689  62.3880768  40.5631304
  49.4674635  62.5052834  39.6135354  49.1950989  63.2485199  40.9036541
  33.6552882   9.6660155  26.9685769  33.3059263   9.6106380  26.0791326
  33.7264729  10.6050634  27.1399069  39.1954088  72.1027374  49.7590733
  39.9927855  71.9984818  50.2782536  38.5037947  72.2379637  50.4068518
  57.2263432  61.6762257  38.5863638  56.4403868  62.1146870  38.9123249
  57.2573233  61.9003201  37.6562810  48.2122374  69.4851828  35.9947729
  48.1173182  68.7800312  35.3544760  47.9071569  69.1038370  36.8180203
  59.2173815  68.8365746  24.9916005  58.7835217  69.5033073  24.4591904
  59.1158628  69.1455412  25.8918571  80.9520721  60.7187843  37.3529029
  80.0842667  60.4116869  37.6152754  81.3918114  59.9370575  37.0185947
  79.1254997  57.0832825  20.3941655  78.5911179  57.5066948  21.0660172
  79.4195700  57.8016615  19.8340905  10.7781434  30.2769113  28.8079643
  11.4029145  29.5517588  28.8010263  11.2448132  30.9991598  28.3874822
  65.1866388   4.9111345  38.3133698  65.2617884   4.5528734  39.1978097
  65.4657698   4.1965210  37.7409673  30.4963112  67.4574232  27.6516223
  29.9157691  68.1563663  27.3504925  31.1783576  67.4073744  26.9818902
  66.9747543  42.8666401  16.5682447  66.2665081  42.2546339  16.3680768
  67.2079563  42.6743221  17.4764633  16.9201946  48.3926964  30.4847980
  17.1715772  48.9874458  31.1914134  16.0347641  48.1098700  30.7133937
  36.6373062  10.3435242  23.4952831  37.5911236  10.3790319  23.5674191
  36.3520694  11.2448955  23.6449575  85.1337242  38.6601329  31.9970465
  84.6742821  37.8527069  32.2277188  84.9844456  39.2419362  32.7423334
  21.7151260   1.7205295   5.9492671  22.1939611   2.4524206   6.3382196
  20.8370185   2.0665383   5.7897830   2.7254450   8.8208669  46.3610792
   1.9006446   8.3707201  46.1785889   2.9415414   9.2663288  45.5418730
  22.0836186  11.2039125  38.7979984  22.8033638  11.2086880  38.1669855
  21.3774133  11.6783953  38.3593965  10.2191234  60.9169197  32.6552725
  10.1892960  60.9789991  31.7005515  10.6057322  60.0583696  32.8275013
  87.7571869  41.9574738  39.1591024  87.1450615  42.0204735  38.4259129
  87.9728603  41.0263729  39.2117238  82.1577454  61.5510988  41.2754154
  81.4329243  62.0580959  40.9095860  82.7213669  62.2040796  41.6903591
  58.9145136  16.3885450  45.4568291  58.5223341  15.7258451  44.8882723
  58.9437151  17.1792984  44.9182272  71.8893766  66.1129045  46.5664101
  71.5981007  66.3689709  45.6912994  71.0922432  65.8199596  47.0079947
  66.1864805   7.8207743  61.1964464  66.7420769   8.4610081  60.7518721
  66.0309029   7.1418065  60.5399179  32.8335476  80.2164936  35.9212422
  32.8735328  79.4325733  35.3734326  32.0721221  80.6970882  35.5964398
  35.6796932  20.9305406  45.0468874  35.6586504  20.9328127  44.0899229
  35.1858258  20.1491714  45.2954626  73.0714607  64.0237427  34.1579413
  72.1592283  64.2024803  33.9296436  73.3136320  63.2771873  33.6100030
  13.7448287   0.3033700  45.7265520  13.3875394  -0.3424428  46.3360596
  13.3348548   1.1288851  45.9847736  34.6670127   0.2360322  47.7071762
  34.1671205   1.0430270  47.8300524  34.2281008  -0.2096197  46.9826174
  57.9502773  79.7368431  61.8985415  58.2423735  80.2071285  61.1176825
  58.6096954  79.0552521  62.0283079   1.7625311  59.4938612  20.4026556
   2.5197273  58.9689207  20.6621289   1.2549946  59.5964384  21.2077141
  36.3526940   4.8559001  36.4265513  36.1750364   4.0302980  35.9759402
  37.1276331   4.6762604  36.9589329  16.6387057  52.5996637  52.8364515
  16.2600529  53.3938646  52.4594927  15.9540725  52.2573900  53.4112167
  18.0906034  70.3384876  55.5810976  17.5319123  71.0649061  55.8575201
  17.7419960  69.5778561  56.0460138  54.6832991  60.7674980  35.4958725
  53.9209795  61.3343525  35.6132507  54.6243954  60.1354885  36.2123394
  25.1630044  62.0348358  49.2284536  26.0995150  61.9087982  49.0758228
  25.0093746  61.6613483  50.0962877  33.3118057  13.7420011  56.7521000
  34.2246604  13.4568036  56.7919588  32.9006481  13.1427681  56.1291218
  66.1993122  20.9839821   7.3496288  65.6816006  21.2264204   6.5818858
  67.0463991  20.7169771   6.9927144  83.3624649  63.1900883  48.1322575
  83.9404488  63.7259150  47.5890636  83.4775639  63.5354996  49.0175152
  65.5716324  42.5671959  37.9236126  66.3597870  42.9895973  37.5821209
  64.8848915  43.2267857  37.8258514  81.0848427  71.1475420  56.2814522
  80.7724285  70.7171440  55.4855919  81.7571068  71.7567205  55.9761906
  20.0774980  22.3437190  67.0944643  20.2410960  23.2840538  67.1668386
  19.3271744  22.2758961  66.5040016  51.6887760  18.3146417  33.6297679
  51.2923479  19.1223741  33.9563394  51.0496044  17.9690397  33.0066657
  84.5630646  70.9152889  36.8171883  83.9717770  70.1625633  36.8198681
  85.3687763  70.5883741  37.2174120  34.5549870  81.0680485  49.1313601
  35.4429698  80.9537220  48.7927628  34.0668058  81.4468002  48.4002972
   6.7815959  73.9591360  39.9789810   7.5910193  74.3702412  39.6755719
   6.4780647  73.4462690  39.2299366   0.5422007  40.8511400  11.1663246
   1.4288846  40.6853628  10.8461010  -0.0079814  40.2416182  10.6743717
   4.8991802   7.7704424  63.8889885   4.9521163   7.9301155  62.9466820
   4.7127780   8.6296755  64.2674112  15.0974500  77.5542450  38.0999851
  14.2750466  77.9657030  38.3656669  15.6070447  78.2658386  37.7124572
  76.5623331  76.5433550  46.7775297  76.4050722  77.4714231  46.6037750
  77.4618053  76.5097141  47.1031857  71.0976505  77.5111008  68.4486437
  71.6375113  77.7260780  67.6880026  70.2844763  77.9966879  68.3101368
  83.3730793  80.0836372  35.9155321  84.2894077  79.8444414  36.0546899
  83.3961582  80.7092381  35.1914382  31.7577267  22.6409006  48.6810541
  32.4634886  22.0343876  48.9052725  31.1380816  22.1120548  48.1784678
  17.5662196   4.9876484  61.4743233  16.9678974   4.2632779  61.2912083
  18.0331790   5.1267207  60.6504059  21.3091063  52.3504162  48.3265495
  22.1546340  51.9324017  48.1635189  20.6635284  51.6786098  48.1071424
   9.8825711  61.6807556  53.7029982   9.9145752  61.5648699  52.7533770
  10.7849789  61.8827200  53.9501905  16.9133818   1.9696207  28.5594273
  16.7552674   1.0654775  28.2878447  16.3946378   2.0743243  29.3570304
  37.3810291   7.4181885  49.0592432  37.3921418   7.2890860  48.1108522
  38.3045959   7.4767983  49.3038225  12.1597004  20.7851148  31.3060737
  11.9311690  20.0973749  30.6807590  11.3729823  20.8941317  31.8403220
  71.6105747  35.0266027  39.6177578  71.1235666  34.2563391  39.3249249
  72.0995569  35.3089237  38.8448262  68.1896591  19.2951107  56.1705637
  67.7431583  18.4491909  56.1346388  67.5094414  19.9138796  56.4363813
  28.8363552   7.2116452  21.5532804  28.2275867   7.9477936  21.4923167
  28.9829683   6.9462657  20.6453657  80.7486534  59.7375441  16.5341234
  80.2670288  59.6860075  15.7085228  81.6671276  59.6425390  16.2819386
  38.6942434  63.0221272  66.7930698  38.1508827  63.7641859  67.0582819
  39.0811729  62.7048588  67.6090717  16.9093847  75.2481937  18.2210910
  17.6471412  75.7876635  17.9366267  16.9499159  74.4726944  17.6614559
  70.2904654  57.1267891  68.8376474  70.2768373  58.0508661  68.5883904
  70.0592089  57.1258259  69.7664928  46.5005064  22.5573826   7.8643912
  47.0040798  23.2971597   7.5247270  46.5455198  22.6536131   8.8156778
   0.2075999   2.1409474  28.4625006   1.0545964   2.0232160  28.8925815
  -0.0256826   3.0524716  28.6383843  71.9858742  53.0643940   7.0219618
  72.5523138  52.4571943   6.5458471  72.5492287  53.8126373   7.2194564
   0.2077070  72.2431755  64.2820406  -0.3281492  71.4832783  64.5093012
   0.8269531  71.9134474  63.6308479  13.1108510  11.1159778  25.0470066
  12.2086263  10.9550393  24.7707438  13.0572045  11.2084162  25.9982228
  76.9265795  71.5320158  36.3049388  77.7737665  71.9773579  36.2916708
  76.4170170  72.0061493  36.9620371  10.6064045  22.7881432  22.5538945
  10.1493037  22.0613980  22.9771304  11.2071860  22.3675108  21.9387841
   4.7475201   0.8615016  40.0660706   4.2307824   0.7709220  39.2654395
   4.9518907   1.7953557  40.1148653  16.2846196  82.5920677  53.4168720
  15.9425199  81.8128681  53.8550997  15.9532821  83.3242130  53.9368773
  65.6959152  63.4211063  40.3774405  66.6471004  63.5244608  40.3492212
  65.5226326  62.6501560  39.8372173  27.9848313  14.8717630  55.1375198
  27.2289181  14.3106508  55.3106689  28.5196638  14.3700075  54.5223570
  78.5156870   3.4919739  57.8594398  78.5082102   2.7877957  58.5077524
  77.6782799   3.9391732  57.9818869  69.8952913  62.2310305  31.8999529
  69.7346544  62.8453970  31.1837268  69.7728539  61.3670921  31.5064430
  10.6800091  58.1741524   1.0973243  11.2113094  57.7265501   1.7558093
  10.8620477  57.7047682   0.2832174   6.7121023  44.2102146  24.7522902
   6.5494722  43.9130688  25.6475496   7.3992980  44.8707104  24.8402643
   5.2689439  25.4936719  39.3941927   5.9297210  25.4417944  38.7036037
   4.8636281  26.3524318  39.2738438   0.8995746  60.1819134  67.9361773
   0.5111441  60.3803062  67.0841217   0.1592363  59.9132538  68.4801912
  58.4422588  81.3995457  35.3746367  58.6656046  82.2997475  35.6112337
  59.2584276  81.0313129  35.0362420  12.6820326  55.6621504  51.3458824
  12.8172791  55.5705738  50.4027224  12.4767542  56.5888691  51.4695406
  34.8767948  18.6603999  43.4214401  35.7016850  18.4292495  42.9944086
  34.8515964  18.1127393  44.2060852   1.5152057  72.4233007  67.8268957
   2.0354415  72.7271652  67.0830822   1.5204097  71.4692879  67.7490234
  69.3232727  78.8298512  28.9558983  69.5413399  79.2119884  28.1058121
  68.3918238  78.6188459  28.8917971  36.7624354   7.3749346  34.6626329
  35.8757210   7.1739841  34.3633151  37.2240186   7.6558799  33.8725448
  75.9512711  61.0239029   3.8078475  76.2001896  60.2848959   3.2527435
  76.7150831  61.1727190   4.3652368  54.6129656  45.5649471  44.4162750
  54.0219641  46.2860203  44.1994762  54.1201925  44.7756338  44.1918135
  10.8573949  73.6814213   7.8826952  10.2429271  72.9765415   7.6782441
  11.5113056  73.2722473   8.4494483  86.5950966  14.6006167  38.7741256
  86.2489700  14.4303524  39.6501589  87.2599697  13.9244783  38.6437082
  73.8108444  28.1279707  27.3300433  73.0187988  28.2737517  27.8473878
  74.0018463  28.9805484  26.9390702   2.7501622  82.4340630  31.7557883
   2.3434091  82.2829437  32.6089859   2.0146647  82.4834251  31.1451840
  81.1620712  78.7223959  44.6958351  81.7915249  79.0646267  44.0610933
  80.4705334  78.3325195  44.1610384  53.3365107  76.5527153  48.6433411
  53.5382414  77.1270275  49.3820524  52.5054312  76.1409903  48.8800383
  27.8865647  77.3370266  44.3526793  28.5503840  77.9717779  44.0831089
  28.0354142  76.5797234  43.7864971  47.3171091  54.1253996  51.9539595
  47.5878000  54.8154020  51.3482714  46.9134760  54.5932245  52.6850224
   0.3827630  80.4582214  12.5525713   0.3757979  79.5344591  12.3018885
  -0.4563344  80.5932236  12.9929364  61.5025043  57.2428989  55.8383751
  61.6664934  57.1114445  54.9045324  62.3733664  57.2517586  56.2355566
  68.9069366  48.8052654  35.3440523  69.4216156  49.3799591  35.9106779
  68.7867498  48.0069399  35.8583093  57.6311731  82.8853321   5.1796049
  57.8444767  82.0763493   4.7145537  56.6865635  82.8354645   5.3260851
  82.2285748  68.7940788   9.7591835  82.1125507  68.0046511  10.2879333
  83.1116295  68.7132740   9.3987322  35.4716611  54.5391941  13.6575890
  36.2032342  55.1532269  13.5943902  35.7614183  53.7700987  13.1669080
  81.9902515  76.6339302  48.8098669  81.8309021  77.3728418  49.3971062
  82.4237633  75.9807014  49.3590403  36.8313551   5.4511636  61.1203194
  36.7539167   4.8766357  60.3586388  36.0820365   5.2222317  61.6701746
  85.3306580  61.3217831  36.3231492  85.1138210  61.3625050  37.2545767
  85.9174252  60.5694151  36.2465000  62.6847792  58.3404016  41.5121269
  62.5507402  57.4715281  41.1335468  61.8494797  58.7895536  41.3826180
  23.2947278   3.1435499   8.5442662  23.0994821   2.9845643   9.4677567
  23.1088543   4.0738472   8.4168708  16.3693798   9.1361439  51.8972635
  17.0113182   9.4418699  52.5381041  15.5545449   9.5712584  52.1481609
  79.8492813  43.8507557  20.9475923  80.5293751  44.1749477  20.3571653
  79.1160965  44.4531965  20.8221436  55.1373720  77.7192545  54.4289160
  55.6803751  77.7001095  55.2169609  54.5017242  78.4158802  54.5929050
  29.5327568  81.7809677  26.1606979  29.4515371  81.9072151  27.1060538
  29.0058661  81.0032845  25.9767723  11.2022102  41.1910915  54.1540194
  10.9615803  42.0516396  53.8108158  10.3844476  40.8342648  54.5006752
  17.0775497  15.0028682  59.0381098  16.3104892  15.5692315  58.9539576
  17.0290887  14.4198692  58.2804823  75.5786800  77.2152376  30.4986691
  75.4440546  76.3288736  30.8340335  76.3880682  77.5091219  30.9166980
  53.0933762  59.7215176  30.9003162  52.4806023  60.0114727  30.2245474
  52.5457382  59.2695856  31.5422535   8.2957232  59.2449903  41.8988895
   9.0426743  59.1407251  41.3094664   7.5296015  59.1149521  41.3399839
   6.5534759  46.5403843  69.4027662   6.5992624  47.3304510  68.8643169
   7.2395962  45.9719992  69.0529013  38.8073874  35.5050826  32.4517488
  39.4415498  36.0115886  32.9592180  37.9740977  35.6452155  32.9014397
  11.0942149  10.3608012  18.0437803  10.3431141  10.8505404  17.7087641
  10.9441280  10.3081787  18.9876747  71.2804365  29.7340417  20.8057690
  71.4452171  30.6400132  21.0671043  71.0879993  29.2794275  21.6258454
   4.5266545  76.7181063  46.5850115   4.9208701  77.5742769  46.7517281
   4.7635967  76.1924505  47.3490620  51.2619638  74.6585321  40.8806849
  50.8711052  73.9627695  41.4092445  51.2554789  74.3134308  39.9878812
  54.9616718  58.7502241  37.4355197  55.1075935  58.3704805  38.3019710
  54.8434114  57.9947615  36.8597388  81.0441685  19.8373914  65.3498697
  81.0701180  19.1756344  66.0409784  80.4878902  19.4539058  64.6718359
  49.8846436  73.0800915  35.8519506  48.9348888  73.0133009  35.7532525
  50.1432467  73.7579823  35.2275968   2.8624120  54.2262554  14.5286095
   3.4852135  54.3984318  13.8224185   2.2384511  54.9504805  14.4795442
  64.9804449  59.9977255  67.4455452  65.4249477  59.2871952  67.9079294
  65.6319427  60.3240061  66.8247986  39.6481562  12.0036888  66.8011951
  40.2369261  12.6940215  67.1061897  39.4327092  12.2524524  65.9023476
  86.6943836  45.8160782  45.1493883  87.5233841  46.2493992  44.9463797
  86.1344242  46.0055733  44.3965435  34.1063643  29.5214915   6.5973336
  33.7222385  28.8473558   7.1578890  33.6008167  30.3108382   6.7911977
  10.4803896  42.8160000  29.9091554  10.8538246  42.3377848  29.1688251
  10.0767660  43.5895634  29.5155549  11.6134930  22.8734851  68.9926624
  11.9757771  23.0540609  68.1252670  12.3703718  22.6176476  69.5198393
  63.8238001   0.3848471  38.8808107  64.6307707  -0.1250080  38.9520741
  63.5903168   0.3353978  37.9538417  19.2607045  57.5575542  39.5655322
  18.8143015  56.7975903  39.1921496  20.1023555  57.2163010  39.8678613
   2.6868179   2.5607157  53.9386559   1.7434037   2.7223358  53.9297056
   2.7799425   1.6674438  53.6075592  26.8543386  65.3169250   3.1796861
  26.8973041  64.9705648   4.0709883  27.1245885  64.5850945   2.6250488
  72.6646423  48.4351397  67.0214462  73.1564379  47.7729559  66.5357637
  73.2654905  48.7237453  67.7084112  38.6653566  80.9428120  66.8892288
  38.4350443  81.8521881  66.6988945  39.6224713  80.9317493  66.8827343
  72.3959684  75.7648516  48.7827063  72.2780848  76.2007284  49.6267128
  71.8416691  74.9862814  48.8357401  74.4531202  78.7966108  57.3435163
  74.4518423  78.6100435  56.4046764  75.2316570  78.3495045  57.6754999
  86.9902992  64.8251152  41.2217951  86.7679405  64.0082932  41.6685486
  87.6746273  65.2164555  41.7647362  67.1632385   3.7172621  60.9193325
  67.7057266   2.9621503  61.1468077  67.3749113   4.3730706  61.5836716
   8.9729601  51.7873001   6.3565868   8.0783933  52.1251106   6.3997674
   9.1508126  51.4665937   7.2407514   6.6633731  64.2323923  26.8778038
   6.6361570  64.1501045  25.9245348   7.5522119  64.5330811  27.0669723
  20.9345031  46.4591646  28.1273293  21.6963983  46.8508196  27.7003002
  21.0775328  45.5155563  28.0539513  21.4987946   2.1669725  25.7348037
  21.0829639   1.7284913  24.9924755  22.3260093   1.7007688  25.8556390
  72.1093559  71.9230938  33.1862259  72.8310871  72.3622990  33.6361551
  71.6939688  71.3895988  33.8637710  35.9062743  18.2913351  61.5746593
  35.0290608  18.6600864  61.4709711  35.9060121  17.5125146  61.0181761
  57.1082592  21.8762708   3.3428603  56.3488388  21.4186907   3.7036026
  56.9283628  21.9361830   2.4046277  55.6988478  12.8829861   7.7328384
  54.7822571  12.8293335   7.4622512  55.9469128  13.7911344   7.5597429
  86.8287373  73.9414024  39.5801878  85.9678745  74.0385342  39.9872661
  87.3974705  74.5270443  40.0799847  42.6122332  20.3457284  60.5866575
  42.3177719  19.9938512  59.7465944  43.4429884  19.9009311  60.7546759
  35.2354836  69.0341330  68.5747862  35.1927948  68.1840611  69.0127134
  35.4111695  68.8226700  67.6579189  68.0583239  32.1657085   2.8282133
  68.7408733  32.7058172   3.2265088  67.2604322  32.3999882   3.3022484
  51.8156290  55.0526571  18.5994196  50.8692837  55.0083923  18.7361848
  52.1461010  55.5259275  19.3629885  69.2751980  33.4606719  29.4665623
  68.4403086  33.0534673  29.6975899  69.0362597  34.1865468  28.8901520
  73.0446577  57.7428436  69.4484520  73.2084799  56.9362307  68.9598083
  72.0953512  57.7607346  69.5698261  24.3474555  66.6420937  59.8723412
  24.2935658  67.5472641  59.5657539  25.2746296  66.4174891  59.7940302
  17.2555876  49.3245649  21.5392542  17.0449495  49.4540644  20.6145406
  18.2048821  49.4377518  21.5867949   5.1443058  52.4751854  49.1440964
   5.6860793  52.9690218  49.7595978   5.6694031  51.7047119  48.9275980
  21.3196874   7.3730689  51.2309170  20.5324864   6.8903720  50.9788227
  21.2686992   8.1901872  50.7349825  40.6310844  76.9600010  57.9791546
  41.2143421  76.9181061  57.2213364  39.7503209  76.9349861  57.6051807
   7.3693961   5.8625168  47.5925493   7.5741869   6.2853116  46.7585611
   8.0700362   6.1426413  48.1815052  27.2971320  45.4077339   1.4513561
  26.9261289  46.2528706   1.1977232  27.6110506  45.0279856   0.6306998
  82.6841164  40.5021048   6.1859357  82.2322750  39.8933935   5.6015193
  82.7227116  41.3223410   5.6940520  47.2114944  82.3990250  10.3343439
  47.7441597  82.6603413  11.0854828  47.6434326  81.6148567   9.9956256
   4.1155347  56.6148281  18.2446182   4.5826495  56.1699963  17.5373971
   4.6207231  56.4098549  19.0313864  28.3311939   4.1379732   5.9177119
  27.6391029   4.6871859   6.2859613  28.8081217   3.8102862   6.6802031
  85.5656433  26.6487384  70.3899384  86.0927582  25.8548284  70.4798460
  84.7047615  26.3346148  70.1134539  62.3490286  19.2038417  14.4982541
  62.6023054  18.3554459  14.8619938  62.6121330  19.1585171  13.5790408
  35.8404922   7.1434796  26.9783139  36.7179298   7.5169438  27.0611477
  35.2574301   7.9024833  26.9647908  28.4201550  81.7306614  33.2518148
  28.0491710  81.9527054  34.1058064  27.8291607  81.0651207  32.8996658
  48.4797525   7.8683013  36.4439487  48.4127903   7.8849381  37.3986602
  48.6710310   6.9544041  36.2331533  62.1585131  12.1423626  36.5100312
  61.3984394  12.7205300  36.5751243  62.6530361  12.4800241  35.7632613
  72.2145319  66.2023640  54.9459600  71.5207720  66.8396711  54.7763395
  72.9058313  66.7086983  55.3725290  77.6492500  73.8438225  23.7012196
  77.3826408  74.2798090  22.8918552  77.7460718  74.5543098  24.3353057
  67.0376253  11.7436719  39.5499086  67.1455860  12.5293064  39.0138531
  67.3788023  11.0338020  39.0059280   2.0359807  75.6605148   3.9565259
   1.5896037  74.9484348   4.4146991   1.6998379  76.4572620   4.3669358
  68.4020948  67.2222996  12.7874768  68.3020401  67.6642513  11.9443285
  68.4812784  67.9337645  13.4229159   0.8865356  32.5877500  48.5819864
   1.3381487  33.3872747  48.8522387   0.5985228  32.1865344  49.4019270
  41.2028360  17.5549507  39.4669604  41.5159607  17.6235902  40.3688860
  40.2519417  17.6398742  39.5364356  10.5136859  70.9167814  35.5448604
  10.9171259  71.5749693  34.9789476  10.4015815  71.3601637  36.3857365
  42.1086740  11.5565038  31.2446451  41.5017653  10.9363818  30.8404875
  41.5746546  12.3294997  31.4277649  39.7072196  36.9177413  68.2200766
  40.6037903  37.2037673  68.0452156  39.5742249  36.1738849  67.6325226
  30.8657479   5.8550054  47.8154278  30.3692985   6.4433903  47.2465944
  30.2618623   5.6443250  48.5275841  29.6577501  13.4722900  29.2107940
  30.2738047  13.4783781  29.9433732  28.8976836  12.9932296  29.5409942
   2.7071667  58.8026094  29.9150324   2.7492887  59.3474340  29.1291428
   3.3815390  58.1366205  29.7811961  81.5902519   4.6750200  37.7731347
  80.9742355   3.9808959  37.5387287  81.8524170   5.0557047  36.9349337
  47.7872610  74.8081398  53.7512398  47.6882410  75.7203197  53.4785557
  48.7296724  74.6462059  53.7080717  64.5940018  35.1500344  59.5238829
  65.4195786  34.6705627  59.5929193  63.9860630  34.6612859  60.0786495
  58.8870049   1.7778347  37.7990079  58.7077904   2.0314798  38.7044239
  59.5819521   1.1230890  37.8667760  35.7834983  27.6682281  48.5759449
  35.5053353  27.0604801  49.2611456  35.8474469  28.5147500  49.0181446
  21.5261364   2.0612934  28.7035322  21.1456776   1.2415148  29.0188813
  21.6745996   1.9128092  27.7696466  73.3931780  55.0397301  55.2436924
  72.5926828  54.5296478  55.1201773  73.1961107  55.8923674  54.8558664
  16.5358186  53.0721807  25.3915238  17.4714875  53.2734919  25.3764296
  16.4842856  52.1531773  25.1288295  15.4913449  29.0747380  29.5432568
  14.6137404  28.7947392  29.2831779  15.6751096  28.5773396  30.3401613
  39.2489290  45.7168198  28.4592986  39.0007544  45.3365135  29.3019223
  38.5922551  46.3947296  28.2997751  16.3726282  13.3592808  19.4843435
  15.4528797  13.6083138  19.5753312  16.4609027  12.5696683  20.0181508
  84.4833565  79.7938967  40.7884645  84.7549915  80.5755711  41.2695265
  85.2933884  79.4519329  40.4101419  14.1543925  69.7549868  57.6379156
  13.4659708  70.1452351  58.1764412  14.5887887  69.1311359  58.2195854
  28.4151483  29.9285913  22.9837108  29.1024303  29.9103308  22.3177195
  27.7156138  30.4513025  22.5917244  34.2093468  59.6695185  21.5289593
  34.3860984  60.2048635  22.3025203  33.3862901  60.0139427  21.1822891
  38.1194329  20.7457757  40.0222158  37.6421165  20.8060884  39.1947126
  38.7171745  21.4932799  40.0089598  33.9117479  16.8432462  16.0229445
  33.1142902  17.1104538  15.5658996  34.0345621  17.5090921  16.6995525
  11.2240839   5.6985861  26.9338894  10.4645824   6.1644256  27.2837210
  11.9762862   6.2134635  27.2259927  67.2391033  59.4822550  47.6710749
  67.5751448  58.5861254  47.6548576  67.9234552  60.0023365  47.2498751
  47.5634384   8.3779639  17.4589932  48.1708908   7.8670114  16.9240546
  46.9222260   7.7388746  17.7698672  59.8405170  66.4431667  14.6731436
  60.1645613  65.5428362  14.6480536  58.9854050  66.3781929  15.0983405
  81.0292816  78.9114761   8.7520957  80.7712173  78.0890942   8.3357739
  81.3726521  79.4452381   8.0355614  75.6310749  35.3709960  62.7439260
  75.0966072  34.6709824  63.1188393  76.2842894  35.5604911  63.4174490
  24.3951344  22.0567560  56.0512733  23.5944963  21.9701195  55.5338717
  25.0758958  22.2539783  55.4079247  20.9843683  25.2137113  52.4492598
  20.4522753  24.7560883  51.7983484  21.8617296  24.8461366  52.3426914
  70.9491396  46.3040876  10.2021456  70.9878206  46.0521555  11.1247849
  70.5853891  45.5372715   9.7595263  49.3673897  13.4925604   7.4127454
  49.0392113  13.2684124   8.2835436  49.9975395  12.8014374   7.2090536
  21.7343211  73.8551617  13.6839592  22.5559521  73.4473324  13.9575195
  21.3578558  73.2380152  13.0565560   9.7131979  65.1451826  24.8517942
  10.6282079  65.4260588  24.8615432   9.5645446  64.7829056  25.7252288
  40.8330202  23.5932851  25.6367064  40.7715988  24.4220734  26.1116481
  41.4628077  23.7645769  24.9365211  40.6408787  35.5460906   1.3487579
  40.4822397  36.4762664   1.1880142  41.1181688  35.2472591   0.5747256
  51.3832140  18.7281704  15.1500678  52.0740175  19.1361260  14.6279597
  50.5718374  18.9655781  14.7011387  49.2619467   3.3852080   1.4072569
  49.9207163   2.7190107   1.6033107  49.4400883   4.0890658   2.0310202
  26.7827177  35.6724977  24.2792845  27.0706153  36.5706563  24.4425678
  25.8273339  35.7163167  24.3186951  65.8313608  65.0813675  21.6454101
  65.4780626  65.2248335  22.5233793  65.2971888  64.3735600  21.2849927
  17.1689510  57.9657364  22.3471045  16.8655479  57.1377802  22.7194834
  17.6023066  58.4112501  23.0750823  59.6140051  40.9299946  59.1097498
  58.7289906  40.6342888  58.8963413  60.0595188  40.1439095  59.4256878
  54.6148682  80.7735920  50.0046206  55.4779530  80.5732346  49.6424341
  54.7323275  80.7103729  50.9524822  19.0964985  15.5232179  42.0755959
  19.7831154  16.1843908  42.1630001  19.2857206  15.0899923  41.2432861
  58.7812853   1.4062074   3.3792949  59.2091036   0.7658414   2.8108457
  59.4956970   1.7904153   3.8874596  61.8588877  33.6533403  13.5658371
  62.6343346  34.0204358  13.1413972  61.1603642  33.7572932  12.9196990
  49.4887638  23.5474062  52.5160122  49.8641014  24.2369795  51.9684315
  48.5979700  23.8456821  52.6997232   7.7526939   8.9531404  67.3651886
   7.5286531   8.5319930  66.5353251   7.8399605   9.8810440  67.1469927
  34.2766118  76.6918659  39.7537756  34.7876716  76.6801786  38.9445090
  33.9880300  77.6002836  39.8417115  59.5138931  20.6756186  66.8718004
  58.9370775  20.7769585  66.1146736  59.4156361  21.4936972  67.3589611
  66.5920639  25.8064365  50.8174038  66.3731480  25.4636025  51.6838789
  66.6043043  25.0351095  50.2507162  81.6354847  32.7037358  64.1937923
  81.5061474  33.5085893  64.6955061  82.1345234  32.1341348  64.7792387
  74.1836262  14.5016909  46.1838675  74.0921259  13.5509634  46.1208010
  74.9996090  14.6322596  46.6669321  60.5958748  26.1067343  15.2232409
  60.0320005  26.7661214  15.6275725  61.4576483  26.2579322  15.6114697
  35.8695626  82.5264549  51.2019396  35.2498889  82.2990894  50.5087280
  36.5798831  81.8920803  51.1057568  64.0140963  15.3453469  63.1651115
  63.7649441  16.2692654  63.1881142  64.1567659  15.1128411  64.0826178
  43.0429029  12.4844229  41.5567350  43.5017157  13.2695782  41.2579727
  43.4777546  11.7644560  41.0998011  15.2899706  75.1859570  20.2454448
  14.3927884  75.2849865  19.9268711  15.8282328  75.2016211  19.4540787
  46.2384033  12.7452600  43.8677883  45.4599619  12.2133625  43.7024307
  46.6332531  12.8668392  43.0043411  67.1057844  30.9495592   0.5310146
  67.5716400  31.4631557   1.1908833  66.4161682  31.5337396   0.2157525
  20.2665114  12.8228152  43.3417654  20.2328515  13.6422861  42.8482437
  19.3507004  12.6208746  43.5334539  16.1104071  82.0658970  30.4034114
  16.8086112  81.7646217  29.8220539  15.6621528  81.2647915  30.6745720
  68.4777927   0.1533882  45.1395369  68.5837698  -0.4641039  45.8632135
  68.0766344   0.9248398  45.5397415  16.3489890  69.8599720  18.3679235
  16.9646013  69.9513006  19.0951872  16.1561966  70.7593298  18.1029403
  45.2700853   0.7202709  57.1988201  45.4456854  -0.0328550  57.7629137
  46.1094713   1.1766084  57.1403646  83.4074974   3.6564365  33.4599686
  82.5068855   3.8536894  33.7173033  83.3270931   2.9237992  32.8492260
  74.5726538  78.7598515  34.2417550  74.2681599  79.0624523  33.3862162
  75.4848671  79.0463781  34.2864060  16.9422150  46.4244032  38.4226608
  16.0040736  46.5419722  38.5719919  17.1145570  46.8894529  37.6039672
  38.1710315   3.7581268  14.3777859  37.6437473   4.5069069  14.6562314
  38.0922389   3.7511966  13.4238589  56.4304352  16.6415393  21.0249853
  56.9667721  17.3327184  20.6365967  56.2675762  16.9391668  21.9200420
   7.9953206  77.8109407  64.5117188   7.7054584  78.3111811  63.7488508
   8.3999747  78.4617472  65.0852489  20.7255030  47.2579050  42.1810818
  21.0148501  46.9560385  43.0421209  19.7719109  47.1792650  42.2076988
  70.6213570   0.6354833  17.3492861  71.5744448   0.5747850  17.4138308
  70.4189062   0.3035564  16.4746034  46.0391855  14.4102132  28.2821894
  46.7971611  14.6604836  28.8104606  46.1888170  13.4889030  28.0699849
  11.5386784  71.7313337  38.0680060  11.1211026  72.5873899  37.9729891
  12.4367023  71.9309235  38.3324862  33.2293153  15.4147363  36.0804653
  34.1171408  15.1859391  36.3555050  32.9728222  16.1264396  36.6669130
  54.0632963  11.5722644  13.9114034  53.3546638  12.0140922  13.4435797
  53.7246990  11.4493191  14.7982335  82.0891285  38.0175805  26.9110036
  82.4374008  38.8917685  26.7356896  82.0027161  37.6163340  26.0462689
  86.1351871  21.6726136   3.4974837  86.7199230  21.0589910   3.9422068
  86.6857719  22.0914292   2.8359106  53.6808777  22.2386575  44.5476437
  52.9425240  22.1249557  45.1460886  53.8142967  21.3717127  44.1644430
  63.8646412  25.2538013  13.5146189  63.8339472  24.7271776  14.3133414
  64.7863674  25.4947352  13.4218597  19.2503273  21.6941929  48.4796858
  19.2746270  20.9565616  49.0892267  18.3209348  21.8121362  48.2833433
  55.2882290  27.3078585  40.6009388  56.0403013  26.7231870  40.6946516
  54.5283079  26.7479563  40.7598734  36.6250110   2.7744296  53.0355453
  37.4052238   2.7834204  52.4810886  35.9567189   2.3447903  52.5016642
  63.1180620   5.9052670  42.1490240  62.5769520   5.1264375  42.2788715
  63.3954334   5.8544213  41.2343073   2.0172946  56.2648726  58.6482763
   1.6156858  55.8266306  57.8980207   2.0653258  57.1854353  58.3904219
   5.5758625  77.5551081  35.4292226   6.1591035  76.8343973  35.6672025
   4.6986020  77.2302198  35.6319356  80.2209568  70.0949049  47.1435118
  79.7407198  70.8444309  47.4953842  80.4512596  69.5750856  47.9135656
  39.9254274   6.5732837   7.8086853  39.0099883   6.8112135   7.9556334
  40.2973795   7.3253566   7.3479575  18.6315548  81.3376236  20.5610061
  18.9990747  80.7671928  21.2361169  18.2383585  82.0620918  21.0475993
  25.9431815  74.1732740  30.9163284  25.1481295  74.5847225  30.5774570
  25.6878376  73.2677364  31.0924792  65.7084799  39.6052623   9.5251507
  64.7528696  39.6535110   9.5517176  65.9113407  38.7143588   9.8104036
  22.6455760  49.9774122  17.0810783  22.3065400  50.7649660  17.5065780
  23.5755992  49.9645138  17.3071837  70.7991123  13.4680462  10.6811798
  71.0481262  12.8074515  10.0347745  71.2276268  13.1858993  11.4892650
  51.2482119  15.1181543  29.7103810  51.2706995  14.2135429  30.0224781
  52.1167088  15.4641092  29.9159718  80.5376053  -0.2264999  25.4927087
  80.0552940   0.5933449  25.3856444  81.4559937   0.0398004  25.5360126
   1.0388410  55.6957626   4.3856874   1.6134951  55.4914665   5.1234317
   0.3562516  56.2522316   4.7607189  73.9812422  25.3370786  33.5032845
  74.7993326  24.9411392  33.8036060  73.4147739  25.3309011  34.2748451
  57.5753069   7.6800793  28.0476856  57.0039320   8.3623761  28.4001517
  57.6937151   7.9182303  27.1281767  11.5224993  77.7663279  32.9166079
  11.9428241  77.3618984  32.1576667  12.2161996  78.2816362  33.3282781
  58.4461498  10.6071651  44.8752451  59.3430948  10.7949662  44.5987463
  58.4321165   9.6604550  45.0158691  50.6780958  61.1237383   8.7565821
  50.9455824  60.3858805   9.3045306  51.4961863  61.4578056   8.3886725
   6.7611164  67.6919460  43.4332085   6.4182711  66.8880367  43.0428028
   6.1902219  68.3833361  43.0981064  75.4235601  81.2970638  33.1513309
  75.7444477  82.1276951  33.5024929  74.9238539  80.9101677  33.8702464
   3.6997160  11.8761122  33.6925268   4.2082158  11.9746578  34.4974804
   3.5277885  10.9364688  33.6313558  18.8890338  68.3129930  27.2481799
  18.4584069  67.5431490  26.8765116  18.9630103  68.1183577  28.1824589
  83.5480022  73.3270836  38.8663435  82.8217506  73.0602407  38.3028054
  83.5984230  72.6417685  39.5326996   5.5862784   5.7494724  36.2588859
   6.3765919   5.4463738  36.7058420   5.9080762   6.1659706  35.4593825
  66.0018253   3.0741140  56.3777256  66.6982126   2.4812737  56.6602421
  65.5921555   2.6267505  55.6372738  19.9356365  81.2223339  14.3906546
  19.2000508  81.5050125  13.8472950  19.5735240  80.5286312  14.9419129
  19.8926580  10.5060494  20.5101180  19.3140233   9.8049372  20.8098769
  19.6534729  11.2605739  21.0483694  29.8611164  71.6750288  22.2220397
  29.4811010  72.2370625  21.5468073  30.3802538  72.2692013  22.7639651
  72.8561211  26.8500042  20.6637740  72.8885746  27.8060889  20.6308866
  72.2504663  26.6553760  21.3789916  11.0462832  59.5156193  29.6964502
  11.9093823  59.9187374  29.6027017  11.2058258  58.5787439  29.5822501
  79.6704292   2.5265929  55.4356527  79.5779133   2.9372728  56.2953138
  79.0421915   2.9886484  54.8806238  69.9223566   4.8483145  41.0803509
  69.4392252   4.0373218  41.2387991  69.8413563   4.9951351  40.1379538
   5.5338562  80.7141304   2.4645393   5.0031948  81.4320278   2.1192051
   5.3322726  79.9717569   1.8949082   9.4995189   9.7996575  27.3736882
   9.7377461  10.7246423  27.3113704   9.7305501   9.4347531  26.5194607
  15.0031507  54.8009348  52.2842646  14.0921032  55.0811958  52.1966362
  15.5142653  55.5941057  52.1234226  63.7042904   3.6604732  49.3896103
  64.2957115   2.9438865  49.1594887  62.8423834   3.3623973  49.0989256
  25.8995676  25.5252171  24.2890048  25.0216436  25.7802296  24.5726418
  26.4148116  26.3294101  24.3524837  42.4296093  11.4622748  23.2076025
  43.0746269  11.9592428  23.7107992  42.9192924  11.1248600  22.4575400
  17.5797927   3.4533432  32.7709270  17.4706924   4.2208409  33.3324218
  18.4112120   3.6022741  32.3205996  52.8600264  19.5505428  28.1967402
  52.9704523  19.2319918  27.3008823  52.3328876  20.3442836  28.1054354
  34.7579288  74.6448946   9.3598980  33.8454175  74.7036028   9.6429288
  35.2573466  74.5785904  10.1737881  84.9788094  61.1912584  51.4931917
  85.3648853  60.9476423  50.6518650  85.6401539  61.7443657  51.9090223
  49.5164156   9.9550366  18.2342601  50.3526735   9.5807070  18.5113561
  48.8914013   9.2352432  18.3207774  46.1862612  63.3641100  48.2002401
  46.8497086  64.0283203  48.3870554  46.6646671  62.6675463  47.7506208
  41.8621635   5.7606936  12.2862351  41.4890432   5.8168423  13.1659293
  42.0578861   6.6675949  12.0507503  26.6725826  16.1085498  19.1110516
  26.0614514  16.2764001  19.8283911  26.1988449  15.5171037  18.5262477
  73.6886263  17.7420413  40.4338646  73.8529682  16.9739556  40.9809160
  74.1624737  17.5633872  39.6215916  29.3078589  59.8434114  67.7236080
  30.2641630  59.8601389  67.7614307  29.0285897  60.2599955  68.5388994
  84.5646191  58.5061216  71.2728643  85.0836182  57.9592419  71.8626070
  83.6774158  58.4687519  71.6302347  86.0739517  49.1542244   4.2699859
  85.6032848  49.8578882   4.7167027  85.8227253  49.2439604   3.3507133
  44.9999714  10.3519881  43.1038809  45.8025980  10.1239359  42.6348209
  44.3567181  10.5131233  42.4135971  12.1355116  25.6432986  20.8154750
  12.6134419  24.9932575  20.3004384  12.6804173  25.7830000  21.5899372
  40.9402132   7.9745221  57.0158195  41.0094690   7.0665300  56.7208862
  41.2338877   8.4927881  56.2665606  39.3529081  82.2363949  47.9738808
  38.8423657  81.5469360  48.3984184  40.2208710  82.1714592  48.3722019
  78.9115953  76.9408655  39.5183444  78.2434273  77.5097752  39.1360784
  79.4706440  77.5327110  40.0217485  33.5057545  82.3457432  61.8520355
  34.3010807  82.3292446  62.3844051  33.2096386  81.4356518  61.8355608
  61.7520952  38.9040852  71.0945940  61.8854523  39.6840358  70.5559635
  62.6361990  38.5906720  71.2852907  46.9629240  38.5703182  63.2329512
  47.2297907  37.7824354  63.7065077  46.3162041  38.2610130  62.5986671
  37.7252626   3.3470926  11.5795290  38.5595798   3.5651150  11.1640632
  37.4689984   2.5156629  11.1804235   3.0015376  81.7545986   8.5268807
   2.3420329  82.2841167   8.9750969   3.7692577  81.7951202   9.0971410
  37.1642613  78.6820316  42.3561573  37.1980429  77.9979324  41.6875029
  36.7596388  78.2576656  43.1127501  11.0936296  78.8475752   7.6488453
  10.7395267  78.3023548   8.3513987  11.0469532  78.2939720   6.8693721
  17.6046371  24.5883822  68.8864183  18.0450904  24.5908785  69.7362566
  17.6258373  23.6727071  68.6083508  35.4750037  63.6029243  52.6608467
  34.8529792  63.8625813  53.3404732  36.1760044  63.1564331  53.1356859
  57.2834873  22.1931696  35.6260467  56.9561672  22.9145956  36.1632943
  57.0598269  21.4051342  36.1212349  58.2803059  75.4658747  21.1968040
  58.7877607  74.7726631  21.6189170  57.7488518  75.8365679  21.9013429
  52.9054403  17.2317684  41.9451618  53.3015442  17.8689325  42.5396013
  51.9719315  17.4431813  41.9549179  68.2699823  75.3330421  28.9771247
  68.1052780  75.6757879  28.0987024  69.0147686  74.7418022  28.8677788
   4.0096667  17.2684383  53.1297350   3.5456976  18.0813670  52.9294586
   4.6712160  17.1945322  52.4418974  46.4267874  70.4156446  68.8869286
  46.5506792  71.3564539  69.0124655  45.5495548  70.2419329  69.2282820
  56.9924879  23.5047245  13.9014149  57.6371193  22.8440380  13.6480820
  56.2731552  23.0028892  14.2847610  70.3140497  15.6232226  13.4513581
  70.1918173  16.5414166  13.6926258  71.0166645  15.6378353  12.8014755
  53.1935310   7.8203470  44.5852041  53.1038380   8.7731707  44.6029329
  53.9662933   7.6625717  44.0428257  34.2728734  11.1618781  31.4606643
  34.3882060  12.1085632  31.5426230  35.1587248  10.8058298  31.5294337
  47.3104334   6.7485523  46.8359232  46.3896799   7.0056850  46.8841314
  47.3643589   5.9512514  47.3628330  84.8416805  38.2521152  14.8972654
  85.5228424  38.9242887  14.8764777  84.1250801  38.6212611  14.3810821
  64.2816162   4.9034739  24.7702765  65.0430727   5.4427487  24.9838114
  63.8677597   4.7280788  25.6153727  73.7457800  65.4231739   1.7968190
  73.7742662  65.2782011   2.7425477  74.1652822  66.2744856   1.6722661
  24.9988675  82.0384598  31.4327693  24.8683786  81.1514187  31.0975647
  25.4548407  82.4966240  30.7267880  50.3423691   4.1506997  47.0226049
  51.0647297   3.5226673  47.0246983  50.7364321   4.9699947  47.3221064
  42.6549578  16.7650878  42.3591614  43.2013655  16.3087785  41.7192793
  42.9528189  17.6740682  42.3235893   8.1825668   3.3739901  25.5010772
   8.8728178   3.5079810  24.8515916   7.8873694   4.2571896  25.7225466
  16.2459159  70.5901098  24.2557764  15.8042002  70.3705597  23.4354615
  15.7413459  71.3217974  24.6111250  48.0432081  11.5095699  32.1776009
  48.3303070  10.5978262  32.2278714  47.1536016  11.4615917  31.8275476
  76.9898033  26.7138171  47.4308968  77.2130585  27.5147414  46.9566536
  76.6425228  26.1267376  46.7593575  33.9990449  79.3846416  40.1043367
  33.8610029  79.4237185  41.0507250  34.6855164  80.0300121  39.9355698
  83.0746555  77.6470184   0.5694390  83.9694595  77.3779440   0.7771996
  83.1500340  78.1021309  -0.2692624   9.5184296  30.0816369  13.7439489
   8.8166249  29.7031546  14.2735255   9.3579209  31.0248542  13.7724364
  64.3615675  56.9189262  56.8356228  64.2322397  56.2104845  57.4661922
  65.3020048  57.0951653  56.8629313  47.1637058   9.5987809   8.3045644
  47.0999146   8.7637013   7.8410935  47.7924109  10.1087654   7.7938026
  21.0464263  78.2528257  19.1775298  20.7884431  77.5381374  19.7596800
  21.6712260  78.7656784  19.6902072  83.9571476  59.8388147  26.0956001
  84.5874214  60.4579067  25.7272124  84.1704750  59.0036535  25.6794000
  48.0693913  60.6334925  22.4187231  48.0406666  59.8236084  22.9281282
  47.7807808  61.3112497  23.0299354  61.1695051  13.4542716  57.4355364
  60.3628635  13.5232139  57.9462290  61.8546200  13.3099484  58.0882359
  61.4843893   0.9396435  40.3751898  61.4702082   1.8661320  40.1350880
  62.2564268   0.5889288  39.9311328  65.4100275  45.2819204  44.5600796
  66.0939407  44.6743155  44.2784643  65.3896284  45.1945877  45.5130720
  38.8952160  64.7451544  15.4100382  38.7986350  64.9522924  14.4805241
  38.0971622  64.2658615  15.6327963  48.2256174  16.5101433  38.1680083
  48.3341360  16.1506307  37.2875500  47.4757719  16.0372794  38.5290599
  29.0647411  21.3364744  21.9055963  29.0043092  20.9640622  21.0258865
  29.9749160  21.1925292  22.1646214  39.5588851  14.1307735   3.4585038
  40.0395679  14.0924060   4.2853674  38.6422682  14.2230082   3.7183788
  33.4058595  28.0657411  21.5297842  33.2138348  28.4443259  20.6718612
  34.0015054  27.3399925  21.3434315  21.7889714  30.1710868  57.2429037
  21.6165733  30.6145597  58.0734730  21.9191909  29.2538548  57.4836540
  31.9505310  66.2236691  11.4076877  31.7243075  67.1537399  11.4119411
  31.3880610  65.8434439  10.7329357  44.8524284  75.1665354  43.2127666
  44.8736048  74.2532444  43.4985781  44.9253654  75.6725073  44.0220261
  47.4642134  68.7169695  17.8676236  47.6142406  68.5809326  16.9320929
  47.8011036  69.5964193  18.0388224  84.1048145  28.7295628  56.2288237
  83.2531166  29.1631651  56.1756134  84.3815899  28.8558555  57.1363926
  56.0786533  17.3052323  47.0643425  55.3665447  16.6691589  47.1317434
  55.6723547  18.1437528  47.2835159  34.7596240  22.2449589  28.5630250
  34.6334481  21.8852901  27.6849890  35.1831698  23.0908036  28.4167838
  60.6030035  60.0406981  31.4814162  60.7246590  60.6958723  30.7942653
  59.8856258  59.4917965  31.1646962  79.1217041  13.3624077  46.7318010
  79.4573498  12.5874257  46.2812710  79.6062660  14.0922844  46.3461685
   1.1751106  79.0034199  18.9091146   0.7109781  78.4210443  19.5104933
   1.7566173  78.4245777  18.4161389  63.4208918  68.7417459   4.8906839
  64.3467903  68.5793543   5.0711727  63.3576727  69.6925688   4.8002854
  48.9169550  38.7329984  10.3484273  48.4302950  38.3381653   9.6248955
  48.6179495  39.6420360  10.3703427  64.7226000  26.1697435  69.7286987
  64.0567541  26.7171812  69.3125296  64.4176769  25.2733397  69.5882940
  63.3412123  21.0637569  20.8651805  62.4105453  20.9183955  20.6949997
  63.7894344  20.5968046  20.1599956  31.3339353   1.2013955  44.6175623
  30.5501318   1.2071413  44.0681505  31.3503504   2.0694968  45.0205040
  59.7255039  17.1266747  22.9984641  60.5529070  17.5845242  23.1468391
  59.4090605  17.4687612  22.1623588  76.8416023   2.2273019   3.9663029
  77.6499510   2.7103585   3.7946638  76.1749220   2.6869887   3.4559545
  27.6089287  12.1606147  20.1514530  27.1791744  12.7154064  19.5004928
  28.3002901  12.7122879  20.5173874  27.7530074  25.5427361  64.5693445
  27.2802377  26.3020086  64.9102640  27.0799756  24.8710227  64.4595289
  42.9739380  61.1765718  43.6137009  42.4673367  61.9875097  43.6579990
  43.7903881  61.4275074  43.1816483  20.8403230  76.4889002  62.3294926
  20.0467873  76.7294025  62.8077126  20.8698416  77.0987940  61.5923452
  74.0607691  11.0624838  46.6269922  74.1327333  11.4731038  47.4886417
  74.9649382  10.9841704  46.3227224  48.4132624  12.4742210  12.4945498
  47.4736118  12.4539733  12.6758754  48.7380457  13.2215881  12.9967332
  76.6862488   6.5770012  27.9122281  76.6144943   5.9702885  27.1753526
  76.6864920   7.4449742  27.5086761  79.8488140  46.4785528  25.4936600
  80.0211525  46.3157082  24.5662904  79.2786312  47.2473764  25.4999113
  81.8138695  39.1603875  37.1566749  80.9025860  38.8841867  37.2541738
  81.7604160  40.0177097  36.7343283  58.3286810  13.3064401  28.4649086
  57.7295017  13.7056208  29.0956759  59.0493202  12.9710650  28.9982367
  80.2575588  11.0535371  45.5056906  80.3103542  10.5158901  46.2958670
  80.2614212  10.4225218  44.7859430  69.5632744  41.9829464  32.2655535
  69.0193510  42.6991606  32.5932980  69.4547606  41.2848759  32.9114294
  19.0182662  39.6666074  23.6995625  18.2931495  39.6740961  23.0747557
  18.8281822  38.9282084  24.2782402  30.2578092  28.3063149  62.6048183
  29.7183752  28.6563134  63.3138657  29.9461293  28.7587857  61.8210125
   9.4924003   1.2178947  26.8140459   9.0747970   2.0071307  26.4691615
   9.8152035   0.7592522  26.0383677  71.3610554  19.6797502  26.8931913
  70.5074167  19.3850815  26.5758491  71.8021202  20.0188732  26.1142898
  61.6923475  16.5611732  45.1333046  62.0138645  15.6770933  44.9564981
  60.7602978  16.4446831  45.3175640  62.1150541  33.2925034  52.5329828
  62.3841810  32.3740673  52.5495434  61.2206841  33.2861972  52.8740025
  63.1758833   1.1934370  33.6720800  63.2027388   0.8267009  34.5558310
  62.3874283   1.7360821  33.6618042  83.0983353  13.0451846  48.6505222
  83.1460571  12.6352072  47.7868795  82.3303604  13.6145794  48.6032486
  57.0456171   2.3114336  26.8540788  57.1281052   2.1830270  27.7990341
  56.1149502   2.1777916  26.6745448   7.8625077  19.4670641  27.3420453
   8.2862562  18.6327696  27.1404982   8.5507911  20.1209569  27.2198939
  57.4904060  23.4637475  28.2283020  57.1230793  23.7057519  29.0784407
  57.9135895  24.2627358  27.9140329  68.8465738   8.8560897  52.4388218
  68.8619661   8.1313270  51.8137503  69.3856859   8.5535824  53.1696272
  53.3458996  14.2022097  64.1195869  54.2875290  14.0307522  64.1324186
  53.2542944  14.9969220  63.5939693  43.7535143  23.2556486  44.6229696
  44.6802521  23.0166912  44.6058846  43.2983255  22.4717021  44.3156242
  59.4479513  24.0145683  35.9579420  58.7196636  23.4867907  35.6304002
  59.5733452  23.7167549  36.8589497   0.6342839  41.8539715  31.5755606
   0.1466995  41.9331646  30.7556677   0.7609855  40.9119844  31.6888499
  69.9158144  17.7427208  52.9514456  69.9166155  17.7551401  51.9943285
  70.8226919  17.9295254  53.1941605  76.9835424  18.2924438  14.2814374
  77.5286674  18.9349961  14.7355258  76.6425562  18.7626207  13.5205865
   8.4581178  11.1483955  38.9884138   8.4107631  11.5638459  39.8494530
   7.6344943  11.3857424  38.5623360  50.7319498   9.6933752  26.3908315
  50.5229139  10.2322483  27.1538186  51.6051865   9.9821270  26.1256599
  45.6790972  60.3275156  64.1548252  46.3060331  60.6423569  64.8060226
  45.8641100  59.3915844  64.0771484  60.4053831  17.6945770  35.7431769
  60.0545359  16.8194878  35.5777860  60.2092505  17.8609407  36.6651773
  44.0578699  25.3173947  26.4670157  43.4914112  25.2344227  25.6998968
  44.0048075  24.4640350  26.8973589  46.8557453   1.2305956  63.6369133
  47.8045654   1.2446243  63.5113192  46.4959955   1.3477263  62.7576542
  52.2473621  14.1774118  60.9617758  51.8934059  13.7548244  61.7443132
  51.4848566  14.5679355  60.5347967  23.2843161   7.1984172  31.2448168
  23.4851408   8.1083012  31.4639330  22.5844026   7.2575283  30.5945396
  28.6249614  22.7725649  13.6673307  27.7495337  22.4653459  13.9028621
  28.9766049  22.0840836  13.1029093  49.0578079  31.7389679   7.7112478
  49.5318556  30.9605646   7.4186748  48.2252836  31.4020467   8.0423391
  73.6034393  38.7040448  40.6729698  72.7230358  38.3983612  40.4546165
  74.1873550  38.0749226  40.2493143  37.5405836  70.3947735  32.6547861
  37.6535892  69.6912098  33.2938933  38.0615330  70.1191568  31.9005442
  70.5602932  48.3051586  43.9597607  70.9361601  47.4984932  44.3122435
  71.1531687  48.5560894  43.2514048  78.2285357  81.8206215  62.1860027
  78.0970001  82.3962021  62.9394150  77.3572731  81.7275906  61.8006659
  50.5059767  12.6427317  30.8070302  49.8044682  12.1586001  31.2426114
  50.6779814  12.1468556  30.0065589  56.9782877   7.2452223   2.7546927
  56.5216494   7.3051131   1.9155693  56.2790251   7.2439611   3.4083444
  51.5470600  21.8437004  27.5885868  51.0687780  21.8945289  26.7610025
  51.2765837  22.6255965  28.0699492  36.4336872  20.0215960  47.6902914
  36.3158274  20.9313059  47.4168491  35.6031108  19.5972753  47.4750423
  43.5084820  42.1026850   3.7774232  43.0829525  42.4184990   2.9802921
  44.4128275  42.4073982   3.7029895  38.3069992   2.8609917   3.7669617
  38.2769442   3.7766269   4.0443432  39.2224073   2.6058781   3.8817537
  36.6183400  24.8884058  28.3484459  37.1050215  25.7028389  28.4752202
  37.2612834  24.2791986  27.9855132   4.7013327  11.3688350   1.8181553
   3.9877948  10.8686256   1.4220679   5.4146093  10.7371175   1.9098087
  46.0992575  26.5384007  24.1341496  45.9251451  25.6011319  24.0478635
  46.0663939  26.7023444  25.0766325  74.2687368  74.3876123  62.8878736
  74.5394516  74.5803976  61.9902229  74.0336180  75.2396202  63.2553482
  37.3188353  78.8639736  33.8626218  37.0830846  78.5651922  34.7409058
  38.2624793  78.7145233  33.8040423  51.5755510  80.6652451  34.0153670
  52.4466705  81.0436726  33.8963294  51.5472698  79.9314022  33.4014344
  10.6151664  17.8394306  26.9372940   9.7928005  17.6010668  26.5093565
  11.1295223  18.2617855  26.2493372  57.3420286  38.8745642  21.3717198
  57.0389938  39.1135979  22.2476554  56.5387774  38.7346363  20.8702826
  84.9048328  17.1591187  33.6897016  85.8051109  16.8411016  33.6218977
  84.4246674  16.6619170  33.0275297  28.0716062  22.1744084  60.5810881
  27.7803946  22.2764969  61.4871836  28.9004636  21.7003107  60.6478739
  49.2685699  11.4154387  45.5315733  48.5534286  11.9302297  45.9054708
  49.7431993  11.0777652  46.2911320  57.7160883  50.5257607   0.5397284
  56.9020891  50.2220678   0.9414865  58.4073687  50.1249027   1.0666745
  26.6095948  80.6579208  18.8622427  25.9096766  80.2498722  18.3524930
  27.0120215  81.2828827  18.2591641  22.3083878  26.7512989  34.2169142
  23.1288195  27.0245433  34.6273565  22.3227358  25.7954645  34.2659998
  69.1996717  57.5818491  44.4361496  69.3847895  58.2338428  43.7602329
  69.6187592  56.7820072  44.1185760  37.7475739  20.0235939  69.2910242
  37.1674585  20.6682801  69.6960878  37.4521494  19.9733293  68.3819437
  47.3336029  22.3511267  68.8825083  47.5858593  22.4680138  69.7984457
  47.2209024  23.2414746  68.5496235  64.2808914   7.8451985  43.9272165
  63.8181591   7.2246772  43.3641291  63.8851404   7.7262890  44.7906208
   8.1263816  59.7423029  54.2767954   7.2764790  60.0123882  53.9290190
   8.6535782  60.5411863  54.2680693  58.5363102  76.7236900  17.2145581
  59.4011927  77.0466805  16.9618011  58.3581305  77.1478653  18.0539382
  31.5074277  16.1978257   2.9637665  32.3417044  16.6667080   2.9446501
  31.0583878  16.4752889   2.1652620  69.5974064  36.7841506  66.6662455
  69.6152925  37.7291894  66.5152073  68.9643574  36.6667390  67.3745489
  60.0009298  19.9143505  45.8830786  60.3625202  20.6617451  46.3594055
  59.6552944  19.3395770  46.5660143  84.1223526  48.0644083  27.1394801
  85.0354576  47.8623819  27.3435974  84.1716194  48.7674141  26.4917231
  21.4511395  27.2910881  70.7860565  21.8388963  27.3543763  69.9132061
  21.6537404  26.4010501  71.0741854  31.7288852  64.5318890  38.2645869
  31.7530751  64.7172213  39.2033625  30.8023787  64.5933199  38.0321193
  71.1121416  29.8519397  37.5023437  71.6236305  29.9534297  38.3050323
  71.0929728  30.7284307  37.1181178  73.4091759  40.0080633  34.3564224
  74.3551445  39.9386668  34.2277431  73.0323935  39.4778991  33.6541462
  10.7006335  36.5745473  60.3033018  11.6321158  36.3561344  60.2738380
  10.4764581  36.5426826  61.2333345  28.8229084  79.6281958  38.6081195
  29.7615314  79.7692204  38.4842968  28.6596727  79.8856592  39.5154786
  24.5998454  79.7147894  23.7940407  25.1967049  80.1003361  24.4354033
  24.9328399  80.0127888  22.9475546  57.8485775  36.9302464  65.4483175
  56.8921804  36.9654083  65.4655123  58.0588579  36.0225153  65.6674957
  59.8927593  78.6208344  42.3032856  60.6170511  79.2335701  42.1760321
  59.3446016  79.0332747  42.9708529  77.7623558  15.2741969  39.7242737
  77.8175735  15.9133565  39.0138817  78.0343962  15.7584536  40.5038404
  43.9350128   9.0490597  33.7822437  44.7654486   8.9425111  34.2462015
  43.5531664   9.8441088  34.1541553  34.1643882  52.6785946  15.1117992
  33.7548089  52.2266865  14.3740630  34.6239352  53.4182453  14.7143459
  35.4024506  11.2621748  56.1503887  36.2473965  10.9598613  56.4834166
  34.7557855  10.7660413  56.6522932  82.9578972   8.1300360  56.0646200
  83.2753277   7.2285700  56.1177778  82.3552704   8.1282967  55.3209305
  74.7607040  24.4635677  22.3467541  75.1272154  24.6972513  21.4939404
  74.7025013  25.2945423  22.8182697  71.1674786  15.5217028  40.7026529
  72.0517159  15.7161582  40.3919268  71.1942959  15.7173812  41.6392517
  32.4959564  77.7235603  23.7030053  32.3992634  78.5946655  23.3182216
  31.6993952  77.2587538  23.4467316   2.2439002  75.8922338  28.8383007
   2.2536582  76.8179274  29.0816736   2.4403912  75.8887911  27.9014921
  10.2321458  66.4275026  59.2116976   9.9079746  66.0251474  58.4059334
   9.4825900  66.4095640  59.8067427  80.2064419  68.2865381  66.9391489
  80.4150963  68.5138750  66.0330534  80.4598522  69.0590525  67.4443531
  81.2454510  21.9271255  37.9147458  80.7801056  22.0575809  37.0885062
  80.8926678  21.1076641  38.2615280  14.6408987  73.8736582  35.6776071
  13.8258934  73.4790850  35.3672671  14.7238564  74.6816635  35.1711750
  64.4614220  78.1024027  30.6771564  64.7249174  77.2114229  30.9072757
  63.7819910  78.3233118  31.3141823  83.3216381  15.2536225  32.3409843
  83.0265522  15.3350782  31.4340544  83.9312553  14.5157492  32.3291492
  68.5526371  13.5207689  65.1028442  68.2950592  13.6869991  66.0096264
  69.2261457  14.1762161  64.9211740  68.0389881  38.5164046  53.0695057
  68.3360195  38.4883356  53.9790154  68.8170862  38.2980061  52.5565767
  10.0974894  12.5766015  40.9665632   9.6836931  13.3079326  40.5081272
   9.9448198  12.7580488  41.8939257   8.0722821  26.5142703  40.8184814
   7.7857012  27.4086189  40.6334305   8.1991482  26.1200190  39.9555230
  76.1880064  25.8029294  42.7699232  75.5769396  25.9151745  42.0417547
  76.7372656  26.5864468  42.7446127  56.9705200  28.0203295  21.7922568
  56.4013672  27.5231123  22.3796821  56.4534140  28.1306744  20.9943509
   2.7012140   7.5645947  67.6779175   2.5074175   7.5386149  68.6149311
   3.3952326   8.2185674  67.5949144  65.4485369  21.0338283  15.9335136
  65.9668350  21.3229918  16.6845036  64.7703743  21.7026663  15.8387411
  85.5674648  41.0101414  58.4788275  84.7406769  41.1138201  58.9498997
  85.4078484  41.4101410  57.6239872  55.2403736  14.2018318  23.3545113
  55.1768064  14.0289557  24.2938232  56.1695910  14.3767107  23.2055092
  28.6270976  69.7486258  10.4610705  29.2648172  69.8208046   9.7509027
  27.8046203  69.5297098  10.0230765  43.8850832  37.0670891  19.2632532
  44.0105581  36.4499569  19.9841106  43.0736971  36.7824078  18.8427258
  11.9476509  64.3928480   0.9982312  12.0272636  63.8069582   1.7509750
  11.5591609  65.1911259   1.3560864  61.3248825   3.9970118  39.5797086
  61.4275646   4.0451893  38.6292529  62.0128345   4.5665225  39.9241090
  45.6511021   2.6201561  69.8769951  45.5105782   3.0864835  69.0529680
  46.5900183   2.4344015  69.8899746  58.8018942  28.2622862  15.3028655
  58.2933950  29.0569711  15.1411855  58.5533381  27.6703119  14.5929229
   1.5392461   4.8333171  34.1529751   1.1207430   4.1795799  33.5928726
   1.6186546   5.6089318  33.5976839  66.1731958  71.3338375  21.9966459
  65.9106874  71.9034052  22.7197695  66.7288303  70.6696224  22.4044776
  59.9485493  81.6196728  30.9986758  60.5036306  81.9804573  30.3073406
  60.0363588  80.6710529  30.9057379  73.4812498  11.3815880   3.5132912
  73.2923508  10.4439116   3.4770447  74.1013384  11.4732039   4.2367071
  76.8423557  15.0155461  47.3141432  77.1135330  15.9276283  47.4180651
  77.6436663  14.5541358  47.0666933  40.7581997  78.2451057  28.0295658
  41.5200472  78.4885836  28.5554361  41.1284876  77.8939009  27.2197652
  72.0537758  10.5765939  35.5765796  72.0278406  10.3150010  34.6561837
  72.9089737  10.9931326  35.6831837  49.8278666  40.7076740  20.3569698
  50.1241159  40.1334953  19.6507180  50.0201416  41.5914869  20.0437069
  29.2687988  16.0394073  20.0471616  28.3515406  16.1512661  19.7974479
  29.4998097  16.8592227  20.4839325  66.6079473  28.6481524  53.5606050
  67.4990082  28.6930728  53.2138681  66.4429855  29.5234013  53.9112568
  62.3999071  35.0600100  16.0803366  63.2683086  35.3910828  16.3094723
  62.5525141  34.4876075  15.3284740  28.3406711  75.8789825  49.8327017
  28.9959478  76.3755941  50.3228235  27.5334477  75.9858418  50.3358936
  44.6987152  29.8191118  16.6340435  44.6161652  30.2144432  17.5018740
  44.3466282  28.9352298  16.7390156  80.5739975  49.9986935   3.8702703
  80.3770638  49.5576477   4.6966642  81.4130306  49.6289253   3.5954463
  71.6735840  37.7619505  36.6500950  72.0349693  38.3680344  37.2968507
  72.4399042  37.4101925  36.1970544  19.2482996  62.9623652  63.5605574
  19.9352539  63.3338928  63.0071163  18.4316409  63.2730484  63.1696892
  62.3183918   7.6116043  11.5512049  62.9015255   6.8861347  11.3278615
  62.1432829   8.0441594  10.7154632  59.9946690  19.1815090  33.1032133
  60.0504875  18.8707113  34.0068269  60.7920361  19.6958458  32.9771447
  85.2253056  58.0211449  65.3812599  84.8664093  57.1519995  65.2023363
  86.1077309  57.9967308  65.0111866  87.6473331  39.1195869  31.1654425
  88.1843948  38.3455777  31.3348842  86.7505169  38.8303113  31.3335419
  25.5625153  52.0344925   3.7732074  25.1204777  51.6968489   4.5522010
  25.2044368  52.9145765   3.6571723  26.9135094  77.0787859  62.4455357
  27.1481156  76.4504528  63.1284666  27.2000098  77.9247570  62.7897501
  68.1253529  12.8966594   3.2190830  68.3252144  13.3483410   2.3991606
  67.3984194  13.3931327   3.5950002  50.7866526  11.2532210  54.0881729
  51.5545464  11.0500824  54.6223116  50.2533340  10.4591501  54.1236782
   5.7862246  33.8270760  63.4680891   5.3406084  34.6094942  63.1433153
   6.3089687  33.5236835  62.7258492  32.8249860  66.4520407  70.5015039
  32.2604775  67.2112846  70.3562117  32.6538682  66.1963034  71.4078999
  45.7995653  80.2056122  58.3907270  46.4211798  80.8942986  58.1550455
  44.9397373  80.6130600  58.2862663  66.1311436  23.6557031  63.6526299
  65.5814552  23.2427311  62.9866505  66.9995880  23.7000942  63.2525492
   4.2397431  22.5577688  50.2117014   4.2818755  23.2346916  50.8871508
   3.5435313  21.9699073  50.5048513  59.4284773  58.3896875  35.6487393
  59.0045214  58.7861443  36.4098692  59.3648100  59.0563440  34.9648213
  46.8759346   2.6376286   0.8274838  47.8260469   2.7494249   0.8594385
  46.5960264   2.7048448   1.7403714  74.8742962  74.9500561  31.9275999
  74.4333935  74.8956013  32.7754617  74.4381714  74.2905760  31.3880539
  87.1500587  50.8734846  49.2034388  87.6368618  50.0496578  49.1797209
  87.8261185  51.5510893  49.2093086  67.7936363  35.5621958  53.1029797
  68.0980635  36.3132668  53.6123419  67.5416183  34.9134398  53.7601185
  77.8410816  49.2520761  47.1890354  78.7138653  49.2831326  47.5808477
  77.9639149  48.7754774  46.3680601  49.8719740  31.9224501  65.2532721
  49.6002865  32.6399732  65.8256197  49.0521336  31.5621448  64.9152374
  37.9109454  22.7072930  56.3951349  37.5805545  22.4496412  57.2557688
  37.9156041  21.8957520  55.8875799  20.5399776  57.3762178  42.4280834
  20.5829406  57.9993057  43.1534481  21.4501309  57.1210241  42.2773218
  60.6517792  34.0791988  34.7212005  60.9871817  34.9690104  34.8306131
  59.7002935  34.1822529  34.7044730  22.6792884  68.7971163  55.7723904
  23.4188032  68.3911324  56.2246418  22.1386528  68.0601978  55.4879665
  77.0366907  26.8430758  69.6090508  76.5259790  27.6517797  69.6465397
  76.3821077  26.1450934  69.6330261  82.6962471  63.4001112  21.5309691
  82.3059177  63.5761786  20.6748891  82.2523975  62.6098013  21.8386078
  65.3872108  36.5670514  32.0743036  66.1496305  37.1190619  31.9004321
  65.5160904  36.2559509  32.9703164  80.2571392  32.7524304   3.2077926
  79.9425173  31.9392753   3.6027929  79.5152807  33.3536577   3.2741931
   8.0987775  53.5412884  64.6272230   7.2071975  53.7847567  64.8763037
   8.6273861  53.7464571  65.3984022  56.7139578   2.4138895  43.9629984
  55.9384346   2.4377437  43.4024429  56.6139460   3.1691492  44.5424938
  49.4839811  44.3292522  46.4676905  50.3816938  44.1967154  46.7722797
  49.4140387  43.7841892  45.6839561  49.9471903  35.5258155  68.4494066
  49.3530607  36.0313940  69.0040493  50.8224297  35.7792759  68.7425709
  64.8746300  41.3016033  16.9284010  64.6941710  41.3418818  17.8675723
  64.1201544  41.7271328  16.5210688  45.8852768  18.6307359   6.6093326
  45.5825281  19.2148781   5.9140956  46.3265991  19.2082739   7.2321630
  33.8709855   5.6987375  42.1877146  34.2453098   5.6976533  41.3067436
  32.9615092   5.9690571  42.0611811  67.0452118  41.1007547  51.4851046
  66.5218163  40.3271580  51.6944551  67.3089027  40.9721422  50.5739784
   9.2530417   4.4291112  20.2341747   9.6275955   5.2577651  19.9353874
   8.3242947   4.6197104  20.3658271  83.9903069  37.6332092  35.1629090
  84.4862747  38.4252906  34.9558973  83.5409641  37.8393435  35.9825635
  64.3526840  44.1739368  19.9334967  63.4144258  44.2705011  20.0965238
  64.4566298  43.2606459  19.6664298  64.2886209  13.2291973  24.3679452
  64.6442270  14.1073799  24.2316651  64.8265171  12.6642382  23.8132191
  24.2017817  66.2598038  13.7116706  24.9464726  66.8514395  13.8195384
  24.1638637  66.0916948  12.7701116  16.8981934   1.6929401  63.3339167
  16.8200111   2.1709944  62.5083351  17.8386176   1.6734593  63.5112762
  75.0721550  44.0332270  40.2962780  75.0771999  43.0885649  40.1419353
  75.1844311  44.1218853  41.2427282  74.8979664  30.3241348  57.4711657
  74.0103149  30.3909016  57.1192455  74.8138142  29.7387648  58.2238245
  21.0063362  42.4088192  38.4188795  21.8027782  42.8621960  38.6952186
  20.3068995  42.8245306  38.9230680  58.8289976  18.6364353  43.7343597
  59.5903063  19.1098654  44.0697718  59.1303444  18.2501960  42.9120207
  57.6362848  39.6036005  50.4841137  56.7804384  39.5185971  50.9042788
  57.9926777  40.4218960  50.8299637  67.1180773  56.2075949  69.9275589
  67.4005699  55.2930307  69.9296999  66.9773769  56.4126492  69.0032244
  60.6216145  47.7517509  10.8420801  60.1089191  46.9486141  10.9334373
  61.4554787  47.4627399  10.4714441  82.9875565  37.0254660  11.6402376
  82.5372410  36.5995908  10.9107983  82.9631805  37.9578805  11.4252031
  68.3433819  28.0584741  12.6822138  68.4731197  28.8804626  12.2092068
  68.9375210  27.4406338  12.2561836  71.0359097   4.8453021  32.7266049
  71.6202688   5.2987975  32.1190691  71.1879253   5.2729160  33.5693789
   3.7623423  34.3764997  52.5712633   3.4598434  35.1995492  52.9550791
   3.2347903  33.7034893  53.0013514   6.8844432  69.7497034  20.5216861
   6.6880476  70.6371069  20.2213979   7.4334556  69.3790436  19.8307228
  83.3903313  38.0500150  22.3366952  82.4878025  37.7732801  22.4951005
  83.8864326  37.2328401  22.2883606  79.5983744  36.2361264  34.8306966
  79.5502424  35.9638047  33.9143157  79.4650841  37.1836853  34.8062921
  42.0733738  31.8974876  65.1384211  41.4009857  31.3388324  65.5283260
  42.7982759  31.3022137  64.9476194  66.2143660  35.6026006  35.2974153
  66.6542530  35.0675941  35.9580970  66.0308266  34.9952030  34.5807481
  62.6112700  52.7496672  40.5761051  62.3541546  52.1744585  41.2967014
  63.3200455  53.2826853  40.9363222  67.3128462  47.7892351  49.6410036
  67.6930666  47.1395779  49.0497303  66.3791275  47.7874422  49.4302797
   0.9373555  67.2157764  32.0680380   1.2632728  66.8040133  32.8683257
   0.0572312  66.8567562  31.9552708  13.6756051  70.9384060  61.6791487
  13.9875162  71.8384790  61.7730427  13.0563200  70.9743452  60.9501600
  72.5129604  22.6247668  40.9469604  73.1513309  22.3490071  41.6047382
  73.0437088  22.9203749  40.2072620   5.3653300  27.3507285  11.0273588
   5.8188349  27.0354652  11.8091333   5.6314278  28.2668710  10.9491897
  27.3532557  71.4204454  60.7144165  26.8309259  71.3516808  59.9152422
  27.7311397  72.2991753  60.6786966  83.8041210  48.4916401  30.3799629
  83.2787704  47.9450130  30.9642839  83.2560158  48.6083126  29.6039510
  73.6054325  39.8796582  27.6314116  73.8978481  40.6375027  27.1250510
  72.7940130  39.6049118  27.2043920  28.0783224  16.6321862  35.6464815
  27.6329660  16.1857510  36.3666105  27.4767399  17.3308623  35.3892159
  70.8022690  25.5104804  17.9269385  71.4911604  25.4825926  17.2629499
  70.6413221  26.4437437  18.0660343   4.9014649  50.5025768   2.5782621
   5.5055791  50.0761127   3.1860518   4.8113209  49.8819113   1.8551594
  72.5228834  23.2614326  37.8511930  72.1028948  23.9772987  38.3280373
  71.8252754  22.8929472  37.3091698  40.5316496  44.2330027  62.0884705
  40.5297947  44.1922903  61.1321354  41.0030985  43.4457254  62.3607969
  83.5727787  45.2318239  47.6526213  82.7373791  45.0318384  48.0749226
  83.9297867  45.9601545  48.1608629  63.0583858  38.0825210  29.0842247
  63.8908148  37.6857948  28.8275123  63.3025694  38.7765241  29.6965694
  81.8911076   2.2803330  40.8068705  82.1896648   2.1511339  39.9066496
  81.0917282   1.7577755  40.8714247  55.5796528  23.1449962  56.0226059
  54.9001312  22.5716066  56.3771582  55.8944798  23.6395884  56.7792416
  16.9659138  51.4748859  64.1958714  16.3063586  50.9947824  64.6965885
  16.4717960  52.1571064  63.7412786  54.5105314  72.9478550  55.1408815
  54.2478037  73.8674450  55.1013517  55.1798153  72.8605890  54.4621515
   9.8682326  53.1006908  37.4394083  10.7328200  53.2016802  37.8375578
   9.2557526  53.2012463  38.1680989  80.6638718  30.1286244  28.5433292
  80.5110550  29.6481562  29.3569827  79.8188591  30.1134920  28.0939245
  19.8714387   6.1433965   9.6315402  19.8993504   6.9630009  10.1252019
  18.9668429   6.0789341   9.3253005   2.6789939  43.5867834  32.5437593
   1.9334957  43.1083250  32.1810746   2.5513420  43.5463953  33.4915495
  68.6554480  28.6658192  60.4400015  68.8819313  29.5925403  60.5182791
  69.3879795  28.2799816  59.9596214  69.9755430  45.9915924  41.9398117
  70.5840778  45.4609823  42.4539852  70.5253172  46.4157152  41.2809467
  61.6173506  72.4271727  27.5796890  60.8641768  72.2782230  27.0080447
  61.7616224  73.3727741  27.5442672  83.9266968  51.2320375  37.2575092
  83.5066700  51.7336464  37.9562259  84.1879940  51.8904877  36.6137695
   8.6715442  41.4550638  62.4760485   8.6349750  41.6047573  61.5313339
   9.5423883  41.0874367  62.6267624  75.3511810  20.3489494  16.6163611
  75.5863810  21.1012626  17.1594405  76.1906576  19.9734247  16.3508546
  70.6423903  80.8697224  54.4801617  71.3138342  81.1581993  55.0983667
  70.1595831  81.6668510  54.2617273  47.4190807  23.6708403   4.4097036
  47.6960325  24.0394044   3.5708410  47.0718431  24.4181609   4.8967037
   3.0384099  38.2197118  44.8019457   2.3009977  37.7088189  45.1357794
   3.7964976  37.8891706  45.2838993  72.3511171   5.4320186  30.0711632
  73.1448793   5.2324909  29.5748115  71.7164326   4.7766465  29.7815228
  13.8311517  51.7930603   9.1615349  14.4993806  51.7385435   9.8447114
  14.1869998  51.2788248   8.4368539  13.8123512  31.0658622  34.4679976
  14.2041910  31.2613821  35.3191519  13.5122049  31.9142866  34.1419268
  29.5449328  18.6623561  32.2872639  28.9971185  19.3484855  32.6685190
  30.3500676  19.1128063  32.0321488  70.5423737   0.8286093  50.1124001
  70.3827429   1.7723542  50.1221991  71.4947271   0.7462502  50.1621342
  45.0535727  80.5943298  15.1995778  44.9387264  80.1419830  14.3638587
  44.2027044  80.9971237  15.3728092  79.4181061  37.4607396  20.2001452
  79.6946573  37.7144051  21.0807157  80.1825047  37.6325345  19.6502328
  17.6286447  35.7519507  10.0277948  18.4530914  35.3256726   9.7936887
  17.7678764  36.6750956   9.8164904  53.8294029  32.8722000  10.6400383
  53.1124830  32.3028421  10.3605902  53.4530973  33.7522960  10.6327093
  84.1969967  28.1480932   4.9857381  85.1164246  28.4044480   5.0576252
  83.7193489  28.8375068   5.4470384  75.1918697  51.3225746  22.3609757
  75.0593519  51.3712502  21.4142442  75.2116823  52.2357321  22.6473093
  79.3829823  80.1487064  63.9985561  80.0103092  80.7573128  64.3888092
  78.9041519  80.6757545  63.3588839  23.6757636  54.9074268  70.3778410
  23.8892365  54.0653038  70.7797003  23.2069683  54.6779442  69.5754719
  53.4916496  50.1932478  27.0248914  53.8932896  49.6349859  27.6906657
  53.8130474  51.0726166  27.2240162  72.1076918  27.1183491   0.3142199
  72.4228859  27.9195976   0.7324159  72.6353025  27.0394802  -0.4805386
   4.5505181  72.5670147  22.9570293   4.7823861  72.7184057  22.0407581
   5.1744157  71.9054127  23.2558084  67.4558783  63.0206966  24.1780758
  66.5812635  62.9831219  23.7909508  67.9167128  63.6842775  23.6647320
  56.4661789  50.0753212  50.2723980  56.8412161  50.0663328  51.1530256
  56.9553280  49.4038677  49.7968912  63.5068560  45.8002901  46.7780972
  63.0506897  46.2963915  47.4578190  63.4712744  46.3641310  46.0054064
  66.7111731  61.1668110  20.3687167  67.5779724  61.4113808  20.6928611
  66.2102413  60.9593153  21.1575437   2.1302988  66.3501358  34.5583296
   1.8993615  66.0036230  35.4202056   3.0638829  66.5512037  34.6233177
  16.3214195  55.2037716  43.0529928  16.8961728  54.4387579  43.0275536
  16.7984581  55.8779430  42.5690937  55.3749180  79.1053820  22.1866345
  56.3007259  78.9444447  22.0044017  55.3781271  79.6913862  22.9434872
   8.0647969  49.0823174  43.7448645   8.2640785  49.1690159  42.8126621
   7.1299082  49.2774820  43.8090944   0.5563190  65.1470757  11.3244808
   0.7929946  65.7114697  10.5884933   0.1992762  65.7458830  11.9803619
  82.1218586  38.1948113  19.9245536  82.5326920  38.7176609  19.2360234
  82.3935223  38.6164570  20.7398105  20.1599765   3.5515597  10.2968848
  20.1654959   4.4411564   9.9435866  19.6305263   3.0506951   9.6763617
  27.7331924  70.0150585  38.3948541  27.6496148  70.6425905  39.1128039
  26.9663167  69.4487762  38.4812188  87.3152161  28.6889362  19.2255378
  86.4812469  29.1580009  19.2520440  87.5054359  28.5911036  18.2925451
  15.2631271   3.1042007  44.7379732  14.8343074   2.4549270  44.1804886
  15.0024617   3.9474747  44.3676043  84.7120476  49.8374844  34.1985321
  84.6367264  50.2447414  33.3355737  83.8519192  49.9640656  34.5990181
  75.2490520  47.9461384  41.7792273  76.0072470  47.3982334  41.9821358
  75.2239084  48.5914278  42.4857664  34.8017240  70.7817316  21.1246252
  34.8744011  71.4588165  20.4519367  34.8961663  69.9579239  20.6464505
  84.1570473  50.3952169  51.8645144  84.2593575  51.0068750  52.5936508
  85.0495911  50.2386951  51.5561390  13.1597030  50.9087515  38.3587241
  12.7322125  50.4418087  39.0766692  12.8770304  51.8174028  38.4620595
  83.1506729  46.9710875  41.4324760  83.1694508  47.9193306  41.5617371
  83.1268978  46.8593359  40.4821205  28.4469533  59.2560005  12.2706270
  28.4278512  60.1560974  12.5957429  27.8570962  59.2610645  11.5167868
  62.3846579  61.1046743  42.4996233  61.8834066  60.7934141  43.2533455
  63.1716347  60.5598164  42.4938059   7.0927358  47.2696686  39.0681815
   7.3447514  46.9808626  38.1910777   6.3037217  46.7661762  39.2686462
  66.5651083  41.6511679  11.3813770  66.3890505  41.1740017  10.5704832
  67.5101376  41.8028641  11.3696551  19.6357191  58.4753323  33.7423110
  19.6942461  59.0855980  34.4774175  19.2514312  58.9907455  33.0331540
  72.8496408  50.4909420  10.3842878  73.7011385  50.2749491  10.0041234
  72.2146034  50.2035856   9.7282487  14.0199101  61.4765930  31.9173598
  13.9584649  61.1164570  31.0326242  14.0160728  60.7089949  32.4892116
  68.0287409   1.4782375  11.7426491  68.0500031   2.3562407  11.3620043
  68.9369392   1.3014695  11.9879365   0.9543671  53.7472534  60.3029823
   0.6311954  54.5303535  60.7485676   1.7559642  53.5177946  60.7731104
   8.6907351  48.8732481  41.0095263   8.0561256  48.8010883  40.2965784
   9.5401329  48.9180326  40.5704927  22.9976606  53.3179188   3.8251770
  22.4143696  53.0057764   3.1333894  23.6087656  53.9029312   3.3773553
   7.0026505  45.8589411  52.8952980   7.1777934  45.3386736  52.1111584
   6.0479856  45.9140015  52.9379082  26.3630342  12.4704051  34.8817182
  26.8160343  11.7823601  35.3691769  26.9999099  12.7601552  34.2285228
  56.7089272  70.5748129  35.1470494  56.0971880  70.4645729  34.4191360
  56.5613270  69.8090124  35.7020259  64.6346188  74.6293068  65.8798027
  64.3506479  73.8351679  65.4271030  63.8211727  75.0508928  66.1569357
  78.6758709  74.3720722   7.1326923  78.5888338  73.8163996   7.9072165
  77.8384352  74.8317432   7.0723748  74.7399569  54.0670013  22.7069855
  74.0962791  54.7050571  22.3990917  74.5105696  53.9189911  23.6244321
  57.0108461  66.4941454  40.0280714  56.9583225  67.3906326  40.3594160
  56.1618042  66.1087132  40.2444077  72.0778990  64.0118885  31.0334110
  73.0062389  63.8938141  31.2346005  71.7160177  64.4350100  31.8120265
  43.4372473  55.8137846  41.9771671  43.2364655  56.3390303  41.2025499
  42.8905678  55.0334024  41.8856812  87.2316456  52.1041489  13.1420314
  87.8380775  52.5961208  12.5884700  86.4178562  52.0751619  12.6389015
  58.4319830  25.4227567  49.5203066  59.1519022  25.0683331  50.0421667
  58.4142160  24.8764825  48.7344980  32.4167013  67.1837521   5.3405541
  31.6321206  67.2834396   5.8797461  32.8835726  66.4451027   5.7312709
  74.8599148  72.7881145  48.5877705  74.9802971  73.4969902  47.9559231
  75.0569248  71.9917107  48.0946589  42.7729177   3.9347741  39.9004459
  43.6637974   4.0574646  39.5725513  42.8776646   3.8341242  40.8465576
   0.5575991  52.5873804  27.7960086  -0.0700607  51.8793344  27.9407454
   1.0258046  52.3335409  27.0006609  33.7660480   7.7144939  38.3884001
  33.7692714   7.3498821  37.5033689  34.1229153   7.0156944  38.9366293
  65.8643198  57.6923227  35.5477309  65.6682682  58.1985617  34.7593641
  66.0651112  56.8139791  35.2245903  26.9172168  36.5072393  29.0150905
  26.6836071  37.4352193  28.9925075  26.1234069  36.0677719  29.3199921
  87.2685242  59.6188927  46.4011335  87.0689297  58.6827850  46.3913441
  86.4975739  60.0240278  46.7982912  77.7507496  45.9660673  22.8573442
  77.0578671  45.9434128  22.1973181  77.5684166  46.7541933  23.3690524
  74.7206640   6.2118685  16.0587800  75.4946709   6.3119286  16.6129744
  73.9819241   6.2967765  16.6615140  82.7804184   4.3461812  14.4863725
  82.4726582   3.9750111  15.3132653  82.0201302   4.8085824  14.1337073
  47.8024435  27.1596479  50.5565071  48.2116556  28.0152130  50.4269457
  47.6562357  26.8274832  49.6707773  23.9041996   0.4285676  34.2754912
  24.7299767   0.0948456  33.9248395  23.2297587  -0.0787137  33.8238001
  46.1606932  59.4936562   7.3622900  46.6975546  59.7277069   6.6051686
  46.7856169  59.4107533   8.0825889   7.5193554  66.7857075  17.3910892
   7.5647032  65.8889914  17.7228630   6.8123490  66.7669773  16.7460907
   9.6070939  32.1575928  21.3863587   9.9630016  31.3736200  21.8046236
   9.4280326  32.7557969  22.1118402  72.2304201  53.4470224  12.2998285
  72.5117350  52.7590275  12.9029524  73.0278301  53.9424229  12.1128857
  14.1898620  60.5573797  38.8503551  13.7460816  60.9475756  38.0973339
  13.7281644  60.9114981  39.6103978  84.6115494  61.1376095  46.3443661
  84.3277454  61.8876886  45.8218098  85.3174877  61.4807367  46.8922234
  83.6993313  40.6127644   0.0921710  82.8954887  40.6780243   0.6077275
  83.6154938  41.2987900  -0.5700786  25.9210825  60.6196451   3.4150758
  25.4321074  59.7974396   3.4484637  26.2823534  60.6476545   2.5291127
  77.8081226  48.1659985  25.8874130  76.8882990  48.3274508  26.0973954
  78.2464409  48.1370831  26.7378688  80.9289265  58.8966703  57.1409702
  80.6899548  59.8235512  57.1445990  81.8630409  58.8893414  57.3498011
  80.4745674  60.0422812  12.2726047  80.2301216  60.8025885  11.7449570
  79.6912766  59.8454475  12.7863586  75.0549889  43.3500051  51.6882467
  75.1129007  44.1310215  51.1378908  75.2565289  43.6629391  52.5701141
   9.3355572   1.6701680  61.6388893   9.3561900   2.3323002  60.9479570
   9.0704495   2.1506011  62.4231911  50.4035282  50.3979969  54.5939112
  50.0234604  51.1529303  55.0431967  51.3383770  50.4459381  54.7939014
  52.6330900  66.3455582  49.1683340  53.3969879  66.4612675  49.7334051
  52.6516581  67.1023560  48.5825491  39.0622282  26.8266177   3.4923512
  38.1763220  26.9423628   3.1488353  39.5498276  27.5783038   3.1555343
  66.8280649  63.5147095  66.5263462  65.8756495  63.5985756  66.5721989
  67.1050119  64.2354584  65.9606075   4.2432404  44.6964502  23.3954716
   4.0801889  44.3850040  22.5051641   5.1183367  44.3710518  23.6065459
  10.0210175  82.8620821  17.3693764  10.3887710  81.9789709  17.4026024
  10.3692016  83.2959878  18.1483018   6.0355610  74.2975140  13.8521338
   6.6649705  74.2277575  14.5699155   6.3226056  73.6411905  13.2172477
  10.8314967  48.3936310  25.9828377  11.0323954  49.0428066  26.6569614
  10.5361485  48.9103508  25.2331710  83.8992405  19.5543516  27.7838445
  83.7149525  19.0748775  28.5915422  84.1958904  18.8831604  27.1692467
  57.9669762   8.7185323  25.6009817  57.6186371   8.4661210  24.7458911
  58.3331251   9.5919645  25.4621100  85.5745220  67.1756220  35.4167771
  86.0670662  67.8838015  35.0019121  85.7598400  67.2703362  36.3510799
   6.7178881  60.4294634   2.8670993   6.3729525  61.1370039   2.3224580
   7.1009988  59.8123407   2.2437042  84.3663502  74.7824383  19.3986940
  85.0724030  74.4648981  19.9616230  83.6837769  75.0654268  20.0071716
  49.6230698  52.7148867  22.3721051  48.8095284  52.5220728  21.9060445
  50.1961279  53.0951929  21.7063713  84.8098183  43.3216238  35.0374770
  85.0781822  43.9659405  34.3824458  83.8655186  43.2299757  34.9104548
  84.8407459  53.2148314  35.6613398  85.2330017  54.0352201  35.9602189
  83.9864349  53.4705734  35.3135133  78.2975626  67.2441626  21.2719131
  78.2326317  67.4245787  22.2097111  77.6443434  67.8181362  20.8717990
  18.3123481  62.8218842  33.3733463  18.1614804  62.2533798  34.1285086
  17.5536525  62.6759005  32.8082800  23.9792418  70.3895330  34.1982818
  24.5165324  69.7286844  34.6351242  23.5928369  70.8950138  34.9134135
  48.2277727  53.6733580  41.8357515  47.8468561  52.8034163  41.7160273
  47.4771166  54.2419720  42.0072985  82.9178143   8.6004519  66.3426065
  83.6550045   8.6542809  65.7344198  83.2654572   8.9325178  67.1703243
  81.8579197  79.9229527  42.1935701  82.7166462  80.1717186  41.8516016
  81.3265133  79.7634935  41.4135599  71.5822983  28.7591338  18.0708241
  71.3903809  29.1104984  18.9402735  71.5182066  29.5152807  17.4874151
  75.4900742  31.3974285   4.9751097  76.1166477  32.1061659   4.8290831
  74.6438408  31.7715454   4.7298300  72.6283503  55.9643888  31.7826700
  72.6102543  56.7019796  31.1728621  73.4254169  55.4854488  31.5556717
  75.5276632  46.6434288   0.5690197  74.8793745  46.0227919   0.9018383
  75.5512810  46.4823294  -0.3742308  74.2472172  41.4740419  49.3754053
  73.9527464  42.3437214  49.1049099  73.7577486  40.8707619  48.8162041
  18.4347796  63.3732462  43.1708384  18.9988279  64.0203667  42.7473831
  18.6631989  63.4271193  44.0988255  61.6424751  50.5473852  36.1030507
  61.8628740  49.6613216  35.8157468  61.7350626  50.5203676  37.0553803
  86.9179058  56.6476393  12.5280333  86.5425110  57.4741983  12.8315163
  87.2623730  56.8463945  11.6573584  76.4214325  26.0412788  57.7142286
  76.1363173  25.8585572  56.8189335  77.3208857  25.7158327  57.7502823
  61.4633179  64.0928030  20.1549339  61.3943005  63.1568861  19.9664390
  61.4943314  64.5089674  19.2934954  71.6051006  30.3253937  48.6582994
  70.9578228  30.9903860  48.8929129  72.3188257  30.4550147  49.2828178
   6.3491809  76.9823837  42.5869703   6.0635978  76.0690451  42.6089478
   6.0606527  77.3437834  43.4250498   9.3576807  14.1085243  25.1394629
   8.6128587  13.6200595  24.7889280   9.8138613  13.4804094  25.6994653
  77.1867943  36.4632106  11.5199959  76.6119003  37.0781326  11.9756222
  77.4177265  36.9098067  10.7054675  25.1825023  46.4053154   8.7395018
  25.2428007  45.4935884   9.0247077  24.2973542  46.6749001   8.9845890
   8.1124407  59.9645805  44.5535088   8.1827444  59.8710299  43.6034870
   7.1760881  59.8810148  44.7337675  75.1748514  77.2025633  44.2072821
  75.4640961  77.1030998  43.3002663  75.9617281  77.0430994  44.7284603
  74.4965363  44.4999456   6.9471270  75.2700520  44.0695095   7.3113108
  74.5308924  45.3902721   7.2969449  66.1396837  32.2787881  59.3332863
  66.5991020  32.6771402  60.0725317  66.3273335  31.3433528  59.4106150
  65.9377766  33.8230896  33.3563137  66.1077023  33.4954000  32.4731493
  65.5387306  33.0829811  33.8137341  80.2212143  66.9855309   7.1113724
  79.3740177  67.3463774   7.3726851  80.7931709  67.7491379   7.0338839
  63.1447124  76.7920065  23.9693999  64.0367556  76.5285683  23.7433696
  62.5900030  76.3106394  23.3555460  35.5943227   1.4998341  60.9756184
  34.7107244   1.8457760  60.8498669  35.8377838   1.1477522  60.1194668
  72.6511049  41.7110634  17.5289047  72.8048086  40.7853842  17.3399055
  72.9839706  42.1713114  16.7584443  18.8325703   9.6611220  45.4208899
  19.2442167   9.2047733  46.1547327  17.9666710   9.9065298  45.7468128
   3.3643803  53.1599522  17.6264048   2.7873802  52.4959230  17.2490895
   4.2115816  53.0067587  17.2080588  71.9338465  29.5539331  29.8540449
  71.4469385  28.9425087  30.4065943  72.8150368  29.5648313  30.2276921
   5.3685147  49.2206192  22.6897407   5.1297057  49.5759916  23.5458446
   5.2863503  49.9628448  22.0909262  62.1734285  23.6572647  46.8889713
  62.8570843  22.9891086  46.9380474  62.5383806  24.3317366  46.3161469
  67.7751637  20.0891519  22.3835468  68.2944632  20.8854485  22.2718668
  67.9147816  19.5967484  21.5746713   8.6619622  51.7982817  44.5347595
   8.7365884  50.8481789  44.6239901   7.9107189  52.0317888  45.0800514
  88.0077072  67.5054216  36.8538618  87.2277805  67.7379179  37.3577380
  88.0252876  66.5484810  36.8676281  16.0539126  10.6322944  20.7415152
  15.5987859  10.5060327  21.5740728  15.6793928   9.9698013  20.1609397
  73.8341141  30.6710219  35.4652476  72.9809523  30.9175014  35.8224535
  73.6747122  29.8414278  35.0151420  11.9710374   7.7210456   9.2990243
  12.0427811   6.9973689   8.6766285  11.9306946   8.5049683   8.7512380
   9.5436865  54.5179081  10.9358013  10.3295553  54.5267916  11.4822114
   8.8181686  54.5012951  11.5599644  13.1532538  42.0628691  34.8203230
  12.6938009  42.8441572  34.5125437  13.4822404  42.3040247  35.6862593
  85.0869370  21.8655419  39.4124365  84.9000072  22.1792388  38.5276294
  86.0247231  22.0188212  39.5277667  74.8093939  67.5449419  14.5578039
  74.7840166  66.9813681  15.3310919  74.9728394  66.9454002  13.8297474
  72.9617643  79.1815901  70.6951189  72.0936918  78.9451551  70.3683376
  73.3444929  79.7119808  69.9962378   7.9977131  55.3103304  40.5697346
   7.3137772  55.8785963  40.2154303   8.0182034  54.5606804  39.9748921
  19.0375829  60.7145071  42.8783607  18.2162631  60.3982735  42.5019789
  18.9511263  61.6677904  42.8751993   4.1157091  21.9133282  65.1889515
   5.0510812  22.1155095  65.2097702   3.6880711  22.7660012  65.1095295
  85.1864338  31.2443542  32.3905087  85.9844303  31.2104821  32.9180336
  85.0097084  30.3311348  32.1646142  73.0102825  65.3719997  52.4270487
  72.9214716  66.1158180  51.8311596  72.6015139  65.6668806  53.2407951
  74.4074917  36.0622787   8.5323250  74.5881128  35.9049988   9.4590777
  74.2508650  37.0048618   8.4754354   7.8734714  31.9169211  54.3164301
   7.1889836  31.8989658  53.6475611   8.4160870  32.6703310  54.0836763
  66.1803865  46.8529797  35.9850144  66.8194389  47.5629044  36.0471320
  65.8768892  46.8826342  35.0776887  70.3895187  77.6493549  32.3602653
  70.6237173  78.4276724  32.8658390  70.8998013  77.7250004  31.5539646
  81.2399197  72.3256159  36.8978786  80.4270363  72.5635719  36.4519668
  81.8635082  72.1651888  36.1896205  61.8678904  67.4739265  39.4248629
  62.3227406  66.8423510  39.9820423  61.4752340  66.9428968  38.7320018
  64.6812296  47.6163530  11.6537094  65.6120825  47.7084398  11.4505768
  64.5595551  48.1250525  12.4553633  46.5624809   3.3560210  18.8657570
  47.0460844   4.0887529  19.2471576  46.2973213   3.6684203  18.0006969
  14.8662210  30.2950025  56.0407782  15.5650401  30.3944445  55.3942537
  15.0946677  29.4983840  56.5197754   8.0304539  53.8827610  25.0969934
   7.7330250  52.9732084  25.1189375   7.2242349  54.3986750  25.1058483
  61.6155338  61.2988758  11.2876737  61.3710594  62.2140694  11.1502314
  62.5717592  61.3100672  11.3293493  71.6357660  32.2820187  28.0207705
  70.8460617  32.6293278  28.4354711  71.7021179  31.3842654  28.3461428
  37.2808003  17.6776528  63.8989401  37.0321989  18.1549430  63.1073427
  37.2804642  16.7578316  63.6340618  60.5747271  46.2971830  61.7904282
  60.9488487  47.0987129  62.1562338  60.9113169  45.5981779  62.3510790
  67.8141594  63.1006289  59.0609026  68.2255268  62.6815891  59.8168230
  67.7524137  62.4054289  58.4058380  58.5748196   1.8361276  32.6370001
  57.7402639   2.2238632  32.9004622  58.4587812   0.8970140  32.7813339
   6.0909814  58.0959702  49.1154194   6.1029333  58.9604282  48.7045622
   5.7028401  58.2458401  49.9774647  76.6172123  36.8281913  35.3909969
  76.4557409  35.9306097  35.6816936  77.3916388  36.7633104  34.8321700
  20.9364462  36.0695696   3.7910050  21.8703270  35.8791327   3.8794971
  20.5224800  35.5706215   4.4952163  24.6071529  40.7526016   6.5367681
  23.7387586  40.7205248   6.9381303  24.9169135  41.6421795   6.7068559
   6.6760570  63.7588215  17.8675652   6.3602614  62.9601717  18.2902479
   6.0308099  64.4255495  18.1028605  68.0501413  64.6585035  69.2105341
  68.1992912  63.8703489  69.7328377  67.8383684  64.3302155  68.3366871
  44.5154095  72.2353077  12.2995365  44.3866205  71.5332317  12.9372919
  45.3547430  72.0326185  11.8864167  69.9507141  68.0795479  31.5039492
  70.5893278  68.4162855  32.1324492  70.4652834  67.5353098  30.9079146
  21.0266161  62.3303461  71.8762016  20.5789828  61.6628170  71.3563347
  21.7454839  62.6265478  71.3178825  85.6253338  16.6304600  49.7079420
  85.8397961  16.0515702  48.9764214  86.3994598  16.6027343  50.2702475
  64.9184084  45.5972719  52.6829195  64.5370245  44.7193480  52.6776743
  64.2332602  46.1538410  53.0531025  53.6086845  62.4980021  24.5192599
  53.6384726  63.4360743  24.7073126  54.4841719  62.1812391  24.7415590
   4.3085453  47.7301121  37.1638632   4.6106526  47.1895838  37.8937888
   3.7358028  48.3812857  37.5690413  41.6591787   3.1746757  51.0797930
  41.4303017   4.0881065  51.2515259  41.1481094   2.9413292  50.3048182
  65.1739454  46.6399193  40.1872969  65.4845905  46.9297552  41.0450411
  64.9171638  47.4465322  39.7404504  60.4122162  53.0437279  18.2906032
  59.7937250  52.7820921  18.9726961  60.0144482  53.8169432  17.8904045
   1.1541933  56.3819313  14.1455579   0.3966189  56.3604021  13.5608792
   0.7778610  56.4558029  15.0225687  46.3267231  64.6214724  13.6547840
  45.5556488  64.0603971  13.7376976  46.7864180  64.5215178  14.4884038
   2.9084054  70.6651068  25.9141803   3.7327439  70.3125238  25.5789423
   2.4727285  69.9139023  26.3168097   9.6548635  32.3089027  40.3818417
   9.3729830  32.3066020  41.2965918   9.3368500  33.1425786  40.0353146
  72.6204634  78.6822224   1.8943122  72.6969528  77.7338505   1.9990391
  71.7446947  78.8893461   2.2204557  72.1169806  39.9859715   0.7744457
  73.0670071  39.8814607   0.8269373  71.9862556  40.9249544   0.6423230
  67.5903130  55.2245712  50.4165411  67.2514820  54.4572210  50.8776236
  68.1571531  54.8635006  49.7349596  83.8081264   9.8100001  53.0203104
  83.2698154  10.1482177  53.7358999  83.7249279  10.4653394  52.3276043
  12.8843749  74.5103884  51.2347126  13.7058628  74.8962450  50.9305668
  12.2041035  75.0737810  50.8658648  76.6579294  29.7015810  30.6871796
  77.0705080  28.9819121  30.2095985  77.3541498  30.0495291  31.2443542
  61.5215302  35.4041386  50.2558041  61.5996170  34.8873830  51.0577345
  60.9380102  36.1253762  50.4914904  73.6668348  30.1163220  39.4923162
  74.0622616  30.8893657  39.0894842  73.8653755  30.2040005  40.4245853
  81.5895653  47.2383595  28.0966258  82.4968433  47.4720955  27.9005480
  81.1764050  47.1414757  27.2386384  74.3491173   6.4200407  22.1443653
  74.2934847   5.9396434  22.9704142  74.8304319   7.2179431  22.3632717
   7.8927797  67.3286629  25.0501204   8.4739590  66.5705013  24.9896789
   8.1038380  67.8543520  24.2785406  19.3708861  73.9115620   7.8460228
  19.0050542  74.0450907   6.9716269  18.6279130  74.0318203   8.4374285
  67.4655771  61.1075497  62.9277039  67.8680372  61.6664219  62.2629309
  66.5354443  61.0985088  62.7018642  15.2174163  64.0575981  48.4504509
  15.1566803  64.3160439  47.5308037  15.1134741  63.1061268  48.4392166
  14.8337853  23.5624123  19.9047840  15.3914309  23.3541369  19.1551948
  15.4266632  23.5465527  20.6561017  16.2217844  77.3067856  68.8152885
  16.1826169  76.4727688  69.2833900  15.9884989  77.9618359  69.4731045
  73.4375143  58.3231735  42.9199648  72.7496624  58.9394760  43.1714869
  74.0929174  58.8630104  42.4780798  28.6356497   1.6714628  36.6873813
  28.2690430   1.4911515  35.8217502  28.9509702   2.5734624  36.6307998
  25.0437450  29.6792531   5.7767451  24.2848587  29.4718313   6.3219970
  25.5135489  28.8493490   5.6944472  12.6561761  60.3108215  15.1717854
  13.4018278  59.7106314  15.1746237  12.2374737  60.1766396  16.0220301
  85.2761936  11.9118845   1.7012367  85.0512981  11.1506867   2.2362407
  86.2306976  11.8843710   1.6348185  59.9495125  31.2543535  17.5658035
  60.1860332  32.1392012  17.8438938  60.7696772  30.8753777  17.2496724
  26.7432189  45.0143290  34.4462371  26.7418408  45.0119400  33.4890389
  27.2001004  45.8214235  34.6830773  85.2358627  40.9269571  11.0334957
  84.9619007  41.1315298  10.1394463  86.0227394  41.4547348  11.1695611
  27.9711938  71.3416624  33.2649016  28.0635595  71.3253975  34.2174983
  27.9005194  70.4202700  33.0153537  -0.2776030   0.4858947  68.2490730
  -0.2306518  -0.4335628  68.5110331   0.5737129   0.8485033  68.4940386
  30.3894258  51.8687820  41.8784046  30.2081084  51.3321877  41.1067677
  29.6520829  51.7011881  42.4653149  66.9928360  34.0617394  55.2155781
  66.0420370  34.1659403  55.2524185  67.3267174  34.6774530  55.8680010
  17.3155165  38.7474513   9.8958725  17.9676116  39.1580462  10.4636884
  17.6799750  38.8290668   9.0145433  84.0892982  48.6171055  13.8044143
  84.9728203  48.9675331  13.9176488  83.5132980  49.3668842  13.9537072
  76.6558123  60.5451393  64.4358253  76.2985468  61.1244583  65.1088667
  77.6041985  60.5956173  64.5551682  77.0341110  49.7166395  30.9364581
  77.3837566  49.1792822  30.2256680  77.6751947  50.4194021  31.0430670
  80.2233505  45.5849886  34.1599584  80.7592678  46.3328743  34.4239402
  79.5634651  45.9576797  33.5752511   8.9232069  55.6348515  30.8852553
   8.7037003  56.5499067  31.0605359   8.5436356  55.4581356  30.0244808
  77.8787804  13.2829177   5.3770065  77.3441124  12.5233209   5.1459664
  77.2456121  13.9852810   5.5253804   8.1162184  49.3429375  11.4045703
   7.7166742  48.8221645  12.1012712   8.9503413  48.9076567  11.2284935
  23.1640196  22.0428300  32.7942491  23.4330416  22.1618938  31.8833804
  22.4228597  21.4388561  32.7480960  49.4516039  70.0328827  48.1590700
  48.5775852  70.0602770  48.5483885  50.0427198  69.9280930  48.9046144
  83.0067348  74.8839378  27.1203136  82.9744530  73.9743948  27.4168324
  83.7192440  75.2754354  27.6255679  47.7154493   8.1928593  10.7372725
  47.5320148   8.6513734   9.9173045  47.8150320   7.2757792  10.4817748
  21.4590669  59.8167038  68.1016827  22.2874165  59.5757294  68.5164118
  21.7077518  60.4246569  67.4054241  77.0021296  48.6370468  36.7937255
  76.8174601  47.8488970  36.2828875  77.1689224  48.3147526  37.6794696
  14.9465168  59.5225096  59.4599056  14.1440618  59.0188074  59.3235922
  15.1131678  59.9407625  58.6152029  77.2044039  63.8984203  62.2306156
  77.4719906  64.2723799  63.0701303  76.8082619  63.0573511  62.4584484
  60.9533358  66.1913919  34.4613218  61.8989038  66.3330698  34.4158721
  60.5911684  67.0545340  34.6614647  76.6504478  45.9308481  35.6891942
  77.3375988  45.5225086  36.2158012  76.4876842  45.3065252  34.9821162
  49.7900581  57.0326281  29.0027785  49.2323637  56.3288212  28.6713290
  49.7780371  56.9202662  29.9532866  78.5247612  71.3959551  13.6444736
  78.1550074  72.2370815  13.3761084  77.8018808  70.7756090  13.5504186
  73.0130053  70.0832415  30.5549431  72.4145699  70.4626942  31.1984658
  73.6146021  69.5487881  31.0732770  45.3437567  51.4067984  39.3948793
  44.6940708  51.4612246  40.0957203  46.1765909  51.2808371  39.8495817
  78.2616043  43.3606911  18.7022781  78.7478924  42.9171133  19.3972564
  78.9351702  43.7917185  18.1762004  79.4885111  75.6834793  47.4840069
  80.2283764  76.0974693  47.9283524  79.2129660  74.9849749  48.0776358
   2.1829991  74.0433931  53.6482239   2.2228655  73.2816076  53.0700159
   1.9896492  73.6787128  54.5118570  80.2580357  66.6950417  46.0959816
  80.8703804  67.2434855  45.6055975  79.3934584  67.0310593  45.8596802
  61.6805506  77.7362442  48.7675905  61.1088991  76.9793510  48.8962698
  62.4262762  77.5741529  49.3453884  12.0425618   9.0152812   6.9534439
  12.3948300   9.9050856   6.9337928  11.2408566   9.0635192   6.4327002
  85.8747387  73.7263298  37.0080733  85.0209522  73.3534050  37.2276115
  86.3970947  73.6126184  37.8020787  37.5379539  40.8075428  19.9595296
  37.7911687  40.4004097  19.1310644  38.1715465  41.5144110  20.0825334
   9.7461975  77.7584696  39.0196157   9.5022351  77.6092386  39.9330926
   8.9693773  77.5069666  38.5200858  74.3299866  40.3336859  60.5931568
  74.2339802  39.8226738  59.7894907  73.7158489  41.0605574  60.4896116
  71.5349817  57.8024101  38.3040595  71.7804718  58.2263374  37.4817133
  71.7654037  58.4396410  38.9801311  29.2921019  77.9392290  36.6515803
  29.0203857  78.5105276  37.3699260  28.7071776  78.1679869  35.9292483
  47.5527668  66.3486195  27.7123642  47.0006800  67.0573187  27.3819423
  48.0221415  66.0311079  26.9409347  59.0181494  73.6068773  51.7121363
  58.6444235  72.7882767  51.3858652  58.4692001  73.8390255  52.4611330
  61.5472746  38.4394240  67.2181225  60.6927919  38.2265496  67.5933266
  61.3856459  38.5064888  66.2770510  50.0260639  64.4942331  23.2564878
  50.5663013  63.7806845  22.9170370  49.9745750  65.1201773  22.5341511
  69.2951727  17.0530725  29.3861723  69.7282791  16.3319993  28.9293313
  68.5463285  17.2724617  28.8317943  32.3371401  77.2986306   0.2798967
  32.9078373  76.5642775   0.5063086  32.8491845  77.8174986  -0.3404398
  66.2843609   3.2608718  33.2111025  66.7189121   2.4910164  33.5781431
  66.0676765   3.0084482  32.3135734  29.6311712  79.3629646  13.2612860
  29.2914987  78.6351681  13.7820196  29.2193985  80.1402473  13.6387861
  42.2641563  68.3260727  52.0920610  43.1286716  67.9218912  52.0179844
  41.6530704  67.5895452  52.0739412  27.1917915  50.6985521  19.6768248
  27.2986984  51.6298342  19.4831383  28.0546618  50.4164362  19.9803007
  57.7734137  23.7719822  54.5065832  56.9596004  23.6984634  55.0051117
  57.9171705  24.7143888  54.4203520  30.4441524  17.8456092  22.3548985
  31.2366343  17.4389577  22.7053833  30.5323648  18.7725449  22.5768018
  57.4974775  36.3477969   9.2164445  57.1782923  35.4931331   9.5061028
  58.0164051  36.6717529   9.9526501   1.4220130  37.4230957  19.9287486
   2.1848075  37.6854849  19.4134533   1.4901473  36.4702487  19.9893296
  64.1013718   7.5799638  30.0045776  63.9649200   7.1723914  29.1493011
  63.9923525   8.5171783  29.8434067   6.6273898  20.5094242  64.0163851
   6.8755889  21.4084029  64.2319441   6.5098464  20.0832748  64.8653936
  76.0784912  36.9081426   3.8849500  76.9757652  36.7144966   3.6136052
  75.9109640  36.3032031   4.6075943  84.1388798  81.9056988  21.1466241
  84.8533154  81.2872696  21.2994933  83.3808804  81.3534164  20.9551644
   4.5845810  23.3955288  30.1127338   3.8881034  23.7865734  29.5852542
   5.3060830  23.2644415  29.4975233   8.5025471  48.8690472  15.5000997
   7.9809809  48.6532593  16.2731683   8.9555633  49.6788216  15.7352102
  13.4081399  23.4666634  30.5717349  13.2744110  22.7682376  31.2124777
  13.9978218  24.0818954  31.0076189  87.1659660  43.2661009  67.9464197
  86.5448761  42.8668070  68.5555601  87.8913403  43.5559320  68.4996414
  61.8164873  48.2675648   4.0719062  62.1291208  48.6491585   3.2516143
  62.5472307  47.7319670   4.3807435  35.0318837  72.2150326  24.9085450
  35.0787997  73.1599426  25.0540614  34.2090392  72.0859003  24.4368649
  51.1118507  29.0263867  14.3887675  51.4503336  29.6603012  15.0210738
  50.6121635  28.4042311  14.9174154  56.2248135  33.4070277  20.5960894
  56.2522697  32.4680281  20.4123521  55.7860374  33.4723830  21.4442849
  19.1092992  61.3906574   2.3995194  19.7057247  61.7983389   3.0274558
  18.3839130  62.0102549   2.3211360  65.2180958  24.9251723  17.0098531
  66.0582685  24.8329568  16.5605903  65.1592922  24.1506195  17.5691760
  10.7846892  80.7495499  13.8981497  11.0028613  80.8215714  14.8273671
  10.5147493  81.6327095  13.6463535  55.3693104  25.0620818  25.2268887
  54.6296310  25.1217723  24.6222830  55.0091362  25.3279161  26.0729623
  84.8571491   4.4887477  39.4981098  83.9417267   4.5706245  39.7655797
  85.3279686   5.0992084  40.0654697  35.7987690  76.3498259  67.3868895
  36.1258578  75.9267139  66.5930271  36.5781689  76.7248201  67.7969456
  20.8669782  31.6992450  66.6321373  20.9500861  30.8964705  66.1174774
  19.9411368  31.7348766  66.8725109  50.2882051  16.0255122  69.2116976
  51.1731005  16.3675320  69.3390512  50.1033497  16.1785090  68.2850647
  34.8143387  12.0616388  35.0586462  35.3276992  11.4925504  35.6320834
  35.4459238  12.6996815  34.7266316  23.7144613  16.7046070  66.8059874
  23.4802675  15.9861088  66.2184954  23.5758352  16.3505924  67.6844406
  43.8047457  52.8674030  13.1401455  44.0991879  52.2654915  12.4565971
  42.9378366  53.1523705  12.8511834  48.0968189  32.0535779  14.9687779
  47.4120760  32.5929379  15.3643143  48.4098196  32.5703430  14.2263389
  30.1526165  36.3438988  64.3730879  30.7132792  36.8050122  64.9969959
  29.3989253  36.9221449  64.2555523   7.2336507   4.2382723  17.6101124
   7.1827185   3.3004272  17.4254930   6.8810326   4.3275836  18.4955025
  24.6121454  23.3612657  69.4431067  24.7272325  22.5941372  70.0039101
  25.5026054  23.6654425  69.2676449  65.5269194  19.1239440  34.8603034
  64.7136736  18.6454093  35.0211358  65.7074690  19.5736384  35.6857777
  48.6368322   1.5572958  22.3032045  48.4796000   2.2589581  22.9350114
  49.1624451   1.9670205  21.6161180  24.9407148  34.8489213  69.0390253
  24.9621654  34.4541693  69.9107742  24.4239211  34.2390084  68.5125685
  16.0735106  26.6578507  24.8176670  15.5652452  26.5905142  25.6259775
  16.6060829  25.8626318  24.8026752  40.2035189  11.7337966  20.9616661
  40.9339952  11.5712261  21.5584993  39.8612881  10.8630896  20.7592320
  69.7327185  11.9900966   7.4698728  69.7369146  12.3821831   6.5966707
  69.8705721  11.0558569   7.3135930  37.4925351  59.9669600  28.3116412
  36.7852068  59.3308258  28.2055545  37.3857284  60.2973652  29.2036366
  34.4684649   6.0173535  52.4495077  34.8097920   6.0129809  51.5552425
  34.1328478   5.1307821  52.5821114  58.3164835  31.8430734  12.3919439
  57.8653193  31.3695526  11.6930449  57.8301811  31.6193557  13.1854761
  36.3243246  60.0579166  71.5551376  36.6809034  60.3654385  70.7217598
  36.1122823  59.1375017  71.3998652  63.4619188   8.4606993   3.2379708
  63.4291077   8.9482987   2.4149266  63.1208134   9.0710366   3.8917053
  78.0545378  23.0345178  20.2553034  78.8813639  22.5527334  20.2334762
  77.5263500  22.6352310  19.5640588  54.6384335  17.0396292  14.2400777
  54.9434376  17.0055723  15.1467443  55.2568102  16.4901066  13.7585521
  13.5624075  26.2563515   2.3979840  12.9201615  26.1345196   3.0972040
  13.2654929  25.6768203   1.6964027  13.2181764  80.6965542  43.4579515
  12.4776542  81.2315750  43.1722736  13.9321041  81.3220978  43.5813761
  76.9846964  71.0584688  29.1153193  77.0492077  70.6969404  29.9992681
  77.8916836  71.1234903  28.8163614  19.5506549  25.0581169  42.2605324
  18.9390039  25.7328415  42.5552607  19.8863316  25.3869033  41.4265966
  21.8166375  75.0891018  10.0047565  22.6910734  74.8081827   9.7351694
  21.4453316  74.3254471  10.4465628  48.0234480   0.9617528  15.9788072
  47.8065538   0.3590520  16.6901028  48.7952042   0.5756259  15.5646443
  18.5889733   4.2237607  12.3159599  19.2091930   3.8838017  11.6709900
  19.1055095   4.3233272  13.1156528  51.6934443  52.5255871   9.5991457
  51.0424471  52.3742867   8.9139140  51.2608147  53.1181622  10.2138960
  59.7631454  51.8291950  32.1995234  58.8510942  52.1048450  32.1078110
  59.9559402  51.9449472  33.1299353  16.5650320  20.5181146  50.6556797
  15.7669711  20.4227877  50.1358318  16.9638181  19.6480203  50.6440449
  55.3754473  13.8587821  26.0020590  56.1738873  13.4495914  26.3356638
  54.6735382  13.4821916  26.5328455  84.7342587  47.0145559  71.1796761
  84.2574024  47.5639153  71.8018007  85.6256390  47.3633051  71.1864519
  17.4212301  80.7691002  39.2194581  17.4716473  79.8901510  39.5951438
  17.7151179  80.6602192  38.3150220  75.5393887  22.0711255  28.2719207
  76.0853720  22.2585511  27.5083756  76.1447382  22.1024346  29.0127301
   1.8958831  79.2314911  65.8616066   1.5984155  78.3220291  65.8365345
   1.8422508  79.5261812  64.9524784  46.9797707   2.0227782  34.3862391
  46.8016195   1.1261045  34.1025662  47.4214077   1.9238785  35.2296901
  40.5873537  60.8588648  67.7206802  41.1496496  61.3879061  68.2865143
  40.6145668  61.3030195  66.8731976  38.2650995  65.5583048  44.7074175
  38.0534053  66.4401484  44.4012070  39.2092586  65.5791712  44.8634958
   5.3047401  15.1382637  27.8419495   4.4476512  15.0292790  27.4299383
   5.1250476  15.1031995  28.7814760  16.2527490  67.9855585  25.0497174
  15.6696200  67.9983759  25.8086848  16.4442408  68.9077806  24.8792052
  84.8703766  34.6112299  29.7570014  84.5174217  33.7220144  29.7261596
  84.1859245  35.1259041  30.1846242  85.4293823  67.8379059  31.1672401
  85.4002571  67.2356272  31.9106412  86.0401726  68.5233402  31.4380908
  59.6985388  39.1014719   4.6124154  59.6724558  39.4526601   5.5024821
  59.1612768  38.3102250   4.6512926  59.9130487  13.7075937  37.3148441
  59.8195648  14.5207644  36.8186140  59.3116140  13.8068748  38.0528474
   2.9206452  80.2301311  13.7239134   2.0922631  79.8656321  13.4122109
   2.7919507  81.1781311  13.6928809  15.2487361  61.4205122  61.4387131
  14.8360455  60.7138395  60.9421921  14.5197999  61.8707180  61.8655634
  17.2267687  68.9189768  47.0618582  17.3111856  68.0129910  46.7647171
  16.3718939  69.1995192  46.7351818   5.2888387  46.0838699  20.4063797
   5.8324170  46.0349321  21.1927366   5.9087920  46.2521744  19.6967566
  65.4316092   6.3038230  18.0189836  64.6910715   5.6978321  17.9943538
  65.4068851   6.6765410  18.9002895  82.3843098  13.8513505  14.4948888
  83.2725525  13.4946370  14.4906688  81.9351768  13.3840013  13.7905514
  56.9055510   2.7170241  18.3440089  57.1910858   2.9809365  19.2186797
  55.9550858   2.8294766  18.3582485  71.0267973   2.1334583  14.9388540
  71.8710804   2.4596481  15.2503240  70.4103088   2.3620225  15.6345069
  59.7938967  23.6206198  62.6112986  60.4656601  23.9563847  63.2047844
  60.2852297  23.2555246  61.8754148  63.9729881  34.4942951  19.0792370
  63.5551167  33.7623143  18.6255670  63.2954025  34.8309231  19.6655726
  69.5411301  78.7112713  16.4979637  68.9968777  79.0560246  15.7900345
  70.2163601  79.3773317  16.6270614  35.9138465  80.0212383  10.0708985
  35.9197569  79.3064594   9.4342750  36.7462945  80.4727936   9.9317604
  44.6621656   9.0341049  23.9261222  43.7096691   9.0945691  23.8531017
  44.9813271   9.8751700  23.5990453  55.6532860  45.4352379   4.4205266
  56.0849476  45.1529837   3.6141574  54.8935413  45.9357119   4.1229552
   4.9115628  34.1804099  24.1455936   4.3614149  33.6229110  24.6958351
   5.8008760  34.0307355  24.4664550  52.5897217  17.4143672  56.3206244
  51.9784355  17.9977977  55.8709955  52.5602818  16.6015875  55.8158922
  55.8102036   6.1251861  29.3980074  56.5743732   6.6083062  29.0835619
  56.0783339   5.7810920  30.2500296  74.0529013  44.0877295  47.6782560
  73.8768482  45.0179243  47.8195953  75.0042152  44.0103245  47.7506018
  44.2026281  74.9619627  64.3482542  44.3828583  74.0809345  64.0203094
  44.1932154  75.5118656  63.5648346   5.9019166  72.7481508  70.8347082
   6.6104257  73.3021069  70.5070210   5.3398883  72.6029015  70.0736189
  80.8823013   9.4361204  19.4129026  81.0987854   9.5568007  20.3374577
  81.4264965  10.0760329  18.9539886  12.8767061  28.9891672  37.5693846
  13.1683636  29.8423505  37.8907084  12.4398685  29.1822076  36.7398405
  42.3209238   6.6574275  21.3089323  42.7276945   6.9343668  20.4879117
  42.7257538   5.8121848  21.5036321  26.5196943  57.3508406  68.4749508
  26.2121916  57.3525524  69.3814135  26.7591381  58.2612419  68.3015394
  25.2764726  75.3273964  69.1468430  25.3990030  74.7247553  68.4133291
  24.3903852  75.1461649  69.4602728  48.5292196  42.4731016  68.6977005
  49.4119358  42.2377014  68.4119940  48.5399580  43.4290409  68.7456799
  52.0449829   6.8891495  32.7393913  52.2228718   6.5572619  31.8593693
  52.4296856   7.7656060  32.7471304  59.3383312  22.8145647   5.1077902
  58.6076212  22.6592565   4.5093143  58.9473867  23.2795095   5.8475333
  65.5204821  20.0625324  28.1203580  66.2745571  20.2362967  27.5569654
  65.8664179  19.5071459  28.8190055  51.5690613  81.4210510  46.4693928
  52.5222206  81.5052509  46.4442348  51.2908506  81.5780163  45.5670643
   1.2523516  31.8767834  63.5374403   0.9761395  31.5217566  62.6925182
   1.8091214  32.6224780  63.3134365   7.3635739  74.7844076  49.1089773
   6.5316188  74.8686838  49.5747852   7.9828191  74.4886875  49.7762966
  51.5886354   5.6644517  52.8899860  52.3323107   6.2120861  52.6384449
  51.7709255   4.8143476  52.4895811  51.6269064  12.0669210  42.6538658
  51.0164547  12.5672674  42.1123505  52.2089481  11.6391194  42.0258188
  10.2346039  20.7262969   9.5575362  10.9732509  20.4093981  10.0773525
  10.5699265  21.5063143   9.1155368  55.0585222  34.4957924   7.0423007
  54.3616819  34.7058487   7.6640093  55.8682442  34.6560764   7.5269598
  74.7873688  22.4965191  36.3688374  74.8513556  21.5545750  36.5265703
  73.9637661  22.7533937  36.7834806  81.6799927  41.1803293  26.7956662
  82.2452736  41.8964386  27.0852637  82.0588207  40.8977604  25.9632754
  70.9724188   0.3547971  32.3685861  70.0426722   0.2406797  32.1716642
  71.3698673   0.5780430  31.5269041  70.0095749  10.1264870  49.6305323
  69.7686481   9.6585619  48.8310099  69.3436146   9.8696238  50.2682972
  39.7242904  74.8369217  19.3890846  39.3819666  74.5124483  18.5561609
  40.0527143  75.7132387  19.1879749  63.4934187  44.4792175  14.5744419
  63.3076239  45.3794909  14.8413169  64.4490242  44.4255733  14.5616221
  52.7358341  79.2624140   6.6282928  52.2363043  78.5295057   6.2683690
  53.6513710  79.0116072   6.5053171  18.0940855  68.8658428  67.3306513
  17.3690033  69.3978214  67.0028067  17.7663910  68.4924841  68.1488562
  51.2556171   3.2779863  21.7041969  52.1788549   3.2863235  21.9567585
  51.2530899   3.5795078  20.7957315  62.5268507   9.6396047  24.8573232
  61.9852448   9.3233120  25.5804110  63.0622482  10.3323114  25.2442884
  39.0662193  54.8402071  12.8346312  38.5024261  54.5590734  12.1139836
  39.7264123  54.1507244  12.9052413  71.3412905  30.5986953  53.8119173
  70.6242418  31.2327647  53.8171768  71.9994497  30.9862041  53.2349491
  51.7363071  46.7730188   9.0482986  52.6435947  47.0238495   9.2219138
  51.5247011  46.1458254   9.7397333  86.0792255   4.4592595  32.2403383
  85.2796173   4.7830117  32.6551175  86.2581158   5.0883633  31.5414405
  68.3641720  19.0721977  11.5162361  67.9412985  19.1068661  10.6582117
  67.6524544  19.2157388  12.1400023  55.8434153  20.9237194  23.5743451
  56.3816357  21.6989613  23.4144831  56.3337994  20.4217839  24.2253566
  19.9926960  73.6122656  54.7229147  20.3195882  72.7290344  54.5518303
  20.3058529  73.8170815  55.6039429  26.5006232   7.1376741  17.3592544
  26.2650013   8.0376786  17.1340740  27.4505329   7.1605676  17.4749184
  42.1476460  77.0661688   9.2904663  41.2776613  77.4144363   9.0953606
  42.2999001  76.4082050   8.6121356   4.3377474  27.2958660  22.2835183
   5.2211374  27.6184916  22.1052861   3.7939602  28.0834246  22.3001909
  18.0836582  59.4801378  52.9241180  18.5016561  60.2410698  53.3272171
  17.8756368  59.7645760  52.0341444  79.9144697  77.2528982  54.8615456
  80.2793026  76.3845348  54.6910572  80.2658176  77.4963808  55.7179928
  68.4684896  16.0383403   6.0450327  68.1571436  16.0902381   6.9486946
  67.7090120  15.7359815   5.5470306  20.5233979   1.2233217  15.0462270
  21.0036802   2.0130865  14.7975659  21.1787438   0.5261495  15.0197268
  12.7553868   6.5005416  13.6362839  12.1426570   6.9573271  13.0599666
  13.5147166   6.3186365  13.0826056  43.9443159  30.1351047  69.8435259
  43.3867073  30.3216481  69.0882063  43.4222126  29.5446467  70.3866625
  20.0760651  76.9083071  22.8316784  19.7435355  76.9356966  23.7288427
  19.4316399  77.3997021  22.3222852  22.4373579  78.9420605  35.0499964
  21.7435122  78.4850168  35.5253077  22.9303002  79.4019842  35.7294869
  10.5892670  29.0729809  64.0863371  10.4365790  29.9659562  64.3953896
   9.9366295  28.5453391  64.5466518  27.7371120  38.8456535  70.4290438
  27.3587251  39.0159845  69.5664644  27.1225834  39.2467690  71.0436106
   6.1382985  75.2349710  69.7448587   5.1942337  75.1680851  69.6016836
   6.2234044  75.5025434  70.6599474  30.4059076  70.4041195   8.3354461
  29.9186397  71.2122869   8.4956586  31.2062240  70.6902552   7.8951645
  53.3670092  74.6464682  14.5311415  53.8482046  73.9521599  14.9812710
  53.8673067  75.4418182  14.7137892  58.0166769  24.3416047  18.6874771
  58.6322737  24.3997622  17.9567981  58.5191870  23.9325905  19.3920493
  36.5739942  65.0596666   3.7816766  37.3880148  64.6311998   3.5170653
  35.9872603  64.9413586   3.0346960  78.5476065  28.6607981   5.6959820
  78.0615616  29.3536615   6.1431205  79.1881800  29.1263175   5.1582152
  14.7366679   6.5698791  54.4120216  14.1063607   7.2672915  54.2315769
  15.0497377   6.7532730  55.2977896  85.1906681  11.5321469  37.6749396
  86.0224152  11.6251600  38.1394720  84.8192787  12.4143445  37.6697469
  78.9003086  20.8864665  36.4701533  79.1067076  20.3062916  35.7373309
  78.2907629  20.3830767  37.0098567  10.2614152   6.5420759  54.2411709
   9.5516688   6.4317429  54.8738766  10.3489614   5.6834292  53.8272953
  86.9391727  28.2413721  15.2290106  87.6543427  28.3200860  15.8603263
  86.9938850  27.3382878  14.9164760  29.3041134  69.4066477  23.8588738
  29.6536517  69.8008585  23.0597162  28.5215211  69.9209118  24.0571404
  80.2691650  41.7429161  14.7716701  81.1332321  41.3432884  14.6721017
  80.4496384  42.6732159  14.9065661  13.2936168  20.3508925  47.2219467
  13.3514929  20.9774971  46.5006685  13.0680668  19.5213246  46.8010235
  30.7882094  76.5288353  15.3136182  30.9565735  77.4585867  15.4667616
  30.2197385  76.2659645  16.0374761  50.5523443  78.6570930   1.2207700
  50.7893610  78.1541920   1.9999641  50.9577417  79.5135927   1.3560249
  51.7887878  77.6104975  23.6834145  50.9409714  77.9531336  23.9663315
  52.0714188  77.0463800  24.4032240  75.2572536  11.5201068   5.8088350
  74.4162703  11.2995434   6.2092453  75.8292627  10.7862091   6.0334015
  64.8324823  19.3950653  23.0389261  65.7673311  19.5529115  23.1707573
  64.5757246  20.0254035  22.3658895  46.5656090  64.6383905  16.5924275
  46.1249828  65.4764652  16.7328274  46.0092592  63.9980364  17.0358837
  59.5794392  17.6451778  18.1578290  58.8866329  17.0101666  17.9761517
  59.5213127  18.2751453  17.4395025  79.8461437  51.5884972  58.4275913
  80.7695961  51.4506340  58.2167435  79.4938612  52.0529175  57.6683521
  68.3775187  39.9353886  19.6350169  67.4828625  39.7360063  19.9108315
  68.2842970  40.6779099  19.0381849  66.0601950   2.5036311  17.1980715
  66.1026382   2.3904014  18.1476033  65.7242155   1.6687167  16.8720818
  47.4767017  10.1621532  42.0941162  47.1936464   9.8856723  41.2225246
  47.5725079  11.1120152  42.0247316  62.2605276  39.9414921  10.5976510
  61.6375160  40.5864239  10.9325421  62.5245762  39.4404006  11.3692844
  60.7208204  26.0213804  12.6411486  61.0151052  26.8633533  12.2937167
  60.7473898  26.1319852  13.5915661  78.8443613  15.8534551  30.7692432
  79.6732569  15.8494425  30.2905488  78.7520313  16.7538285  31.0807467
  71.4039040   7.4697667  27.3127413  71.8541145   8.0587327  26.7072153
  71.9425058   6.6785330  27.3222113  79.1589785  43.4383392  50.6957722
  79.6580458  43.4675169  49.8794937  78.8434458  44.3340397  50.8157396
  68.9233255  32.3466229  35.0235605  68.9696646  32.1087766  34.0975380
  69.6165180  32.9965568  35.1388907  54.6604490  26.0876226  54.7039557
  54.9127150  26.6348815  55.4476643  55.4665995  25.6356287  54.4548464
  68.8633871  79.9680710  31.5505958  68.7250662  80.2620316  30.6502128
  67.9908228  79.9821901  31.9438767  43.8123322  12.5228643   2.6232192
  43.8282681  11.9049108   3.3540481  44.6935320  12.4777639   2.2521669
  34.3221521  22.3027086  25.7901502  34.5525074  22.4201345  24.8685312
  33.6764455  22.9874039  25.9647560  62.6541281   0.0686405  22.3437643
  61.9131708   0.1461036  21.7427540  62.3985767   0.5866420  23.1070447
  66.3487387  12.6976895  33.4527135  66.3163757  12.9708409  32.5358844
  67.2726059  12.7712464  33.6920738  67.1143055  11.8884075  12.2397077
  67.1101189  12.0738339  11.3006496  67.5066185  12.6665294  12.6357460
  70.5429840  16.0115874  22.5079012  70.8347750  16.4958489  23.2802868
  71.3510942  15.6945527  22.1045637  67.0987558  48.6669159  23.8580632
  66.4674616  49.3278837  24.1423464  67.5883293  49.0908241  23.1531882
  72.6624775  34.3704820  22.8497767  72.3137426  33.8704133  23.5877132
  73.6100149  34.2452955  22.9020548  44.8947191  59.0878344  36.8243337
  44.9584723  58.1344700  36.8815160  45.7433558  59.3643188  36.4784956
  78.2683182  41.6701365  66.8533230  78.3160210  40.7147455  66.8877172
  78.3685589  41.8816948  65.9251881  46.0966635  17.5289249  26.1417317
  46.0253477  16.8962216  25.4270053  46.9448900  17.3415172  26.5437603
  17.5062263   7.1596414  41.5966702  17.7262342   6.2291199  41.5524244
  18.1405926   7.5267309  42.2123480  87.4580479  25.8537984  33.6038828
  87.7436924  25.0590467  34.0544462  87.8971386  25.8183026  32.7540731
  64.2261934  29.0764713  34.4767714  63.6507654  28.5599518  33.9125729
  64.1846895  28.6381674  35.3267121  45.6656504  11.3447464  63.5860682
  46.5458012  10.9688354  63.5700178  45.5151081  11.5628850  64.5058393
  64.8676157   7.4763381  20.5062175  64.9691534   6.5936697  20.8623338
  64.3640995   7.9463238  21.1709118  30.4618120  10.0143027  20.1121664
  31.3501310   9.9537873  19.7608006  30.5715132   9.9194962  21.0583234
  48.9973307  36.1155939  11.8294775  49.0683413  36.9023895  11.2889767
  48.7286758  36.4391494  12.6893413  61.0111284  16.1091423  12.3795152
  61.6470480  16.4073277  13.0298436  60.2628803  16.6958475  12.4896395
  31.6138220   3.0462101  22.0357871  32.3589587   3.5230911  21.6702938
  30.8635688   3.3430108  21.5207481  85.0048256  35.4890537  22.0771861
  85.5116177  35.2639604  21.2969780  84.1097927  35.6017661  21.7571282
  13.0157650  11.4478862   2.5446293  13.6302745  11.8971848   3.1249222
  13.0000710  10.5458736   2.8645647  18.2601714  81.7085171  25.8433819
  18.1172764  81.6266346  26.7863083  17.4790657  81.3212681  25.4482412
  32.5354290  80.8582020  56.5440369  33.3891153  80.4355717  56.4500332
  32.7299237  81.7953968  56.5356493  61.2689781  68.4785986  30.6260562
  61.7410946  67.7269220  30.2678442  61.4949751  69.2033625  30.0430679
  14.2402291  34.2367864  37.8565955  14.6492386  34.8231316  38.4931016
  14.9631202  33.9438105  37.3017764  69.3603230  14.1807032  46.2897825
  70.0733280  14.2805469  46.9205618  69.4776201  13.3002174  45.9331036
  77.0160246  11.9987333   2.1906815  77.2768164  12.2955000   1.3188154
  76.5085030  12.7266324   2.5495905  24.4835162  71.1546612  69.7957945
  24.9118137  72.0081139  69.8622417  23.7760997  71.2901258  69.1653681
  73.5821295  23.5617518  26.9281626  74.1053247  23.0103421  27.5099230
  74.0619993  24.3889308  26.8865466  13.6339271  41.6924334  12.3808146
  14.2894030  42.2774124  12.0008361  13.3203733  42.1562004  13.1572425
  64.9211597  36.9094968  18.9613593  64.6147156  36.0809302  19.3298733
  64.1223764  37.3586845  18.6849475   5.3460145  46.7735100  43.2558250
   5.5586970  47.6515532  42.9395390   4.4478318  46.6236877  42.9607821
  73.6617565  44.4132471  12.4247169  73.1939793  43.5927343  12.2692204
  73.0639076  44.9313831  12.9635477  53.9660549  75.9055948   4.9710998
  53.8358355  74.9756098   4.7856140  54.8326826  75.9501934   5.3750771
  75.1194000  59.0660429  59.7824669  74.9460268  59.9741936  60.0303221
  76.0738659  58.9939976  59.7891092  22.4297905  73.4377813  42.5983715
  22.3659730  72.5068903  42.8119135  21.6767931  73.6057091  42.0317793
  59.4640064  29.4406009   2.1428846  58.7891388  28.7683868   2.0484702
  60.1224852  29.0407825   2.7110291  85.2232552  26.3528204   9.8386025
  85.8599091  25.6427717   9.9206859  84.3759537  25.9102559   9.7890157
  86.6380787  29.7755933   3.7984934  86.7017365  29.0332413   3.1975842
  87.5199127  30.1475644   3.8139004  77.8931189  61.0509586  28.8734722
  78.8277674  61.2569284  28.8891554  77.6491785  61.1151457  27.9501081
  49.9466228  22.7231693   5.7207185  49.8946714  22.3476028   6.5996283
  49.3162441  23.4434199   5.7303834  21.4932871  79.9566031  11.1864996
  22.1235347  80.5236149  11.6309214  21.7648649  79.0685511  11.4185321
   5.4995805  31.4044714   5.8324617   6.0741663  32.0204735   5.3779018
   5.8866352  30.5457091   5.6623143  70.9403276  81.1959839  25.8953357
  71.1356735  81.0118771  26.8141270  71.7684603  81.5106106  25.5327845
  69.2968369  33.9515352  20.0108314  69.5309830  34.8120713  20.3585100
  68.3833027  34.0430808  19.7400713   1.0627732  -0.0159080   9.1115659
   1.8308371  -0.3212686   8.6287981   0.8863375   0.8547263   8.7550575
  77.7981329  45.4682732  38.8019514  76.8693542  45.3319597  38.6148071
  78.0984640  44.6280622  39.1484785  13.2323527  33.7873530  43.1371260
  12.5245905  33.2465625  42.7866268  13.5180938  34.3188834  42.3941183
   3.4941643  52.9418850  22.1414995   3.1436893  53.8326120  22.1381760
   2.7205592  52.3799419  22.0969629   5.5623335  45.6917620  12.9828882
   5.0107038  46.4239597  12.7075279   5.0129467  44.9178886  12.8582883
  21.0837746  31.7744136   5.1156652  20.8087420  31.2985897   5.8993608
  21.1218357  32.6899576   5.3923613  15.3165650  79.8735809  54.3450212
  14.6199048  80.5018044  54.1546631  14.8846924  79.0199566  54.3127775
  55.0063658  74.2837238  32.3328137  55.7880068  73.9135885  32.7430177
  54.2780066  73.8096714  32.7340603  33.4857392  79.9515009  66.6124010
  33.3806324  79.6081018  67.4996758  33.5178995  79.1729307  66.0564947
  86.3687420  17.8731906  30.1729178  86.9943523  17.7408195  29.4606519
  86.8598080  18.3584893  30.8359218  66.6502190  22.5237942  11.7715430
  66.2916183  22.7143478  10.9047520  65.9255362  22.1168661  12.2463870
  40.6481171  42.8029394  65.4500866  41.2408781  43.3295965  65.9862757
  41.1719131  42.5530577  64.6888828   4.6112677  22.4836326  12.5390160
   4.1780338  22.0979023  13.3004308   4.2233005  23.3549786  12.4585915
  69.3821192  41.6187906  11.6107392  70.1965237  42.0521784  11.3554883
  69.5329380  41.3379669  12.5133038  12.9910052  81.6321278  28.3663082
  13.3926618  82.0059490  29.1506314  12.1260476  82.0397758  28.3226633
  43.8788700  12.7155197  62.0308590  44.4514704  12.1431804  62.5415325
  44.1118431  12.5363529  61.1198950  62.5439548  18.2207620  52.6127386
  61.8317223  17.7778399  52.1514606  63.3190823  18.0486906  52.0781374
  86.7204380  54.6780729  28.5215855  87.1834087  53.8946056  28.2248235
  85.8977032  54.6698046  28.0324316  18.9626431   1.9919574  43.5355854
  19.4733834   1.1827916  43.5606146  18.1908107   1.7719764  43.0139399
  79.3015862  31.4293838  55.3025436  79.6592045  31.8143344  56.1026382
  79.0647840  30.5360222  55.5516720  61.4599276  36.6383600  34.8465896
  61.7480564  37.0547366  34.0342832  62.2271538  36.6715574  35.4179811
  10.9892178  71.9003248  70.3140020  10.2141106  72.1983671  70.7900429
  11.6133749  72.6212358  70.3973293  52.7061319  66.9926548  17.4879646
  52.2497034  66.7164135  18.2826948  52.7544880  66.2009907  16.9520879
  21.4995694  47.9330111  59.9704599  21.2370801  47.7761793  60.8775091
  22.1177888  48.6619186  60.0226402  69.6874142  41.5791512   7.0989525
  70.5955076  41.3079357   6.9646621  69.2512608  40.7968855   7.4366868
  77.8549719  29.8249173  21.9544411  78.6125660  30.3702688  22.1662879
  78.0168438  29.0010834  22.4141479  27.9118347  37.3412728  55.3804827
  28.6158395  36.9451356  55.8939838  28.3624601  37.8119946  54.6793461
   4.9311164  34.2570066  42.4721766   5.6663370  33.6755753  42.2782230
   4.9822894  34.4007969  43.4171343  68.8580608  47.8778458   3.2285628
  69.5457268  47.2444344   3.0232862  69.0162563  48.1154394   4.1422126
  15.5008614  74.4392490  69.3538523  15.7502091  73.6857605  69.8889303
  14.5512593  74.5021486  69.4564772  73.9475298  45.1312828  15.2983785
  73.1465769  45.6109238  15.5096877  74.4792700  45.7576180  14.8072660
  53.0547428  74.2291164  57.4411106  53.0185652  73.2951832  57.2344828
  52.2038031  74.5688391  57.1641302  26.4804316  12.7933788  23.6328912
  26.4572644  12.9132223  24.5822763  27.3977160  12.6014233  23.4380221
  72.2784185  47.5082970   5.4634345  72.4711466  47.8345108   6.3424534
  72.3660517  48.2760239   4.8984975  81.6478157  26.2232184  40.3973341
  81.3249302  25.6387210  41.0831499  82.5739574  26.3473701  40.6048822
  68.7028027  51.8898392  28.5901523  67.8363991  52.1541071  28.8995767
  68.5770321  51.6980982  27.6608253  32.9962373  69.9079275  51.6403008
  33.2619691  69.6052074  50.7719803  32.5576758  70.7432985  51.4788818
  47.2101688  66.1961508   4.0264699  46.9091368  66.8079996   4.6982193
  46.6907501  65.4055166   4.1725445  74.2677784  12.0732880  25.0801468
  74.6048021  11.8078673  24.2244601  74.8365355  12.7950120  25.3482175
  50.7369804   5.4634583  68.3442783  51.0132265   5.3577161  69.2546272
  51.5222454   5.7680881  67.8895378  54.6058178  29.0324044  46.4424562
  55.0233221  29.2437124  45.6074286  54.7044420  29.8267627  46.9673395
  19.3458128  33.4614158  16.1427903  18.5762537  33.3869791  15.5784583
  19.6986842  32.5726390  16.1850739  75.6664419  12.1866369  66.5994406
  75.3210115  12.8580618  67.1877432  76.5379333  11.9916499  66.9439888
  65.3890657  54.6627426  40.0398588  64.9199200  55.4944372  39.9734473
  66.0732317  54.7197485  39.3728495  22.7301121   4.7822618  32.2802687
  23.2147193   4.2583463  31.6423845  22.9432654   5.6884128  32.0573616
  81.3168430  35.2062321   9.9009585  81.6260719  34.4969463   9.3374670
  81.3682652  34.8479080  10.7870686  73.0263901  22.7191448  32.7087379
  72.0807362  22.5947213  32.7893233  73.1581545  23.6557102  32.8560972
  57.6838827  32.5178599   7.6973021  58.0305576  32.9265404   6.9041878
  58.3756495  31.9200516   7.9806983  49.5236254   8.3471608  59.2614698
  49.2856693   8.4450018  58.3394957  49.2382288   7.4625170  59.4899130
  81.0460567  36.7075205  17.5127804  81.9049549  37.1299911  17.5062943
  80.5392170  37.1852088  16.8561578  71.6620398  37.7794361  28.7458372
  72.1530581  38.5878301  28.5987616  72.2879457  37.0808959  28.5547495
  25.8416724  14.0380371  70.8352089  26.6529799  13.5853088  70.6048822
  25.8769965  14.1230202  71.7879725  85.5323696   9.7191226  28.8089800
  86.4551353   9.4705462  28.8633180  85.5094433  10.4120171  28.1489778
  71.2698364  32.6966119  37.3648095  70.8164406  32.7073979  38.2077503
  71.0555506  33.5403419  36.9667768   2.9145563  55.5973816  29.7502351
   3.0964413  55.3280640  28.8498926   3.7157798  55.3867722  30.2297306
  74.6957874  31.3980293  22.3742867  74.8743773  31.9198489  23.1566167
  75.1744461  30.5814219  22.5166559  86.5320015  23.5773087  13.1545460
  87.4254036  23.5779238  12.8109503  86.4948177  22.8086209  13.7237287
  81.1349010  33.7904739  15.8949542  80.6043148  33.0067182  16.0379136
  81.7297173  33.5506988  15.1843667  62.2959518  18.0601394  23.2275891
  62.7597427  17.7816701  24.0172648  62.9867935  18.3630872  22.6383567
   5.0801331  18.5145414   6.7463499   5.0753963  19.0855777   5.9781533
   5.3703797  17.6658463   6.4121258  12.1326840   3.2906976  22.8076577
  12.2327852   3.0243874  21.8937159  12.7851593   2.7740586  23.2805133
   0.8875871  31.3716578  11.1824119   1.7237200  30.9370160  11.3503385
   1.0680813  32.3009872  11.3238347  50.6472778  34.8043609   5.1451075
  50.8552837  33.9811087   5.5869460  49.7742462  34.6652794   4.7780886
  15.3121269  39.7713733  65.5783129  15.5771387  40.1132965  64.7244453
  15.1927733  40.5503035  66.1216831  83.8807774  68.2094240  12.0885229
  83.8294792  69.0967989  11.7333210  84.6545506  68.2213068  12.6518822
   9.7979349   4.1882685  23.4971881  10.7046115   3.9768165  23.2747960
   9.3264145   4.1241834  22.6666498   2.7112240  29.5261431  22.5109911
   2.5539732  29.6726751  21.5782356   2.3266928  30.2896762  22.9415536
  12.0273149  77.4162054  69.3122673  11.9308007  78.1055117  68.6551714
  11.2205660  76.9055891  69.2440176  26.5452433  18.4828818  17.5309193
  26.7850518  17.8753436  18.2306492  27.2508550  18.3999610  16.8894601
  68.7797308  80.2392769  42.8236675  68.1684923  80.3160954  42.0910597
  68.2719803  79.8158073  43.5158348   1.3126257  19.7090852  26.7904830
   0.9262123  20.1974010  26.0635281   1.3119102  20.3271413  27.5213981
  34.2768192  18.2245958  18.4730685  33.8560772  17.6396704  19.1032028
  35.2007246  18.2215559  18.7233114  20.1719141  37.8439069   2.0455152
  20.9864640  37.7937889   1.5452889  20.3423023  37.3272061   2.8330550
  26.7560863  64.6942854  60.1713562  26.3805866  63.8166571  60.2421188
  27.2480440  64.8105621  60.9841824  76.3102102  35.1580691  22.2821546
  76.8544674  34.5874476  21.7395616  75.7819510  35.6521463  21.6552067
  74.9091148  33.3364892  24.2705703  75.6937504  33.7009287  23.8609886
  74.5359802  34.0663195  24.7648883  52.8447008  47.5642252  15.1041222
  53.1935596  47.2560549  15.9405196  51.9313002  47.7811146  15.2909040
   9.5934439  50.2973223  70.7282782   9.7092885  49.3982983  70.4207563
   8.6584747  50.3657150  70.9216356  83.6817074  54.7347498  44.8180246
  83.7232208  55.5648375  44.3431997  82.8215313  54.3763828  44.5991468
  82.2412872  33.3724213   8.2393366  82.5109100  33.2110238   7.3351872
  82.7684402  32.7651238   8.7585068  73.0709600  76.2865734   0.8765693
  73.9905024  76.5335608   0.7781982  72.9908037  75.4642773   0.3932109
  78.5492563  54.7161722  53.1754160  77.9460669  55.2407265  53.7019491
  78.9946175  55.3526402  52.6161337  53.0981445   7.4956787  15.3173959
  52.2675943   7.7653104  14.9253309  52.8452730   6.9754511  16.0800564
  75.5249023  27.0693398  15.0932586  74.9302769  27.2805524  15.8130085
  75.0865269  26.3621020  14.6201050  25.0413632  31.2876773  18.5828626
  24.3316746  31.6585326  19.1073060  24.6271658  31.0499597  17.7533078
  68.0837393  43.5804701  26.2190580  67.6632309  44.4202232  26.0340643
  68.3368540  43.2447720  25.3591347  80.8653355  80.9156799  67.5553989
  81.7113781  81.2758350  67.8213596  81.0365677  79.9854708  67.4083519
  56.4717531  79.7944021  15.1007462  57.1829844  79.4417048  14.5659709
  56.0555792  79.0227365  15.4848850  12.2843957  58.8349676  25.9193563
  11.4050651  58.5799932  26.1986375  12.2211897  58.9090967  24.9671268
  72.7282619  21.8302798  16.7774403  71.7808914  21.7256117  16.8655443
  73.0446100  20.9583378  16.5410721  87.0845795   0.0209780  54.5953465
  86.2150764   0.1213390  54.9828148  87.2675705   0.8706022  54.1942453
   7.2372150  22.5257874  41.7086554   7.9500461  23.0260324  42.1059704
   7.0127970  21.8660688  42.3648834  70.9890366  46.1196470  36.4652538
  71.7301321  45.5145025  36.4936972  70.9106541  46.4446640  37.3621678
   6.0100591  63.4549713   2.2649758   5.1620132  63.2296753   2.6474541
   5.7961172  64.0282536   1.5288967  47.6598215  30.2058077  11.3050818
  46.9256163  30.6957483  11.6753960  48.3774519  30.8383727  11.2718868
  78.0932188  69.0270662   5.8476669  78.0827093  68.9007235   6.7964339
  77.2162819  68.7707281   5.5621803  35.0953770  79.8243570  45.0644588
  35.4456544  78.9350033  45.0135946  34.5628381  79.8269081  45.8598375
  13.0981445  10.7186937  30.6349635  13.4086668   9.8177850  30.5445647
  13.8943899  11.2495816  30.6153965   1.2182835   2.7185595  62.6229858
   0.3427088   2.3637657  62.7770090   1.2268204   2.9393640  61.6916418
  79.0733528  73.1651402  35.3223562  79.3427944  74.0287304  35.6351566
  79.3158007  73.1594133  34.3963885  70.2025080  46.4192200  29.7102404
  69.6612310  47.1780062  29.9281788  71.0503435  46.6061020  30.1133275
  20.6208372  28.5352516  20.0979519  19.6993232  28.5929322  19.8455286
  20.6038570  28.1822300  20.9875131  37.6376390   3.4163442  17.2550738
  37.4702835   3.7443069  16.3715219  38.0028176   2.5417951  17.1207619
  82.6299572  53.4134150  10.1087844  82.7498722  53.1619644   9.1930205
  83.5067844  53.6541796  10.4078472   9.0797424  11.4357412  30.8439994
   8.6181474  12.2739971  30.8660984   8.5823655  10.9047568  30.2219820
  57.4504232  25.5603051  41.5363646  56.9624615  24.7570729  41.3548470
  57.3884630  25.6689119  42.4853611   7.6498652  19.3999791  14.3533611
   6.9614911  18.8339937  14.7026920   8.0253148  18.9007533  13.6280727
  31.2669015  63.8319778  21.5788221  32.0225716  64.0265989  22.1331835
  31.4537287  62.9668427  21.2143183  68.2664347   3.1589004  19.4048440
  68.8031387   3.7216702  19.9629390  67.6446533   3.7564504  18.9894474
  83.4315968  45.5894279  35.9873724  84.1637135  46.1788511  36.1685395
  82.7369690  46.1628294  35.6634450  28.0072856  62.7688456   9.6684605
  28.3742857  63.1943798  10.4433572  28.7394547  62.2779274   9.2954236
  13.5772336  17.3088753  13.5526192  14.4173336  17.6883352  13.8104451
  12.9945469  17.4943721  14.2890275  47.9482222  67.8603315  62.5813532
  47.9643011  67.5692463  63.4930801  47.5641203  67.1260643  62.1022415
  71.7745972  80.5173397  28.5115218  71.7327023  80.9314251  29.3735027
  72.5084305  79.9060297  28.5748792  62.3425007  34.2002082  24.3125367
  61.4116764  34.1574836  24.0935040  62.7912569  33.9974499  23.4917212
  69.0742683  39.2375302  66.0409164  69.5776463  40.0501108  66.0914850
  68.3561707  39.3616128  66.6615391   7.7263188  73.0699492  55.3917313
   7.6275456  73.9859390  55.1320553   7.0234156  72.6129389  54.9298906
  53.8990450  19.2507613  43.7973118  53.6184216  18.8924348  44.6393824
  54.8544836  19.2704809  43.8518429  65.4673052  36.9225144  28.9397502
  66.0554075  36.9079113  28.1846666  66.0336113  37.1397543  29.6802473
  75.2500105  51.9259501  16.7938340  74.9297142  52.8200960  16.6749012
  76.0868073  52.0295668  17.2468972  57.4735689  11.0630774  23.7175632
  57.6940680  11.5998673  24.4787931  58.3114433  10.7015038  23.4286618
  77.9278564  25.0122070  12.6663554  77.2597313  24.8736596  11.9950521
  78.6897039  24.5268059  12.3498082  56.7346525   3.7941790  23.9343643
  57.6372862   3.6409584  23.6550593  56.8151999   4.1568789  24.8165178
  58.1151676  15.3679609  42.6597261  58.3749533  14.7110748  43.3056688
  57.1966696  15.5495000  42.8588200  50.8535862  79.6336842  21.0013103
  50.8381939  79.9174452  21.9153547  51.6671419  79.1361666  20.9186435
  68.4195852  23.4764981  32.8031874  68.2201242  22.6070166  32.4561310
  68.3933640  23.3667827  33.7537169  83.4060287  71.6983223  22.0814490
  83.3208847  70.8299732  21.6878033  82.5044060  71.9837332  22.2292614
  64.1863966  21.5439034  25.2906251  65.0004244  21.0479593  25.3779840
  64.4474411  22.3592305  24.8624587  26.3914132  48.3362865   5.3530693
  26.4642668  48.7683105   4.5020214  27.2956991  48.1485081   5.6045401
  11.6467631  22.1778846   2.3766638  12.3485887  22.7600956   2.0856288
  11.4769304  21.6122723   1.6233574   2.0683689  46.4498520  23.3963060
   1.2885171  45.9461975  23.6295319   2.7862382  45.8191109  23.4515858
  32.8071332  15.5100667  60.3689337  32.6469970  16.4089918  60.0816727
  33.7106347  15.5169702  60.6849623  79.0031910  24.9682903  57.9051352
  79.5844984  24.5784521  57.2521877  79.5550442  25.0836277  58.6786938
  61.1129475  30.3171349  64.3935680  62.0564747  30.2153826  64.5186138
  61.0244083  31.1220551  63.8831806  30.7566643  19.1075635  62.3337984
  30.0581813  18.4825838  62.5281048  31.1570787  19.2910945  63.1836319
   9.7505695  26.5051484  15.2955914   8.9068097  26.8530154  15.5841899
  10.3461909  27.2530794  15.3410494  47.6706123   5.5231571  68.9374208
  48.2417917   6.2500733  69.1855669  48.2576132   4.8848864  68.5321140
   3.1688038  29.3544412  11.2545037   2.7150112  28.5552478  10.9869325
   2.8383860  29.5342350  12.1346915   5.0875163  52.9846382  54.8219442
   5.6906968  53.1571341  55.5448914   4.2179656  53.1237125  55.1971436
  23.3761907  41.4029646  26.2748694  23.3023357  40.4862404  26.5401864
  22.5797486  41.5714884  25.7713675   7.6921695  32.8655791   5.2734506
   8.5166854  32.4321032   5.0532162   7.9033309  33.7991786   5.2674228
  74.0217113  13.1036484  39.1644835  74.5162630  12.2845542  39.1373706
  73.2733154  12.9129601  39.7299695   9.8585910  58.2910919  26.7973328
   9.0944672  58.1752443  27.3620701   9.6930188  59.1132736  26.3359976
  81.7050362  45.6744528  23.5271287  82.4638557  46.2124348  23.7529755
  82.0800114  44.8570633  23.1992435  70.2305031   8.3086449  21.3292527
  69.9344873   7.4889028  21.7250156  70.0278091   8.2122713  20.3987384
  62.9122305  36.4530826  46.5730858  63.5218334  36.0634398  47.1998167
  62.6087904  37.2540545  47.0003986  79.5728874  54.5540953  43.6270237
  79.5994139  53.9806032  44.3929434  79.1261768  54.0374899  42.9563522
  55.9338236  39.1144848  68.0162811  55.0162172  39.3494320  68.1542158
  56.4008570  39.9497247  68.0384159  69.3991137  38.2188535  45.1461840
  70.2344656  38.6289740  44.9220848  69.5567179  37.8016162  45.9931231
  86.7094135  68.6876059  16.2190628  86.2170696  69.5052528  16.1464620
  87.5332165  68.9402771  16.6358817   8.5307115  54.7069550  18.6925673
   9.2940289  54.5921707  18.1265247   8.8333273  55.2921009  19.3870175
  62.2249603  44.4731712   6.6691500  62.3366833  43.7334442   6.0720277
  62.3607540  44.1004181   7.5402695   9.4914186  44.5092678  35.7854772
   9.2324483  43.9113808  36.4866900   9.0796328  45.3419304  36.0164189
  40.7870770  64.0109110  18.1355786  40.0200796  64.2883110  17.6345861
  40.5155754  63.1957340  18.5574853  27.7088857  38.2189822  33.7336040
  27.3872471  38.2921934  34.6321702  27.3840165  37.3708701  33.4312797
  19.8033297  34.7353005  28.7303138  20.4151130  34.2137265  29.2498422
  19.7392297  34.2692947  27.8966689  52.8888035  44.0275145   5.4636163
  52.4119282  43.6170197   6.1849439  52.3186398  44.7398281   5.1742101
  62.9893589  33.0537105  21.9788384  62.8177261  33.8557887  21.4854383
  63.6950588  32.6224422  21.4969397  21.7485881  51.0837936  13.8315105
  22.1342707  51.8804455  14.1959703  21.0891962  50.8213902  14.4738305
  11.9423711  59.3791533  35.5908108  12.0166755  59.0284729  34.7032666
  12.0369756  60.3255558  35.4831028   7.0145607  64.8589849  63.3444834
   7.7372998  64.4879913  63.8506889   6.2706947  64.8496723  63.9468193
   9.0218669  13.0076218  66.3010073   9.8452306  12.8366148  65.8437729
   9.2857707  13.2352710  67.1925020  57.1307468  22.1398997  42.8086185
  57.4974203  21.6067743  43.5139990  56.3980150  21.6229630  42.4737883
   7.0610249  54.6448946   6.5059227   6.9624203  54.1294050   5.7054353
   7.5622475  55.4141331   6.2352186   6.8089175  69.1548967  45.7746983
   6.0153556  68.6395407  45.9192705   7.1915144  68.7871456  44.9780750
  32.8128886  24.6751595  66.4652491  32.6219082  25.4013133  65.8715677
  33.7568569  24.5399356  66.3823605  40.5528784  63.6389542   8.6737061
  40.6888533  62.7775240   9.0682667  40.7733297  64.2584801   9.3692768
  11.5946639  50.3518391  11.9103086  11.8457186  50.7386065  12.7491260
  11.3068938  51.0951996  11.3803697  24.5604205  46.2641096  24.6854854
  23.7139153  45.8625984  24.8815608  24.3521190  47.1768045  24.4859171
  86.2164593  27.7702594  60.9134102  85.5894184  28.2753015  61.4310932
  87.0358753  28.2597399  60.9855223  24.1542506  63.6222601  21.2752414
  23.4817338  64.2666340  21.0544729  24.5697522  63.9704132  22.0641541
  54.1580391  49.7210884  35.3088689  54.3620729  50.6557655  35.2775359
  54.6655273  49.3409872  34.5917845  79.3891335  41.7178965  34.2778969
  80.2374840  41.8764925  33.8639212  78.7495708  42.0526028  33.6492777
  43.2854748   4.3242350   1.4811806  43.4606171   5.1815659   1.8691756
  42.3724222   4.1425839   1.7038357  10.4575324  31.8867612   4.5816809
  10.6590426  31.7668986   5.5097210  11.1801100  32.4174428   4.2462876
  77.7739525  23.6476302  43.2857990  77.1238279  24.2859602  42.9923582
  77.8548479  23.0348706  42.5548983  69.3843508  25.6763506  31.8704319
  69.1395187  24.7875261  32.1278739  68.5760736  26.1818457  31.9564342
   8.4908938  69.1623259  58.0914545   8.7940669  69.7372103  57.3887253
   8.2561779  69.7575617  58.8033772  30.1619101  75.6730938   0.4976399
  30.7609892  76.3781309   0.2521664  29.4180799  76.1204529   0.9011516
  23.1855392  48.0752039  27.4468493  22.7224684  48.4994602  26.7244887
  23.3968806  48.7893391  28.0481672  76.4288473   9.2002213   6.3254941
  76.8521118   8.4601933   6.7607397  76.9634676   9.3581486   5.5473715
  25.7410502  70.9883308  43.9747095  25.7716680  71.9329500  43.8230991
  24.8079491  70.7874441  44.0467978  67.5333261   6.7387974  12.0071065
  67.4898338   7.3577559  11.2782514  67.8670788   7.2554761  12.7405119
  77.7945566  64.3475866  53.9789772  77.6117659  64.3862104  54.9177647
  78.5550690  64.9164152  53.8594437  67.8342438  43.9115047  67.8445244
  68.4418535  43.2121849  68.0853462  67.3151541  44.0604734  68.6348295
  71.9056988  30.5676031  10.5265617  72.8153563  30.8639216  10.4956877
  71.7697239  30.1240873   9.6892822  31.2940764   4.0093768  43.1818008
  30.3643179   4.2331120  43.2233095  31.6841173   4.7039926  42.6511335
  82.1644211  32.2591853  49.3799400  81.5869427  32.1009278  50.1267385
  81.7116642  32.9265118  48.8642645  49.2933702  81.6085815  18.4277654
  49.3719006  81.5417385  17.4761367  48.9689398  80.7508564  18.7021542
  18.8525736  49.6570206  44.5664120  19.6123612  50.0886202  44.9571466
  19.0723932  48.7255192  44.5811510  83.1439877  13.4600163  38.0480790
  83.3132267  14.3337393  37.6956582  82.4916458  13.0852640  37.4562645
  35.5331659  44.4972944  68.4221029  34.8223662  44.5084715  69.0630960
  35.5854273  43.5846329  68.1383038  32.7194643  50.1000357  33.2499981
  32.7641034  50.8079481  33.8927221  33.1737447  49.3683195  33.6676764
  47.7674770  54.2250729  69.8177576  48.2958651  54.8257637  69.2922020
  48.3357811  53.9833641  70.5490828  48.9831448  67.1205950  34.5915031
  48.5425186  67.3813152  33.7827349  49.5278549  66.3754416  34.3379927
  67.0621824   2.8100324   6.6978943  66.6479540   3.5595930   6.2703347
  67.9039574   2.7151331   6.2522054  53.4479237  42.8973150  16.0183978
  54.1894197  42.9417610  16.6220903  52.7955818  43.4870148  16.3964689
  17.3457789  42.0102453  40.5213356  16.9753540  42.3821402  41.3217783
  18.1887341  42.4522018  40.4196787  31.9224548  15.9813988  24.9465990
  31.1387730  15.5277979  25.2569509  32.6504779  15.4545867  25.2762747
  63.9175320  47.7592516  65.3927040  64.4574976  47.8922939  66.1717892
  64.5075846  47.9342461  64.6596003  25.4915023  82.5716114   5.1128429
  24.9216461  82.0319271   4.5649081  24.9379897  82.8341484   5.8483207
  38.1795502  69.8701954  68.6233234  38.4450674  70.6566668  68.1466770
  37.9897976  70.1795578  69.5090580  11.5514719  76.7464638  63.0445862
  11.2206817  77.4399185  62.4736834  11.5903270  77.1487379  63.9122820
  24.2847085  63.8820505  30.7193112  23.6897397  63.2466698  30.3211451
  25.0901961  63.3896399  30.8772612  12.2645450  63.8023233  10.2257442
  11.3875520  63.6368370   9.8797244  12.4079216  63.1004381  10.8605933
  86.4719009  81.0259342  56.4820004  85.7447815  81.3122845  55.9292555
  87.0344067  80.5206585  55.8950472  34.2790461  27.1552348   0.5892449
  34.7008204  27.4564075  -0.2155114  33.4772778  26.7245555   0.2927403
   6.7354941  67.6601648  30.8694482   6.1686271  67.3197317  30.1773477
   6.2811065  68.4394550  31.1895514  18.6056268  61.0225916  11.0636139
  18.5342443  61.9020319  11.4347267  19.1097891  61.1424398  10.2588212
   8.0555815  26.1830187  18.3259702   9.0107208  26.2386179  18.2968140
   7.8766245  25.4273248  18.8855529  70.8638096   4.5217320  13.7163329
  70.9289455   3.6331630  14.0662384  71.7080212   4.9229014  13.9227211
  60.8272505  76.8762827  25.8456659  61.3192606  76.2194872  26.3383913
  61.2961864  76.9532824  25.0147605  81.1667347  27.5626588  50.0211811
  80.6674099  27.8624701  49.2615604  80.9302425  26.6398144  50.1142168
  52.7803612  79.4871140   9.3103254  52.1175718  78.8008881   9.3880385
  52.7895927  79.7067833   8.3787185  87.1226501  34.0962005  61.6665268
  87.3671818  34.3319964  60.7716322  87.3566437  33.1711912  61.7429209
   0.0510262  35.8369112  59.3496561  -0.1640601  36.7615962  59.2274666
   0.9322940  35.7460737  58.9872360  19.1197228  67.7641582   8.0622149
  19.3336666  68.4491491   8.6956531  19.2886567  66.9454765   8.5285383
  22.2114611  67.9111481  52.7459431  22.6568437  67.1889925  52.3028183
  22.7381730  68.6823177  52.5359440  72.8548527  14.0272665  15.6170475
  73.4812641  13.9840984  14.8945653  72.0969296  14.4823396  15.2500439
  18.2915902  42.6401329  63.9728832  18.6218333  42.0911980  64.6841097
  17.6144624  42.1084118  63.5545540  45.6061411  12.2226954  11.8371594
  44.8226976  11.7803574  12.1639431  45.5570841  12.1253240  10.8861887
   0.3645305   5.7474959  38.6404204   0.0782934   5.0801855  39.2641187
   1.3098055   5.8125556  38.7762690  26.2298775  79.3425035  38.2865739
  27.1547914  79.4758892  38.0792761  26.2349916  78.9323711  39.1514444
  16.7492390  71.9018459  70.3133297  17.4201274  71.3422918  69.9221230
  17.2303832  72.6653004  70.6324959  75.1167631  26.6739178  40.1114750
  75.0364161  26.0879374  39.3588758  75.9923601  27.0516443  40.0285196
  61.8837643  75.9857035  65.8188629  61.1532307  76.4369678  66.2418318
  61.4921570  75.1986313  65.4401922  10.6505251  28.5914850  18.8697577
  11.1024749  28.3425832  18.0635190  10.0506568  29.2880011  18.6028218
  30.0005078  53.8964748  31.3648105  29.8589611  53.2149220  32.0218349
  30.8797455  54.2272949  31.5484619  80.3643322   8.7201625   2.9657862
  79.8143911   8.0655289   2.5353757  79.7923470   9.1202420   3.6207694
   6.0098726  52.7349329  69.8431206   5.8764935  53.4091377  70.5093718
   5.1991081  52.2261906  69.8515224  30.6744933  82.6207256  23.8293552
  31.5236521  82.2935009  24.1261530  30.1677489  82.7354813  24.6332645
  37.7543092  35.0196719   0.5440051  38.4970546  35.1630616   1.1305206
  37.6527357  34.0683389   0.5143281  11.4726806  38.4427929  66.6174936
  10.8655548  37.7085352  66.7096663  12.3339105  38.0328345  66.5371847
   7.4522299  81.0835361  50.9095192   7.6407331  81.5545750  51.7211962
   8.2791442  81.0963821  50.4275656  14.2242336   7.0871526   1.3033020
  14.7750008   7.2303635   2.0729625  13.3328068   7.2458231   1.6138086
   5.5741334  44.3141890  49.3010092   4.8964542  44.9888229  49.2579746
   6.3301629  44.7582912  49.6849680  67.4849653  25.1358700  60.5669355
  66.8314648  25.8179092  60.7218409  68.1764460  25.3177381  61.2033367
  54.5586729  54.0028572  24.8778582  54.7997952  53.4745455  25.6387639
  53.8294315  53.5286474  24.4783974  60.4170418  24.1352749  50.9131765
  61.0213184  24.7907186  51.2617159  60.9844971  23.4612560  50.5391073
  68.4421682   6.0500294  17.7498543  68.6791611   6.0799223  16.8229389
  67.4849749   6.0512286  17.7524960  48.7197113  25.6395650  25.9009099
  48.1054544  26.2678194  26.2806630  48.3424807  24.7834468  26.1033607
  10.9419918  58.2414150  56.4009953  11.8394303  57.9244804  56.2990808
  10.5370331  58.0928755  55.5464935  85.3249741  54.5390415  46.8089962
  84.7131348  54.5223761  46.0730553  84.8905277  54.0298176  47.4932337
   9.3287987   5.5210197  11.5718508   9.9730098   4.9226752  11.1934233
   8.5501999   5.4111117  11.0260153  56.5413904  72.6453257   9.6091127
  57.2009802  72.2535038  10.1815128  56.1306953  73.3231735  10.1458478
  22.2198224  61.4795685  66.1761856  22.3954463  62.3911333  66.4094925
  21.6912317  61.5336800  65.3800106  12.6458383  13.9717305  40.7886553
  12.5194061  14.4888890  41.5841389  11.8992209  13.3729935  40.7710361
  16.9954205  45.6613016  68.4746361  16.8260205  45.9841728  67.5895977
  17.9210687  45.8522224  68.6261511   7.5274092   2.1404466   7.8404778
   7.6178432   1.1907004   7.9181683   7.7187812   2.3248386   6.9209087
  49.0806007  65.5627394  25.6204486  48.9433670  65.0257254  24.8400545
  50.0132656  65.7773304  25.6025457  36.1977696  68.6887789  10.3985167
  37.1228123  68.6952353  10.6444633  35.7285690  68.6525679  11.2320447
  40.1226568  78.7032366  13.0079937  39.4904709  78.6106348  12.2952521
  40.2895832  79.6443701  13.0593145  74.8999596  17.1115601  18.2143080
  75.4103041  16.6463089  18.8771212  74.0258455  16.7255604  18.2705140
  28.3629704  60.4740667  31.7776537  27.4268579  60.4196692  31.9699168
  28.7892532  60.1352978  32.5648952   1.0088237  32.6286745  30.6662774
   0.6980331  33.5324931  30.6137943   1.0577264  32.4463248  31.6046739
  86.3283348  70.5634308  39.0282035  87.2687626  70.5690765  38.8498950
  86.2230396  71.1500931  39.7771835  72.0708561  37.5690269   9.1853541
  71.4907217  38.1778884   9.6424818  72.8239441  38.1018043   8.9299399
  10.4263794  74.0798378  63.7988138  10.9284747  74.8947811  63.7982512
   9.8981839  74.1244888  64.5958376  13.4038055  50.1931620  35.7810044
  12.4469686  50.1772165  35.7600331  13.6204255  50.3677225  36.6968846
  78.6068392  39.2043304  67.2889996  78.6987829  38.7126040  66.4729166
  79.4898319  39.2231679  67.6580572  76.8034887  52.1402216  49.6131134
  76.4468718  52.5885344  50.3799725  76.0481596  52.0079613  49.0402126
  84.0265274  37.3330259  41.9412565  84.6072769  37.9345393  41.4752722
  83.1553364  37.7173662  41.8436193  42.3789024  51.8754578  32.9841399
  41.6456413  52.0981598  33.5576963  42.0377111  52.0025492  32.0988870
  84.8762417  29.3292570  45.9211779  85.3880024  29.8081398  46.5731001
  83.9650249  29.4989991  46.1601305  15.2566028   6.8096364  51.4016771
  15.6403828   7.6860720  51.3732958  15.6048405   6.4215553  52.2043943
  86.5490723  31.9973803  36.5421534  87.4265957  31.6151977  36.5533161
  85.9617424  31.2462354  36.4581609  32.1571779  13.2955265   8.4696990
  32.8538847  13.9500117   8.4199142  32.0917892  12.9472053   7.5805259
  42.6073599  71.2612867  56.1741114  42.1815681  70.5249357  56.6131020
  43.2783222  70.8568001  55.6241751  17.4985182  67.7770472  69.7909689
  18.1857157  67.5762987  70.4263353  16.6884673  67.4989033  70.2183819
  33.1829357  68.2928419  66.3025951  32.8494525  67.7243185  65.6084728
  33.2665133  67.7181101  67.0634699  79.0001726  44.8080873  55.9317207
  78.5534620  45.6361246  56.1078882  78.7092543  44.2250824  56.6329384
  21.0471535  63.5315037  51.8853140  20.8683419  62.8305483  51.2584782
  21.9094062  63.3191204  52.2425842  66.3742256  45.0524521  47.1961403
  66.7058420  45.0187349  48.0934286  65.6267643  45.6488371  47.2392893
  79.6367598   3.3954662  10.8672214  79.8504400   4.0352055  10.1880276
  79.8574066   3.8351524  11.6883326  56.9507551  18.2438934   9.8104864
  56.7215586  19.1545784   9.9958360  57.6384497  18.0364573  10.4431570
  66.6947985  33.8142729  19.1446257  66.6515446  33.8756728  18.1903768
  65.8846903  34.2240763  19.4479704  55.8306885  10.2803004   8.4784979
  55.9560585  11.1845279   8.1905955  55.8823299  10.3236091   9.4333220
  18.0916500  72.2101927   5.2879232  17.6384175  73.0267477   5.4978049
  17.4927974  71.5223360   5.5785358  32.5482774  44.0580702  62.9988337
  32.7967381  43.1383657  63.0918121  33.3580136  44.5423985  63.1600475
  56.0758352   2.5801453  33.7436676  55.6219101   3.1863281  33.1582403
  55.4170990   2.3368640  34.3941402  76.1304951  12.5375307   9.4346988
  76.3706779  13.0239844  10.2233100  75.8110094  13.2061779   8.8288331
   7.7993429  27.4072719  67.9569817   8.3939451  27.1184802  68.6492825
   6.9370216  27.1024084  68.2392788  44.8898458  54.1796684   6.1990345
  44.4163799  55.0111389   6.2257594  44.3014956  53.5552692   6.6235352
  51.3871050  65.4925442  19.5709300  50.7913256  66.0003710  20.1217413
  51.4080858  64.6257782  19.9765301   6.9533980  49.8090458  71.1038208
   6.2820143  49.9328899  70.4329014   6.7422307  48.9640665  71.5008688
   3.6588195  59.6404648  68.1200600   2.7032739  59.6784544  68.0785799
   3.9272606  60.5433846  68.2901001  16.3593686  60.1723814  64.7476006
  15.9174097  60.7297230  65.3881264  15.6840801  59.5592785  64.4572115
  19.8725176  37.4306870  34.3977642  19.1855776  36.9617009  33.9240575
  19.5840859  37.4201679  35.3104138  23.5995746  32.9217339  67.6005268
  23.3885860  33.4124827  66.8062449  22.9663277  32.2040653  67.6139641
  33.3229637  81.7250538   1.0723996  33.3851147  82.5239658   1.5959567
  33.1088948  81.0398197   1.7055362   8.1069082  44.8936987  61.4182520
   8.2285404  45.7680941  61.0482931   7.5842685  44.4279909  60.7654142
  50.1185369  79.4113493   4.5984390  50.7702827  78.9813423   5.1521093
  49.4662619  78.7326002   4.4250315  70.2303886  59.1340780  55.4836512
  70.8769703  59.8027086  55.7097006  70.5606365  58.3337975  55.8919668
  84.8412037  74.1168070  14.1294467  83.8900757  74.1304302  14.2361724
  85.1296711  74.9740982  14.4426250  86.7612362  71.5320826   5.1080120
  86.3594246  71.5667486   5.9760988  86.6323280  70.6282806   4.8203334
  56.8879271  61.5725613   5.0195092  57.7674675  61.8199062   4.7340968
  57.0314217  60.8814812   5.6660748  23.8226962  28.4915161  67.2529459
  23.1384039  27.8304410  67.1482849  24.1580677  28.3509827  68.1383896
  87.3384953  22.0573330  19.1338181  87.6646137  21.2644219  18.7081790
  88.0984688  22.4109435  19.5960104  16.1923587  27.7521014  32.0576167
  17.0709896  27.3848057  32.1542287  16.1131394  28.3764791  32.7788043
  38.8708591   0.1949163  44.7944832  38.6745644   0.1978953  45.7313347
  38.0609179  -0.1038603  44.3810129  72.6869822  14.5788991  21.5289760
  72.5298119  13.6601150  21.7466068  73.6404753  14.6616089  21.5133262
  71.4316511   8.6549264  -0.0842587  70.6560135   8.8500667  -0.6101279
  71.1133575   8.6475635   0.8184419  37.6281643  36.2011647  63.7985468
  37.5809360  36.3194704  62.8498602  37.8416395  35.2752566  63.9141178
  35.6503367  25.1885176  40.2584457  34.8048544  25.2150154  40.7064342
  35.7148457  24.2949891  39.9212861  37.6249766  12.8709519  21.1456633
  37.1237016  12.3284459  20.5368590  38.3807230  12.3322761  21.3799882
   5.8665878  73.9590454   6.8366772   6.3341159  74.7299147   7.1582514
   5.3246474  74.2892551   6.1200917  16.1699593  58.2415724  61.3137054
  16.2092459  57.2979307  61.1580515  15.7992733  58.6019707  60.5081367
  57.4565840   6.2223405  36.1097240  56.6548681   5.9439445  36.5524173
  57.9863930   5.4272777  36.0513425  69.4499159  33.2611632   7.1346420
  70.0816154  33.8917971   7.4803209  69.9567795  32.4590278   7.0085388
  56.2386847  38.8453698   8.8561642  55.4803658  38.8010335   8.2737410
  56.6590786  37.9900026   8.7675536   9.3884182  43.8131380  57.1307755
   8.6779511  44.2212105  56.6358566   9.9704397  43.4530354  56.4615870
  20.7598472  46.3860846  45.2951479  20.2558041  45.7115555  44.8399782
  21.1339498  45.9355021  46.0522890  35.9090734   0.3461198  44.3793249
  35.7862329  -0.5534794  44.0762329  35.0790596   0.7805098  44.1828251
  69.7346783   9.1447884   7.3085225  70.6578159   8.9585793   7.4799061
  69.3219757   8.2826620   7.2571027  31.8219018  26.3816619  63.6420631
  31.2907505  27.0192242  63.1649637  32.4209237  26.9133377  64.1662025
  80.7755375  59.2944336  64.1239929  80.5520248  58.3638525  64.1069078
  80.2719212  59.6483040  64.8570490  42.2486258  11.2789297   0.6455038
  42.5635386  10.7258916   1.3604935  41.5132809  11.7620695   1.0224374
   8.6098409  79.3819714  43.9736414   9.2940688  79.5694160  44.6162367
   7.8267437  79.2170620  44.4988012   2.1723664  35.0981236  66.0878658
   2.0889394  34.8263311  65.1738644   1.4022888  34.7276974  66.5191412
   5.3216088  66.3021088  23.5543084   5.9497368  65.9483337  24.1840172
   4.7519618  66.8673897  24.0760303   5.8869123  67.8956842  58.2356453
   5.7982749  67.5542355  57.3458242   6.7731357  68.2560635  58.2667255
  86.0007572  51.2391615  62.8143930  86.9317341  51.0167408  62.8079081
  85.9466457  52.0276976  63.3543062  82.2964382  66.8192625  68.3351898
  81.5935707  67.2863388  67.8834724  82.6515865  67.4593401  68.9519548
  51.4426184   6.7040402  46.3004971  51.9197273   7.1204138  45.5827045
  51.8874311   7.0078051  47.0917606  64.1506052  22.3608971  56.8616915
  63.7767410  21.9942617  56.0604191  63.6280251  21.9784975  57.5666094
  26.3785720  81.1403179  14.3010688  25.8440685  81.4892673  15.0143528
  25.8794379  81.3384438  13.5087013   4.5784906  64.5231915  35.2188826
   4.0004763  64.1397572  34.5592546   4.3780378  64.0420914  36.0217500
   7.9315758  45.1822853   8.8281661   8.0013603  45.9461880   8.2556158
   8.2192141  45.4979563   9.6848160  51.3774300  28.5231757  11.7661273
  51.0369015  28.8689661  12.5911725  50.9228086  27.6888251  11.6503024
  82.4412727  69.1563416  64.8495340  82.7279854  69.9098969  64.3336058
  81.5777016  68.9399242  64.4978905  34.8543715  34.1275859   3.7223297
  35.7182837  34.5184875   3.8530359  34.3587875  34.3753719   4.5028624
  68.5111284   3.2499507  16.0086119  67.6558590   3.1898302  16.4342070
  68.4225798   3.9792538  15.3950095  65.9676170  10.8195162  17.4340224
  65.3219843  10.1868880  17.7489388  65.4668999  11.4157557  16.8772352
  73.9706373  26.6650987  52.8863192  73.4033442  27.1704102  52.3040295
  74.5476103  26.1796618  52.2966719  11.4628744  69.6236944  58.6111164
  11.7999685  69.3366432  59.4597626  10.7032907  69.0630817  58.4530592
  10.0748348  70.8524895  53.4845114  11.0158622  70.8350134  53.6588526
   9.8330897  71.7749977  53.5668135  74.0163088  73.9907742  21.9982219
  73.1605291  74.3257666  22.2659039  74.6410847  74.6323395  22.3362684
  51.5848875  14.3829656  33.0399823  50.7112646  14.7024810  33.2656527
  51.5575171  14.2608631  32.0909953  27.8856444  21.8901658  16.5191877
  28.7333608  21.7211175  16.9303215  27.8717923  22.8370094  16.3794374
  87.1666145  33.9772844  66.8687630  86.9629288  34.2364001  65.9700966
  87.0832348  34.7849607  67.3756552   1.2523779  71.6681528  41.5138578
   1.1848019  70.7289886  41.3417244   1.4265457  72.0568466  40.6566429
  14.0907788  10.9238017  35.8344102  13.5220063  10.5671954  35.1520896
  13.8780105  11.8566990  35.8602047  60.8085966  48.2664394   0.7057086
  61.3555574  48.9981127   0.9915797  61.2455606  47.4898577   1.0553022
   0.7086602  66.3557911  45.9446526   1.1440882  67.0066643  45.3942013
  -0.1961910  66.6616917  46.0070896  33.1930327  56.9738960  23.7540555
  34.1271377  57.1236086  23.6082268  33.1514144  56.5243912  24.5981193
  82.9455566  40.4196644  70.6074810  83.1964779  40.0042152  71.4325094
  82.2211266  40.9996939  70.8420038  42.7560663  77.3003578   2.8260285
  43.6174679  77.6968622   2.9564375  42.6565409  77.2510624   1.8752936
   8.7379712  42.7679968  52.7568436   8.1637311  42.1247196  53.1723928
   8.9854681  43.3614874  53.4658861  22.3389578  41.6818094   1.6435722
  22.1693969  42.3958063   2.2581354  23.2498193  41.8064260   1.3770539
  17.5814307  24.2533207   6.9048774  17.4140096  23.3244586   6.7454451
  17.8996944  24.5867658   6.0659766  85.9687328  50.9673882  15.2731228
  86.3882351  51.6802740  14.7914088  86.6861153  50.3740501  15.4957104
  85.0969315  30.7242537  19.5466697  85.4783535  30.9752822  18.7054014
  84.1614914  30.6299853  19.3669415  81.9336414  52.2954750  60.8091402
  82.8470993  52.0752573  60.9917021  81.7243767  51.8080139  60.0123835
  85.1238155  10.1605630   3.7955517  84.5431137   9.4347525   4.0240631
  85.8864880   9.7409129   3.3974835  25.9850407  18.8419974   2.9499328
  25.5686045  18.9643097   3.8030750  26.4202952  19.6761775   2.7740705
  59.9164867  42.3948956   5.1588184  59.4357491  41.6435051   4.8116305
  60.7298946  42.0223522   5.4991305  25.8229613  64.2288208  10.8996570
  26.0642266  63.5919762  11.5723014  26.4024282  64.0311861  10.1638627
  24.6244431  63.5554409  62.4089813  25.0659704  63.6667347  63.2509422
  24.9207067  64.2983627  61.8831253  86.1207771  45.5227184  50.9201002
  86.4261436  44.7013235  50.5350065  85.4855633  45.2544308  51.5839911
  64.5673323  23.1509399  22.4738097  64.0500498  22.4262357  22.1224475
  65.0558519  23.4836340  21.7208862  79.2559147  74.2113209  40.3211260
  79.9922609  74.3537331  40.9158897  78.8846684  75.0832653  40.1865053
  82.0145130  10.9981382  54.4627237  82.0433521  10.7675433  55.3912830
  81.2505150  10.5316520  54.1237020  42.9698324  40.3001022  71.2879372
  42.2585869  40.4764748  70.6720972  43.1402779  39.3628025  71.1949253
   5.0366139  42.2066975   6.0386097   4.8667490  41.2685108   6.1233556
   5.9756458  42.2957563   6.2014568  28.3422422  19.2332685   8.3674461
  28.0125856  19.9532044   8.9052665  27.9067302  18.4552610   8.7156755
  17.3838878  48.8988543  48.0308151  17.0740557  48.0044413  47.8884792
  16.7826056  49.4441891  47.5235653  19.5406294  47.2933149  30.2371955
  18.6814344  47.6887989  30.0901961  19.8341084  47.0273161  29.3657923
  68.1112719  57.2136068  65.7665777  68.4817505  57.3151064  64.8898363
  68.7263107  56.6381550  66.2213421   7.7589267  21.7016530  61.5072298
   7.0766234  21.2464523  61.0137844   7.4229896  22.5913954  61.6155672
  85.8345222  35.3401995  48.7778378  85.3072643  36.1383557  48.8122416
  85.3592777  34.7154140  49.3255806  46.4999056  58.7168884   4.5125699
  47.0057011  57.9542160   4.7931674  47.1091032  59.2241144   3.9760697
  36.0323977  25.2681875  24.2047977  36.7809319  24.7973752  24.5712185
  35.8323407  25.9424186  24.8541212  67.3024940  32.4787045  16.6223991
  67.7998877  31.9213223  17.2208595  67.4585581  32.1002674  15.7571459
  68.3721495   9.7239834  16.7892349  67.4797869   9.8960650  17.0897412
  68.4016943  10.0891685  15.9049284  12.7474368  72.6190710  53.1346273
  12.5780702  73.0878353  52.3174334  13.6311030  72.8876448  53.3860922
  77.8706741  33.2636929  17.6420438  78.6684275  32.9003358  17.2576070
  78.1699562  34.0236688  18.1411433  33.2570291  66.7696762  37.7320552
  32.6528621  67.0151091  37.0313573  32.7988434  66.0803938  38.2128716
   1.8600915   2.4819170  67.9180002   2.6303327   1.9146866  67.8832197
   1.8432246   2.9155076  67.0648050  45.6538868  65.1216078  58.0967379
  45.2974033  65.8698368  58.5756016  44.8978376  64.7410822  57.6497269
  69.6239424  14.7000968   1.6733781  69.9636841  14.4047666   0.8286362
  70.3528452  14.5760775   2.2812855  40.7308483  12.2866142  53.6645889
  40.2053833  11.4899206  53.7380743  40.2656078  12.8219366  53.0217695
   6.1523026  61.7586470  42.3290300   6.1655051  62.1893454  43.1837559
   6.9668138  62.0349741  41.9089794  33.7167001  72.9107285  63.1880140
  34.2547584  72.1704483  63.4685707  33.3449173  73.2575560  63.9990139
  69.3134260  48.6653614   5.7085413  70.2362776  48.8438511   5.8894265
  68.8449669  49.0547466   6.4468879  12.1816909  58.8740587  62.6116991
  12.0831776  59.1918325  61.7141771  11.5691090  59.4038105  63.1219339
   5.7824558  69.4465017  38.6528754   5.5625880  70.3095245  38.3020401
   6.7393792  69.4318724  38.6706591  68.9564371  13.8196218  17.2110415
  68.5807133  14.6851873  17.0502341  68.2731628  13.3463573  17.6857913
  44.3010616  78.0635309  59.9782515  44.9738836  78.4348679  59.4075918
  44.3722391  78.5651875  60.7903528  13.1886578  59.1663122  68.0170393
  13.3075631  59.6741867  67.2144413  14.0667188  59.1032934  68.3928967
  28.4130764  79.4295168  49.9735212  28.6212397  78.5622692  50.3210545
  28.4481144  79.3214178  49.0230942  30.2245617  60.4689026  43.7641859
  29.6191859  60.3187275  43.0380964  30.7240510  61.2426949  43.5034418
  35.8263826  46.7206049  70.2235126  35.8439302  47.6405001  69.9594688
  35.7935548  46.2353611  69.3990803   4.9285230  59.9745989  58.0241776
   5.7037675  59.5919943  57.6132727   4.7790456  59.4362354  58.8013840
   8.9807111  22.3830533  49.0749025   9.2017096  21.4681268  49.2489767
   8.6200893  22.7037954  49.9015284  46.9511986  22.6082134  57.3896694
  46.4685535  21.7962575  57.2347069  46.6735220  22.8892279  58.2615423
  42.1891928   1.6400032  71.7431831  42.3939800   1.4632058  70.8250141
  41.3388729   2.0788549  71.7187214  81.6851616  53.7008858  20.6562519
  82.4368477  53.1811666  20.3714728  81.3600349  54.1109467  19.8547685
   3.5922280  73.6566162  29.3829417   2.8156129  73.1717491  29.6622324
   3.2459968  74.4587803  28.9919329  19.2411339   8.9732665   9.8246205
  18.5531640   8.8564312   9.1694272  19.0893865   9.8499972  10.1775324
  85.8606815  38.6388540  20.1181769  85.9045410  38.3244133  21.0211921
  86.0177803  37.8594041  19.5852506  86.0250854  17.0755613   0.2184148
  85.1089573  16.8748581   0.4098869  86.4915752  16.2590718   0.3971976
  56.2326765  38.9955115  13.5434639  56.7574358  39.6836519  13.1344187
  55.5550051  38.7953162  12.8977728   7.0074928  50.4358864  48.9964437
   6.7531407  49.7496033  48.3795500   7.7184784  50.9019089  48.5564947
  69.2014837  55.0657940  67.5258160  68.7876129  54.4758511  68.1558275
  69.4013023  55.8538246  68.0310965  55.3476429  68.3662844  30.8791304
  55.2499723  67.5049639  30.4731488  56.2934875  68.5094309  30.9125948
  75.9597683  67.1500254   7.7313644  76.2415552  66.5386200   7.0509148
  75.0902700  66.8410683   7.9858226  81.6726875  14.4607008   1.7032386
  81.2921524  14.4847703   0.8252580  80.9608078  14.1533101   2.2644700
  71.7958164   1.2782249   4.0881807  72.4926424   1.8243363   3.7242740
  72.1972656   0.8500253   4.8442990  75.5075550  67.4537468  58.9327097
  75.4800129  66.5073872  59.0736961  75.5080366  67.8272772  59.8140192
  50.3623819   0.5788695  55.7267761  50.3342962   0.2223043  56.6146421
  49.6453810   0.1395596  55.2694511  65.3802681  24.7098804   7.1715105
  65.8691216  24.1731739   6.5476495  65.8478260  25.5449748   7.1869451
  80.1086903  45.7296371  17.6090872  79.3965578  46.1841297  18.0591214
  80.9016800  46.1804390  17.8992200  83.9025784  73.8006306   1.0652532
  84.2968178  73.2554054   1.7460850  84.6483898  74.1820145   0.6020675
  35.5895305  32.1910048  48.3060694  35.1510167  31.5570474  47.7385902
  34.8783302  32.6134801  48.7876749  86.0295391  39.1316080   0.7321149
  86.3792896  39.7951698   0.1374808  85.1562977  38.9399242   0.3901406
  84.0807438  26.8471861  29.1487646  84.8147297  26.7097902  29.7476125
  83.3126736  26.5568495  29.6407080  76.1607933  37.4581027  60.9938383
  75.8212042  36.7961931  61.5961552  75.3798294  37.8884935  60.6458616
  34.8658562   1.5886375  15.2031851  34.6625519   1.3096318  14.3104053
  35.6622434   1.1079361  15.4288507  42.5336361   1.0926813  33.3196688
  41.7595482   1.3498586  33.8205504  42.7269888   1.8525444  32.7706218
   5.9454650  41.2696123  10.4441810   6.5846705  40.5575752  10.4187572
   6.0309356  41.6369057  11.3239670  23.1192255  16.0550714  23.6795783
  22.4106669  16.3256896  23.0956745  23.6948466  15.5251813  23.1281185
  20.2811861  10.4768384  41.1695623  20.8926678  10.6148160  40.4461813
  20.6400323  10.9964252  41.8889332  51.0438061  76.4400387  52.2784567
  51.5006924  76.1792421  51.4787865  50.8152294  75.6136894  52.7040529
  63.5901642   0.6663605  59.6717072  63.9755344   1.4962518  59.9527788
  63.1608629   0.3239252  60.4557133  19.5699251  39.1466260  14.8436010
  19.0648913  39.9470377  14.9868262  19.7230351  38.7995505  15.7224226
  54.6440125  56.1600161  30.9727216  54.9187994  55.7455111  30.1548529
  53.6881971  56.1111593  30.9566641   5.0286639  70.9043884  49.3502855
   5.9446359  71.0520744  49.5856905   4.5382380  71.5130043  49.9028301
  13.0015194  32.1251678  60.1924801  13.1096709  32.6959133  59.4317007
  12.0621979  31.9437861  60.2242231  16.8910551  56.0145617  34.7651362
  17.4757826  55.4227114  35.2384567  16.1098754  56.0702801  35.3154874
  20.2149129  79.3978691  45.3385735  19.5189178  80.0269604  45.1486540
  20.3154850  79.4319010  46.2898684  40.1573801  79.8241615  56.7823172
  40.8894157  79.8970413  56.1699104  39.4202209  79.5402575  56.2417316
  22.2229028  81.0289288  46.5382862  21.6961622  80.3600883  46.9758034
  23.1151795  80.8706379  46.8465376   4.7599903  36.3790655  46.1207199
   4.3629220  35.5824137  45.7687044   5.4871130  36.0665417  46.6590977
  17.3613167  23.7173200  18.8306606  17.8250277  22.9362965  18.5286570
  17.8648722  24.0171957  19.5874548  -0.0950928  20.2452946   5.0752223
  -0.2639599  19.4551158   5.5883849   0.6591110  20.0204325   4.5303974
  12.5697994  57.3908043  59.7169352  13.2184720  57.0221281  59.1173220
  12.7811968  57.0032597  60.5662584  54.7798219  -0.1818307  45.6136131
  54.7842255  -0.4167588  44.6857023  55.2066770   0.6743114  45.6459522
  80.1581287  73.8187933  63.8956165  79.4909573  74.5027304  63.8377619
  80.3712273  73.6144447  62.9850864   4.5402208  58.4732914  11.6580510
   4.1012537  58.0724859  12.4083161   5.3672093  58.8010693  12.0114386
  41.2245226  56.1392593  53.3667803  40.9126949  55.3536892  53.8160896
  42.1618652  55.9889364  53.2442284  31.4197206  15.7054734  11.6091418
  31.9463992  14.9344850  11.3983846  32.0591259  16.3683331  11.8699324
  40.4307747   7.8814048  22.8912544  41.1966181   7.5519729  22.4209476
  39.9201655   7.0980716  23.0959511  17.4177122  58.2245111  44.6612978
  16.5394819  58.5351849  44.4412470  17.7266228  57.7948570  43.8636732
   4.0634432  74.9483585  57.8706646   4.8269022  75.5188322  57.7816629
   4.2556459  74.2009163  57.3044300   8.4861273  66.0135937  35.5683804
   9.0282071  66.7336750  35.2461076   7.6987243  66.0447836  35.0250053
  85.8777714  79.8211479   9.6736306  85.1579285  80.3094578  10.0731397
  85.4471302  79.1693306   9.1205353  65.7142925  30.6819320   6.2622267
  65.2601433  30.6679320   5.4197407  65.0725079  30.3423691   6.8859559
  73.6812353   1.9027168  42.7667761  73.7431717   1.3460404  43.5429907
  74.1561651   2.6990259  43.0046129  56.0274124  53.6625719  59.4974804
  56.7495823  54.2580462  59.6977615  56.2217283  52.8723812  60.0015354
   6.5679109  25.2086139  24.7368455   5.6239104  25.0521493  24.7120953
   6.7057276  25.9379721  24.1324663  39.4743323  25.6661177  63.2603264
  40.0730944  25.0939250  63.7402344  39.1434646  26.2746477  63.9209747
   4.5362428  66.8530464  60.7052565   4.8203778  67.1564579  59.8430252
   4.6984860  65.9097815  60.6926870  80.1417065  17.0810485   2.0193535
  80.0574303  16.2381971   1.5735631  81.0636425  17.3162246   1.9146931
  84.1053295   6.1309755   3.3921254  84.3861675   5.7569516   2.5569814
  84.8335934   5.9583694   3.9888445  15.3751230  51.5111017  71.1476278
  14.4927490  51.5442419  71.5171576  15.8102942  52.2889805  71.4965725
  53.3561230  15.8886290   2.8106779  53.2579374  15.1784730   2.1764302
  52.8461027  16.6103709   2.4429777  82.9842091  24.3406177  34.7145677
  82.9237843  24.5731211  35.6411314  82.0949173  24.0803695  34.4744444
  33.1487608  16.3603795  57.5658798  33.2456398  15.4326141  57.3511744
  33.9940619  16.7481792  57.3393631  20.6789136  24.3379974  10.0166750
  21.5593696  24.1666555  10.3508437  20.7222319  24.0949535   9.0918583
  15.1303709   6.6579247  22.9474592  15.7885802   6.3272989  23.5587525
  14.2932999   6.4689994  23.3715487  72.1332645  58.0786085   8.5847020
  72.2097492  57.3568439   9.2087519  72.6717997  57.8098011   7.8404212
  43.5520601  61.0880756  67.6818323  43.7973785  61.2906790  68.5846043
  43.6397123  60.1370716  67.6174879  59.6014881  14.0455437  14.1136408
  59.0230513  14.4841790  14.7375357  59.0078402  13.6089385  13.5027456
   7.3461312  38.0837679  51.4010429   7.3318666  38.8994980  50.9004307
   7.2650689  37.3958635  50.7404041  65.4164410  75.4486036  14.3432343
  65.4216242  76.3956785  14.2044818  65.3523684  75.0779295  13.4630489
  64.0409803  18.8331306  12.0418572  63.6118507  18.8807809  11.1875689
  64.3139029  17.9191840  12.1221483  26.2778068   4.1812009  65.9841681
  25.8030081   4.3668485  65.1740265  27.1652174   4.5003438  65.8202076
  41.8786192  18.7811422  66.5620041  41.3113356  18.3879662  65.8987999
  41.6600990  18.3167017  67.3699474  65.0996208   4.5207670  64.3134212
  64.5335102   3.8955501  63.8608122  65.4417276   4.0345904  65.0636387
  23.7358284  71.8953753  64.4914579  23.2663822  72.7282476  64.5381498
  24.1675687  71.9113445  63.6373043  22.3192167  22.3357534  22.4140286
  23.1976509  22.2264886  22.0498157  22.2703171  21.6903162  23.1191874
   3.9604855  19.0702498  25.9491920   3.1588170  19.1185677  26.4699841
   3.9265704  18.2070804  25.5368543  66.0652542  16.7401206  36.7126107
  65.3642225  16.9043756  37.3433304  65.6808090  16.9609964  35.8642912
  52.0071697  24.0190935   7.2861707  52.1086073  23.2100463   7.7875537
  51.9400549  23.7300706   6.3761187  31.1947131  75.1982498  12.6805639
  31.5820074  75.1466608  13.5543907  30.8957934  74.3074131  12.4980950
  63.4294415  35.4575181   8.9395195  62.7130365  36.0460854   8.7016582
  64.1992378  35.8318734   8.5111427  56.5271139  40.3578520  59.3718529
  56.4987040  40.8300018  60.2040148  56.2542105  41.0039520  58.7204552
  70.8842421  17.7147305  11.1574519  71.1771536  18.3509099  10.5049860
  70.0838041  18.0945170  11.5197968  86.9588757  24.5683360   2.0935544
  87.8850079  24.7553134   1.9400966  86.5168858  25.4027748   1.9367608
  61.1813116  14.1524351  25.2308583  62.0691347  13.9565349  24.9314809
  61.3049030  14.6237171  26.0547829   9.5417070  26.8590355  32.2701049
   9.2259485  27.1959448  31.4316416  10.1847243  27.5055957  32.5611782
  18.5828376  77.0304346  63.6784792  18.8451505  76.9633579  64.5965862
  17.6606655  77.2849607  63.7108374  47.8445530  72.1544361   1.3582152
  48.7651920  72.0349836   1.1249926  47.3817778  72.1428204   0.5203983
  83.2915974  29.9777031  13.1050348  84.2471027  30.0345373  13.1066000
  83.1040764  29.1060829  12.7566898  14.9000633  76.8776464  58.5010242
  14.1319788  77.4142981  58.6966848  15.3482354  77.3481417  57.7981710
   2.6655102  50.0735235  37.0997715   2.6751113  50.1561928  36.1461973
   2.7197212  50.9743547  37.4188352   0.7883897  55.2348661  25.6035542
   1.0723018  55.0032139  24.7192693   0.4364265  56.1208582  25.5177140
  75.2546597  38.3467722  16.1026967  76.0357475  37.7936864  16.1178231
  74.8271465  38.1805134  16.9428301  44.1455030  72.1478128  63.6740589
  44.8183775  71.7720175  63.1063890  43.3198977  71.8247604  63.3131647
  82.6608734  22.6576983  71.9182187  82.7790170  21.7140375  72.0267243
  82.6643543  22.7921139  70.9705093  29.3178558  78.1883049  18.1709969
  29.3746233  79.0067863  17.6779497  30.0572491  78.2225227  18.7779212
   4.9132743  65.5180931  18.6431110   4.1805652  66.0269260  18.2960427
   5.2145660  66.0185814  19.4013751  83.0115795  72.8210878  29.0563464
  83.6663151  73.1374979  29.6787906  83.2339191  71.8997383  28.9225006
  14.9742925  18.4396422   1.1942511  15.5695379  18.3811522   0.4469261
  14.1906798  17.9668009   0.9138860  79.3924856  28.0447841   0.3625077
  79.2429781  27.9991841  -0.5818439  78.5918379  27.6902437   0.7491540
  56.3032007   1.5419275   9.2819333  56.6798925   0.8210872   8.7772340
  55.3570318   1.4298306   9.1900927  87.2494316  42.4674940  24.7076821
  87.7324581  42.7118301  23.9182401  87.8090191  41.8230486  25.1410222
  38.9068389  13.4994352  64.4143343  39.6556520  13.6284268  63.8322067
  38.2763362  14.1674459  64.1451454   3.1670871  54.7610283   5.8862263
   3.3446786  53.8703251   5.5840051   3.5239553  55.3229570   5.1983953
  15.7091379  63.8009930  69.6571875  14.8401093  64.0401983  69.3350029
  15.7614005  62.8544044  69.5250082   5.2258211  77.4987507  27.0359397
   5.9263271  78.1477070  27.1021509   4.7870579  77.5323677  27.8859925
  21.9863677  35.7287645  33.4119821  21.3298249  36.2411833  33.8837957
  22.5764036  35.4089308  34.0944743  11.8383777  43.5499096   9.6419698
  12.6847780  43.1983948   9.3657929  11.6840637  44.2909145   9.0560234
  21.6313267   5.6839609   2.0122389  21.9163418   6.0504031   1.1751498
  20.9776235   6.3041961   2.3350549  43.2833672  63.3735418  32.8134346
  43.0498123  64.1186380  32.2597957  43.3479452  63.7410641  33.6949062
  71.9614124  34.2611766  55.5639887  72.0410728  34.4735575  54.6340513
  72.7639389  33.7817693  55.7697821  86.7399788  18.0016327   6.0103536
  87.3183060  17.2990310   6.3072085  86.3809395  17.6825750   5.1823932
  61.3958645   8.1124163  40.6406641  62.1544886   8.6794108  40.7793713
  61.7492008   7.3456722  40.1895666  35.8520103  82.3662472  15.7378387
  35.7169390  81.5700722  16.2517405  35.0781631  82.4237442  15.1774049
  80.4502106  14.4777632   9.9188769  80.1275826  13.5927510  10.0888741
  80.4879665  14.5397115   8.9644307  48.4453344  78.1449461  55.5027056
  47.8860283  77.9104280  54.7621632  48.6191750  79.0788698  55.3852320
   7.6856005  45.4630995  66.4472389   7.1199423  44.7012091  66.3215923
   8.0149633  45.6639433  65.5712175   2.2433011  12.8279722  51.9850588
   2.7798617  12.1406150  51.5902519   2.6465988  12.9860473  52.8386402
  21.2113261  44.7278976  16.4477658  21.5279555  45.6045675  16.6655421
  21.8495655  44.3922329  15.8183122  54.1317415  66.4323711   4.3535990
  54.5961523  65.6012011   4.2550477  54.6850586  66.9477797   4.9404767
   9.5203084   9.5265269  54.4708729  10.0839746   8.9730227  53.9303684
   8.6452276   9.1535187  54.3644285  85.4925537  64.0181398  58.4609699
  84.5900345  63.9490271  58.1496763  85.5669498  63.3399391  59.1323423
   8.8587844  16.8055046  15.4172850   7.9146206  16.8341744  15.2624822
   9.2462093  17.0800161  14.5861542  36.7775059  79.0564537  59.6051359
  37.3703623  79.2537594  60.3302717  36.3990211  79.9030781  59.3680573
   9.9271917  54.2000341  26.9626808   9.3861872  54.5360279  27.6772809
   9.3492162  54.2097139  26.1997366  80.6111240   5.2285957  58.3091927
  80.3472996   6.1397898  58.4370708  79.8030996   4.7773153  58.0649281
  48.8833141  47.8549051  70.1153898  48.4580660  48.1263638  69.3019390
  48.8735819  48.6392021  70.6640434   2.6905990  66.3058472  17.3045707
   1.8064183  66.1731291  17.6463926   2.6144314  66.1268425  16.3673472
  43.2885122  21.4906764  15.8736980  42.9936457  20.6550574  16.2356758
  43.8130903  21.2492394  15.1103127  82.3348522   6.1684638  42.8974152
  82.2509003   5.8547795  41.9969797  82.6019382   5.3963244  43.3961153
  77.7143431  45.8481073  10.9331834  77.8141022  45.7961559  11.8837523
  76.8086100  45.5833626  10.7725859  25.5915999  39.3225551  58.0469608
  26.4137149  39.0935612  57.6134634  25.7752824  39.2162538  58.9803362
   8.5097724  44.0290403  71.2118959   8.9551860  44.3111563  70.4129934
   8.8399267  43.1447220  71.3706589  42.5090551  79.9773121   4.3024457
  42.8196812  80.8817673   4.2611459  42.6954699  79.6201611   3.4341562
  76.2153816  23.3938432   1.7649922  77.1389484  23.2564068   1.9756152
  76.0913658  22.9460740   0.9281211   7.3637521  15.9723747  68.4264040
   8.3183020  16.0306442  68.3855247   7.0839334  15.9795892  67.5110435
  29.6409512  20.9878325   1.9792722  30.5864692  21.1367869   1.9855356
  29.4517732  20.6869102   1.0905154  40.3077936  63.6226988  50.4306459
  39.8145080  63.6443520  49.6106243  40.0291157  64.4098139  50.8986473
  22.7101278  80.6990433  67.2760630  23.6418128  80.7793427  67.4803782
  22.6742101  80.6944561  66.3195515  41.9973278  12.5575745  57.2808790
  41.9841385  13.4031248  57.7293253  41.1572409  12.1558285  57.5024271
  66.3322449  62.1989536  33.1282520  65.9552574  62.4440336  32.2832394
  66.4603281  61.2522888  33.0678582  73.5582066  33.4208965  12.9094732
  73.8812304  32.5520563  12.6707220  72.9660177  33.2625771  13.6446464
  21.7948008  21.0152674   4.3539441  21.4448380  21.9055963   4.3866929
  21.0944390  20.4693317   4.7112694  29.5732379  72.7787399   3.9643356
  30.3310966  72.8321123   3.3820704  29.6624494  73.5355520   4.5435637
  40.9210920  73.0026054  54.7006226  41.8023491  72.6639795  54.8585796
  40.4843950  72.9393864  55.5500507  30.0207877  28.7516308  10.7523966
  29.6865487  27.8952742  11.0191739  29.3107247  29.1364264  10.2386129
  82.0110321  21.0977554  23.6161566  82.4079895  21.1809039  22.7491260
  82.6824093  21.4178681  24.2186594  18.4124351  65.4475975  60.5515289
  18.4582174  66.1781454  61.1683226  17.6055872  64.9880600  60.7840157
  75.9802151  17.5469708  25.3808689  75.8485174  18.4865642  25.2541733
  75.4056692  17.3210740  26.1123729  39.0784311   9.3650758  50.8422089
  38.1262445   9.4592983  50.8158302  39.3395448   9.7981501  51.6549206
  15.9052849  17.7135897   9.8185706  16.0350800  17.1223593   9.0770644
  15.1866889  17.3214519  10.3146338  31.7844820  26.5593791  68.7948799
  31.2802291  27.3075438  68.4751844  32.2452188  26.2331676  68.0218744
  19.9272728  34.7957158  12.1636772  19.1066456  35.1624012  12.4928343
  20.2168298  35.4176831  11.4961863  73.5562515  81.6829491  25.8313179
  74.1433334  82.0332432  26.5012884  73.7602425  80.7482910  25.7990456
  48.5597944  80.7476139  64.7474766  48.4003210  81.1699390  65.5915403
  48.9697886  79.9121380  64.9713564  38.7800837  57.0913506  28.2535696
  39.3090773  56.6239882  27.6070666  39.3506432  57.1701336  29.0180874
  20.8403230  43.2533264  59.4697189  21.6760087  43.2959509  59.0049124
  20.3566813  44.0206051  59.1637659  67.0681190   5.9040225  62.9775047
  66.3413715   5.6076819  63.5254526  66.7538929   6.7171293  62.5820923
  48.9810419   3.6521375  71.7137003  48.0950832   4.0042940  71.6282749
  49.5534897   4.3928283  71.5139246  13.7017250  40.1627779  46.0559607
  12.9872656  39.9136591  46.6422367  14.4737422  40.1981068  46.6207409
  83.4336090  18.8949859   4.4227397  83.6281300  19.2705131   3.5640341
  82.9165554  18.1127262   4.2305040  33.7944078  75.3442955  51.2144613
  34.4206810  74.6261740  51.3056326  32.9520774  74.9113321  51.0757017
  51.1614704  40.6524658  70.1102972  50.2512980  40.5255270  70.3780794
  51.5705824  41.0945129  70.8542395  29.6530032  77.0589447  51.8637609
  30.1980019  76.7951345  52.6051188  29.0764117  77.7353477  52.2190857
  14.1478682  34.3927431   1.6274641  13.3036292  34.6233034   1.2397358
  14.4645059  33.6628461   1.0952774  51.8038845  29.0089631  66.4919615
  51.6028261  28.2325315  67.0144176  52.7594185  29.0195179  66.4365578
  54.4492245  16.7852688  50.0390244  55.1638651  16.6353118  49.4201231
  53.9073324  17.4547970  49.6215105  48.8923216  29.1514063  56.7556047
  49.1502285  29.8696804  57.3333597  49.3504667  29.3285489  55.9340477
  76.0420275  51.9366407  66.4463758  76.4391327  51.1726332  66.0282469
  75.1211643  51.6988707  66.5545654  20.4197168  19.1964173  61.6512871
  20.0089335  18.3325362  61.6166735  20.7516956  19.2680836  62.5462103
  59.6476269  53.7776232  47.5352144  59.6244669  53.1847382  46.7840958
  59.6770096  54.6528292  47.1487045  22.5553823  59.6571112  61.8565607
  21.9605994  59.4361258  61.1398840  22.0333099  59.5304441  62.6487923
  85.3145218  18.8769460  22.6604700  86.0632133  19.0085995  22.0787835
  85.4431057  17.9998565  23.0215955  30.9640026   7.1334684  34.6652126
  31.8615770   6.8013185  34.6815372  30.8777833   7.5485331  33.8070059
  64.2782021  68.8108921  52.3331022  63.7847233  68.3973932  53.0414295
  63.6666012  69.4401169  51.9506741  80.4195595  76.0728025   8.0392861
  79.7348261  75.5376434   7.6380694  81.2356472  75.6266880   7.8129750
  73.5324049  65.8144712   7.7412325  73.4948778  64.8790121   7.9405844
  72.8408670  66.2016726   8.2779640  29.5755434  70.3437185  68.1067276
  30.2843690  69.8036528  67.7572632  28.7801695  69.8447514  67.9206085
  13.2950509   5.4447895  50.3293324  13.7751901   5.9003389  51.0208321
  13.4667695   5.9585071  49.5401287  24.3758631  67.2415161  56.9763327
  25.2168870  67.1246243  57.4182034  24.3533731  66.5481091  56.3168573
  51.4176178  13.9079309  70.7336950  50.8012819  14.5386815  70.3615141
  51.7125225  14.3136716  71.5489483  69.3715858  25.7279634  29.0079474
  68.6266088  26.1624146  28.5926223  69.1933441  25.7916093  29.9462485
  51.3988256  26.2412524   8.9285612  50.6228113  26.0790515   9.4649625
  51.4147186  25.5154729   8.3046848  10.4097760   8.7801915  57.3975229
  11.3591826   8.6587524  57.3869228  10.2335167   9.3550944  56.6527748
  53.3875799  74.4635344  66.9661999  52.6994467  74.6047163  67.6164103
  53.0342484  73.7890673  66.3861227  68.4516764  11.1941814  53.9780045
  68.7380648  10.6979024  53.2112408  68.2891130  12.0767581  53.6450434
  81.2472630  22.4404716  54.8811245  80.8693504  22.1885037  54.0385532
  80.9325886  23.3325219  55.0275946  54.0499640  31.7244554  68.3634377
  53.2411480  31.5549421  68.8464594  53.7754297  31.7784595  67.4480438
  17.7695727  22.6291299  64.9767828  16.8760359  22.8948140  65.1941204
  17.6683497  21.7840099  64.5388794  17.1457863  15.1730764  17.1485734
  16.9729185  14.5928395  16.4071727  16.5798712  14.8443019  17.8470564
  75.0843430  11.0494363  22.5912595  74.9733877  10.5217290  21.8004084
  75.7819033  11.6668904  22.3712778  23.2693839  59.1593313  31.9412565
  23.2102251  59.4427872  31.0289073  22.3624659  59.1456890  32.2471094
  48.8645554  39.0278363  13.0442631  48.2121754  39.6391726  13.3861673
  48.8138914  39.1302633  12.0939088  34.5193696  28.0507779  52.9259300
  34.5490932  28.0560780  53.8826561  34.6994686  28.9569640  52.6756859
   8.2257366  69.0553522  15.3989518   7.8680801  68.7687206  16.2392831
   8.8464910  68.3684158  15.1560211  39.5823264  61.3291645  19.0585971
  38.9536500  61.3725948  19.7790921  39.0419912  61.2276411  18.2750404
  66.3807344  11.9939137  46.2367058  67.2754574  12.2097266  46.4996338
  66.4354229  11.0929155  45.9182024  63.1876183  23.3143067  64.4772816
  63.6922979  23.2565928  63.6659861  62.7268076  24.1508722  64.4137001
  85.2071571  48.8566065   1.5181673  85.8273602  49.1624641   0.8563223
  84.3765354  48.7766123   1.0492383  20.6561399   3.0866605  52.1416903
  20.5872893   2.5411701  52.9252291  21.5820694   3.3250734  52.0964384
   8.5216999  74.6755409  66.0272264   8.0351752  74.0281200  66.5374899
   7.8468317  75.2419901  65.6531668  11.4632893  24.9802899  53.7951136
  12.2617531  24.4955468  54.0041828  10.9821272  24.4044042  53.2009172
  18.4777701  75.9054470  31.7607117  19.3728125  75.9052896  32.1000218
  18.1012905  75.0844860  32.0777535   9.3878144  41.2541294  12.8654861
  10.2655244  41.3226604  13.2411993   9.5123309  41.4285469  11.9325840
   5.2380323  38.6320972  56.1824465   4.3156305  38.8877940  56.1875296
   5.3211093  38.0206275  56.9141817  78.6214590  12.7820015  38.7700057
  78.5715818  12.7819657  37.8141046  78.1682205  13.5828733  39.0334630
  43.2697296  24.1495514  47.1654367  42.5414038  24.7690439  47.2101736
  43.4407663  24.0481758  46.2291145  73.0778646  47.6456738  69.7625017
  73.7191582  47.0415592  70.1366901  72.8822899  47.2825336  68.8987255
  14.7276282  29.2010045  59.3691015  13.7785578  29.2142892  59.2453241
  14.9783719  30.1243329  59.3978024  13.4538555  45.3495121  12.4892664
  14.0799940  44.9778891  11.8679130  12.6211107  45.3524971  12.0172918
  44.3065834  52.9607773  16.0901058  43.8648987  52.4224043  15.4333735
  43.6975336  53.6794901  16.2596381  40.9253359  23.7583017   4.9128875
  39.9729466  23.8528514   4.9287677  41.0720730  22.8626752   4.6086639
  47.7642822  75.0918150  42.9862833  48.0463123  75.1861334  43.8961172
  47.0491934  75.7209063  42.8907537  20.3374743  41.9017220  45.6943655
  21.1792278  42.2533846  45.9842205  20.0199676  41.3941813  46.4412451
  82.5993729   6.4989555  63.9921522  83.1773376   6.4081168  64.7497320
  81.7379189   6.2346137  64.3150425   1.5440570  73.5669899  45.4081678
   0.7777899  73.3122301  44.8941994   2.1915346  73.8349533  44.7560978
   5.6402385  72.0188570  10.5452859   5.8134580  71.4148569  11.2673724
   6.3715816  72.6359701  10.5685425  -0.0119228  18.7819231   1.7874561
   0.6304722  18.1106114   2.0174715  -0.5639763  18.3678758   1.1241102
  56.1701965  77.9268599  62.9309607  56.8938828  78.3405447  62.4604607
  55.5218220  77.7360106  62.2531557  25.3673768  76.7705631  22.1421909
  24.7988391  77.3212957  21.6039610  26.2062621  77.2314024  22.1535635
   1.6852713  76.8831921   8.1721294   1.7849125  77.6012278   7.5470477
   0.7389412  76.7602873   8.2468677  24.8426223  49.3744135  24.4594574
  23.9643955  49.3439627  24.8389602  24.8373580  50.1552439  23.9058256
  41.8784237  10.9850407  26.8410611  40.9387589  10.8072972  26.8002295
  42.2613525  10.1737857  27.1749258  18.7200439   8.0198300  31.2281156
  18.0840623   8.0263364  30.5127692  19.5717967   8.0245745  30.7913923
  77.6590872  46.6439152  60.2030611  77.4418449  47.4316263  59.7045135
  76.8949986  46.0767174  60.0996923  24.1283298  49.8070526  29.3913698
  24.0139508  49.6631861  30.3307605  24.9701548  50.2568102  29.3186975
  53.2051086  78.1505919  21.1026025  53.9412880  78.5553551  21.5613365
  52.6094341  77.8770351  21.8001485  82.9293728   4.8105913  29.1768360
  83.3385563   5.6561506  28.9929032  83.6516571   4.1832250  29.1460133
  87.6580048  63.4832287  69.2869377  87.9919147  64.2193985  69.7995615
  86.9899940  63.8692951  68.7204170  57.2210741  12.0075929   5.0100404
  57.6853943  11.1711466   4.9785018  57.4991226  12.4049139   5.8353025
  18.4245956  30.1471400  59.6217728  17.7824235  30.7581377  59.2604876
  19.2657721  30.5901289  59.5103550   0.4292799  61.6630507  71.5147018
   0.0267110  62.3950195  71.0473871   0.0957137  60.8831787  71.0711145
  75.4020548  41.1906433  40.0657225  74.6398592  40.9195137  40.5773640
  75.1874018  40.9426737  39.1664648  25.5834484  51.4617157  22.6304030
  25.2236843  52.2203922  23.0899858  25.7608438  51.7798662  21.7452240
   8.0488718  33.0707169  43.6360645   8.8920033  32.6592875  43.8260269
   7.6599586  33.2281899  44.4964027  68.4777164  29.5952725  39.3906331
  68.7607622  30.4597735  39.6885490  69.2790651  29.0718985  39.3784761
  35.6873989  72.7473259   5.0034636  35.3348207  73.6145496   5.2030838
  35.6286073  72.2687292   5.8303374  39.6810246  77.4150562   8.0665815
  40.0903320  77.4593925   7.2024435  39.5360494  78.3293295   8.3101273
  20.8061194  60.5909443  63.9836884  20.4811406  61.4834785  63.8653421
  20.0157332  60.0559711  64.0566635  74.3127155   9.1537189  49.5144844
  75.2099228   9.2026865  49.8444080  74.0971470  10.0542951  49.2721558
   8.1472063  47.7581882  56.1444712   8.0839694  48.6545086  56.4743853
   9.0172899  47.4644232  56.4144468  57.3158550   1.9341040  30.0109172
  58.1886435   1.6780210  30.3090644  56.9865131   2.5101238  30.7008195
  58.0447674  45.5892801  60.7357740  58.9633226  45.6731319  60.9916162
  57.6579142  46.4381075  60.9504223  68.7543201  13.5173595  14.5640576
  68.9315081  13.5948586  15.5015171  69.0064287  14.3666685  14.2016399
  17.7119541  11.9905913  67.2985840  17.8128207  12.4754500  68.1177092
  17.2165775  11.2087131  67.5425100  77.0101404  35.7525039  65.0664520
  76.5530777  36.3896465  65.6154299  77.1258879  34.9887133  65.6316566
  81.1475372  14.9339283  48.7300205  81.6933441  15.6283641  49.0989256
  80.7633877  15.3230703  47.9443789  81.7357445   4.4245821  66.3946962
  81.5600300   3.9690471  67.2180080  82.6370907   4.7351632  66.4804459
   6.5380526  32.0874977   1.5759295   5.8539408  31.5008473   1.2533388
   6.0920632  32.6503921   2.2087601  85.0997925  47.2088146  53.7056255
  84.9859905  47.9459858  53.1057405  86.0484314  47.1076155  53.7834740
   6.3924360   0.9658973  58.3372879   5.5048043   0.6086853  58.3100653
   6.9423836   0.2683219  57.9806662  52.0214415  18.3957911  51.9611263
  52.3674536  17.5033438  51.9677162  51.3265562  18.3881247  52.6193857
  14.6918976  33.1324005  48.5996866  13.9677155  32.8033638  48.0672169
  14.4622707  34.0441585  48.7791395   8.0113244  27.7963638  61.7325783
   7.7584237  28.7177873  61.6755581   7.3319781  27.3946071  62.2741652
  23.4787941  48.9893913  48.3379221  24.3744516  48.7401819  48.1100512
  23.3439088  49.8280430  47.8966665  37.5699043  31.4230800  64.7390985
  37.9023004  31.9416666  65.4717731  37.8962517  31.8729019  63.9597464
   5.0670820  11.9165695  36.1446023   5.6066984  12.4274254  36.7479873
   4.6247211  11.2765098  36.7021632  79.2849159  29.6299410  64.3337584
  79.2593813  30.5716825  64.1643476  79.5296526  29.5591140  65.2564287
  69.0226460  23.7168694  63.0091429  69.1797686  22.8599501  62.6126099
  69.6583986  24.2956758  62.5883865   7.0008975  37.3304629  60.3820992
   7.6916242  36.8383813  60.8259296   6.5742475  37.8271985  61.0802794
  27.4797273  19.2572212  55.9677935  28.1549740  19.0909553  56.6255426
  27.6623702  20.1435184  55.6557798  80.8353996  24.7376323  50.3566408
  80.1040363  24.7664499  49.7397900  80.4223633  24.6248078  51.2127399
  79.6307802  73.3978033  32.6606536  80.2921009  73.8777924  32.1621513
  78.8477707  73.4280300  32.1109104   0.1943422  42.8564596  42.1233988
  -0.0751641  42.0395756  42.5432730   0.2116996  42.6509476  41.1886835
  76.9070148  56.8672609  45.9966612  77.4059772  57.3601103  46.6480923
  76.3733149  56.2619686  46.5114546  57.9201984  53.4474134  68.6999989
  58.1251001  53.6199093  67.7810383  58.3829308  52.6336908  68.8999128
  30.4365706  34.9563479  70.5468798  31.0324216  34.4862723  69.9635935
  30.6149864  35.8812642  70.3767920  50.6764507  47.2615337  46.4036083
  49.7981262  47.4656057  46.7247534  50.6776953  46.3102150  46.2976551
  55.8447456  82.0691872  17.1489275  56.0827637  81.5092373  16.4099813
  56.1001730  81.5664577  17.9223990  53.5334539  10.0624967  21.8564081
  53.6536169  10.9105480  22.2837257  52.6939487  10.1395476  21.4030552
  -0.1333603   8.9926171   2.9361451   0.1509198   8.4142989   3.6439335
   0.2219611   9.8500729   3.1701285   2.2451216  62.8784132  68.3425808
   2.1189748  61.9562960  68.1189394   1.3793743  63.1782579  68.6197233
  43.3921814  57.1424723   9.2033386  44.2006969  56.9452620   8.7304276
  43.4734678  58.0658674   9.4420230  10.0843275  76.7274380   3.2038006
   9.5743942  77.2820234   3.7942559   9.6113318  76.7642641   2.3724455
  54.7570515   7.9351002   1.2405033  53.8143015   7.8290397   1.3678309
  54.8328400   8.5906965   0.5471914  79.0588856   7.6895183  58.5319757
  78.1712532   7.3964173  58.3259869  78.9420605   8.5631531  58.9052629
  19.3245459  78.3285856  38.4269309  18.7344015  77.5929308  38.5905647
  19.4638109  78.7202883  39.2891407  72.0794821   9.0319103  53.5841274
  71.9239569   8.9454198  52.6436186  71.3797379   8.5206819  53.9906168
   0.4227914  61.8511868  58.9813137  -0.2808524  61.2119484  58.8695383
   0.3477353  62.4256802  58.2193708  43.1047282  83.0039637   8.8525051
  42.1860585  82.9636066   8.5867023  43.3360896  82.0970632   9.0530926
  56.6897631  70.4528522  28.0777812  56.3341665  71.0943556  28.6928082
  55.9194183  70.0766134  27.6520562  52.3530722  48.3966541  49.5657253
  52.3738718  49.0490007  48.8655519  52.9580069  48.7346697  50.2260542
  59.3346167  28.6648870  46.7108917  58.6063623  28.4961700  47.3087358
  59.4563580  27.8389716  46.2426281  70.9886265  54.8776102  37.6503038
  71.9050598  55.1536560  37.6368594  70.4917622  55.6952906  37.6228118
  64.7033215  79.4411850  65.1331806  64.9677229  78.6527443  64.6591759
  64.6669769  80.1230526  64.4623899  25.3018379  31.2919688  55.1109028
  24.5399070  31.7921448  54.8184681  25.5615568  31.7094207  55.9321880
  84.2625141  41.5336132  68.6401510  83.6293316  41.0879660  69.2029238
  84.4543552  42.3525286  69.0970993  74.6994591  32.5824881  16.6159344
  75.5352831  32.6820660  16.1601710  74.4953203  31.6503239  16.5409291
   4.4868067  52.2736263  42.7238655   3.5561550  52.3219872  42.9424524
   4.5673236  52.7683544  41.9083929  12.3304093  26.2836885  49.9853563
  13.1907761  26.3069224  49.5664740  11.7921329  25.7534909  49.3976641
  63.8303137  80.6825638   6.5654939  63.7616491  79.9996710   5.8982801
  62.9318333  80.9891987   6.6877240  19.2302775  15.2875423  19.9174130
  19.3692982  14.5274496  20.4823589  19.6579981  16.0095775  20.3777957
  76.9608784  18.7660253  40.0556803  77.5609303  18.5363626  39.3461585
  77.4635887  18.6086488  40.8548927  80.6075191  42.7754545  47.2977114
  80.9556198  43.2212543  48.0699301  80.5999756  43.4475708  46.6162157
  76.6890764  47.7763700  56.3000345  75.7927942  47.6019049  56.0128546
  76.5884018  48.3088636  57.0890474  80.5354214  34.1703701  48.3623552
  79.6285105  34.4648457  48.4462404  81.0265827  34.7342873  48.9598417
  76.1091232   2.6434714  71.7456770  75.9528255   2.5710800  70.8041048
  76.0602713   3.5824385  71.9250822  62.8721762   9.9189848   5.3834045
  62.2775841  10.5690992   5.7576275  63.6633921  10.4132795   5.1692098
  13.9619875  28.2950687  51.5786934  14.4403672  27.8360128  52.2690916
  13.5602176  29.0423322  52.0218754   1.3205568  72.5662708  30.4984426
   1.8325780  71.9599438  31.0336375   0.4667465  72.1431971  30.4076123
   1.6287886  31.8694830   0.8403705   1.4830095  32.7077222   0.4018120
   1.6106302  32.0811296   1.7737016  17.3644960  43.7983704  52.6535320
  17.2429287  43.9433289  51.7152119  16.9388938  42.9579449  52.8231668
  34.4599342  67.3873949  15.5361247  34.7341704  68.2153034  15.1416647
  35.0908875  67.2368574  16.2400210  40.7372236  55.7487535   6.9107658
  40.6473970  56.6270542   6.5409601  40.5311728  55.8575583   7.8391719
  21.6682029  27.4127507  57.9948616  20.8271265  27.2879720  57.5552559
  21.5914822  26.9100928  58.8058376   4.8091295  35.8273149  50.4857159
   4.5023453  35.1737309  51.1141586   4.8952368  36.6308784  50.9986496
  28.3642197  79.7428131  46.5995026  28.5913634  78.8149405  46.5386915
  27.9941535  79.9554491  45.7427216   8.7966090  33.2696772  33.1928778
   9.4122231  33.9935374  33.0776453   9.2919844  32.6086450  33.6764836
  41.9884157  66.5162897  63.1540728  41.9855785  67.3570633  63.6115980
  42.8427696  66.4805746  62.7239132  59.3184185   7.1143466  42.5190878
  59.8963070   7.5596768  41.8994427  59.0927124   6.2907529  42.0866728
   7.5221676  59.5379400  70.0717497   7.6830888  59.4356203  69.1337395
   6.8677628  60.2342367  70.1279449  40.8834982  20.8344626  55.6248617
  41.2633705  21.6137791  55.2191591  39.9484992  20.8939338  55.4287291
  87.8049278  37.4088788  56.5308571  86.9663143  37.6730657  56.9092083
  87.6143265  36.5891814  56.0747910  40.9336948  27.8214669  52.6803207
  41.8887663  27.8279448  52.6169157  40.7285643  26.9974542  53.1220818
  65.8828068  81.7073631  22.1189666  65.8933306  81.8999767  23.0565262
  66.5992260  81.0849190  21.9942784   9.1987926  44.6866512  68.5833931
   8.6675727  45.0701094  67.8855419   9.7483808  44.0411997  68.1388903
  87.5831223  62.8977680  27.9551268  86.8117619  63.0858088  28.4897995
  87.2339821  62.4708033  27.1728039   6.0583210  30.0454783  45.1684427
   6.2667763  29.2543745  45.6653690   6.7027724  30.6894827  45.4619980
  67.9962730  37.6273561  60.0027800  67.2817278  37.7653670  59.3809986
  68.1049204  36.6769123  60.0356817  10.5851781  48.3240509  44.4912672
  10.9289491  49.2117119  44.5918226   9.6633410  48.4483624  44.2654467
  23.9803863  53.2249689  37.1543694  24.8552179  53.5847092  37.3009515
  23.4831572  53.9506245  36.7769885   1.3773465  10.9678602   3.9890736
   2.0271485  10.3816438   4.3768096   1.2711562  11.6675365   4.6335950
  69.7302008  25.9222460  46.1135197  70.3831244  26.5280294  45.7628870
  70.2205133  25.3653312  46.7182255   4.0924153  39.1659403  48.0202818
   4.9551579  39.5789647  47.9839897   4.1801289  38.3802271  47.4806547
  25.0705147  29.9299669  50.8369732  24.2661238  29.4907165  50.5608463
  25.0519872  30.7718849  50.3819275  38.8111496  68.0990553  10.8893752
  39.3531013  67.6003361  11.5007675  39.2046785  67.9356289  10.0322533
  64.2060423   2.5175059   0.1350013  64.5151472   2.1541679   0.9648624
  65.0033808   2.7910522  -0.3184902  71.5118456   9.2115176  12.5158536
  72.1324253   9.0431899  11.8067837  71.6034794  10.1468790  12.6973295
  26.1800790  17.8588390  60.9428453  26.8425393  17.1715200  61.0133505
  26.6264820  18.5765719  60.4936075  87.1954918  19.3010139  67.3539257
  87.6234531  19.8843646  66.7272043  87.1475029  19.8115587  68.1621790
  14.0123320  48.7440920  63.3373976  14.0428507  47.9101372  62.8685474
  13.1429482  49.0953541  63.1449938  84.0256310  34.0102625  50.4232931
  83.4902000  34.4766355  51.0652018  83.3952999  33.5149455  49.9002409
  59.7497368  41.3324356  64.2976761  59.1599751  41.3469505  63.5438824
  60.0691128  42.2319365  64.3692684  69.5496893  24.0663815   4.0358579
  70.3848696  23.5992956   4.0127048  69.7930384  24.9921203   4.0403613
   3.5412353  17.8124213  61.9027948   3.8508269  18.7181568  61.9081068
   3.6203483  17.5376177  60.9893084  10.4363334  44.5416689  45.5888987
  10.1205564  43.6928320  45.2790642   9.7669601  45.1643181  45.3052139
  46.9037008  12.1777976  50.8634853  46.1297035  12.6206827  50.5156136
  46.9483423  11.3552499  50.3759861  84.8267269   2.5767112  29.1257548
  85.0617695   2.0510025  29.8903561  84.0496731   2.1464613  28.7689614
   9.9759912  57.5428581  53.8909292  10.5654228  57.7478600  53.1651354
   9.3262631  58.2456446  53.8776493  15.8088744  51.3616705  38.6260080
  14.8561513  51.3711977  38.5340333  16.0345316  52.2582102  38.8740420
  67.7829647  18.2701111  46.1449718  67.6532030  18.6220515  47.0256138
  67.7474451  19.0368068  45.5730057  68.8934660  24.3261194  57.7969980
  68.4836483  24.6941161  58.5798550  69.5421886  24.9799418  57.5364065
  40.1201677  75.8330774   1.2680319  39.6917868  75.3986168   2.0055711
  40.9555531  75.3755665   1.1728938  77.2372007  17.9063213  57.0239305
  77.7162743  18.4129858  57.6796865  76.8147945  17.2072554  57.5230455
  23.7140870  65.3266430  55.1787472  22.7689672  65.2805901  55.0343275
  23.9408278  64.4756317  55.5537176  69.3405819  42.3652124  21.7162991
  70.1115370  42.0577860  21.2394857  69.0794563  41.6190481  22.2560048
  73.7115049  30.2286696  50.4161596  73.3464432  29.3441200  50.4392958
  74.0159798  30.3855705  51.3099766  87.1839714  58.8560295  53.2293653
  87.9330349  59.2928696  52.8240108  87.1449089  59.2191982  54.1141319
   3.5220745  21.7454338  70.6240797   2.8766194  22.1479845  70.0430727
   4.1833398  22.4250245  70.7549095  28.2776451  66.1401653  53.0499983
  27.8258944  66.7866325  53.5924339  29.1724467  66.1258268  53.3896446
   7.5438517  32.6284504  46.2539625   8.0683786  31.8298841  46.3122272
   7.6123381  33.0239272  47.1229506  87.0266724  29.0015364  57.2448349
  87.9782772  28.9379072  57.3263407  86.7280674  28.0928135  57.2089720
  66.4395046  44.4340706  61.9330072  66.4419889  45.2619505  61.4525509
  67.2553730  44.4451427  62.4334812  32.8203273  26.0108328  38.6176038
  32.5879550  26.8797231  38.2900929  32.2681928  25.4104900  38.1166363
  18.5645092  80.1758099  70.7092762  17.8218186  79.6870184  71.0638523
  18.1657755  80.8713531  70.1863432  10.2459693  22.4891996  57.9894304
  10.3165293  21.6177249  57.5998306   9.3262362  22.7287006  57.8755856
   2.6371533  30.2485633  50.6432867   2.1847008  30.0539899  51.4640570
   2.0890296  29.8499918  49.9673223  65.2345419  54.2721558  68.3341742
  65.5131197  54.8109341  67.5936699  65.8285761  53.5216999  68.3212328
  35.9764981  22.3623991  42.3055363  36.7289209  22.9042125  42.0677757
  35.5581570  22.1536875  41.4702749  20.0367618  22.9316998  31.1702085
  19.6510518  22.1158171  31.4892673  19.4992197  23.1716514  30.4154205
  73.9975405  45.9567881  21.5395093  74.6283197  46.3730335  20.9520650
  73.2002020  46.4774466  21.4425468  12.6282442  57.9920149   8.8896662
  13.0925930  57.1773195   8.6976075  13.2224965  58.6817837   8.5941809
  75.9441376  74.2510462  71.2614489  76.6240454  73.7466812  70.8147049
  75.3526354  73.5898590  71.6208792  56.1658669  49.8842621  11.4311266
  55.5930901  49.7936535  12.1926713  56.1979389  50.8266211  11.2663257
  63.9949894  25.8812642  48.7986279  64.3936205  26.7473626  48.8834906
  63.9748478  25.7182288  47.8556299  25.1133752   0.4727757  51.7832899
  26.0033536   0.5695804  52.1221113  24.9450016  -0.4688621  51.8179417
  42.1991825  63.1167936   5.1438332  41.5474081  63.7847757   5.3564829
  42.4424553  62.7415323   5.9901363  14.1647935  19.7804260  49.5983648
  13.8763785  19.9145901  48.6955643  13.3691573  19.8795331  50.1212168
  51.5506363  76.5127563  14.4527662  51.0269451  76.2717438  15.2168941
  52.3286104  75.9581423  14.5109868   8.5363787  35.4572511  62.7628469
   8.6149883  34.6960139  63.3377981   8.3479035  36.1857700  63.3544302
   3.0628651  31.6151452  56.4390230   3.1485736  31.0179162  55.6959152
   2.8370976  32.4575233  56.0444832  68.2825708  65.5138636  54.1340733
  68.2797384  64.8455191  53.4488440  68.5401249  65.0431204  54.9267244
  82.9451656  73.1617117  17.7541912  83.1732464  72.4376583  17.1711302
  83.7453175  73.3295202  18.2520115  23.9272881  66.1741877  11.1389899
  24.7277522  65.6803274  10.9612489  23.7474108  66.6406393  10.3227174
  66.1410141  26.4805317  67.1672583  65.7383919  26.5400219  68.0336237
  66.9886827  26.0648680  67.3251057  22.0728135  12.2481096  26.7038679
  21.9108844  11.3047206  26.6987348  21.2015891  12.6403570  26.7616677
  20.8075070  31.7437983  59.0710211  20.5518270  32.6593566  58.9587116
  21.3659835  31.7447138  59.8484135  81.4587307  38.6623859  41.5614080
  81.2215900  39.0087795  42.4216509  80.7903099  38.0027008  41.3762856
   4.8752370  74.5699644  63.1450319   4.8012221  74.9184990  62.2566223
   5.3613293  75.2401114  63.6255026  10.4635620  37.4340510  43.0925179
   9.9892318  37.7545691  43.8596630   9.8718005  36.7955637  42.6945448
  28.3594966  47.5251961  22.9088497  27.6741910  47.9032087  22.3577666
  28.2515574  47.9578161  23.7558556   8.6961335  33.1603098  36.6215539
   8.9564037  32.3928475  37.1309614   7.7391958  33.1458759  36.6386843
   9.7287387  50.1302576  24.0682292  10.1914716  50.9325171  23.8263726
   8.9746118  50.4321146  24.5745969  83.2092953  21.5582013  41.5508080
  83.1480026  21.3534665  40.6177711  83.5267639  20.7497287  41.9530725
  71.7536688  46.1941242  45.1700974  71.8132401  45.7401943  44.3294859
  72.6528263  46.2100506  45.4979515  79.5193291  56.9328976  51.9430828
  80.3805923  57.2686100  51.6945887  79.1512108  57.6124287  52.5078487
  83.4427261  16.6389143  58.5802221  84.2224312  17.1164310  58.8635254
  83.6597061  15.7180822  58.7258863  39.2545509  53.0100393  24.6209002
  39.0768743  52.4291992  25.3606892  39.9860549  52.5968075  24.1622376
  33.4996605  68.2673264   3.1618014  32.8870320  68.1426096   3.8866210
  34.3638301  68.2511091   3.5731190  20.3889179  52.8774452  43.9896202
  20.5976987  52.0349550  44.3931675  20.1144433  53.4315395  44.7202873
   5.1674956  12.0663631  70.7938910   5.4422104  12.9827368  70.7619047
   4.3189988  12.0550883  70.3509951  15.4527545   7.2858924  64.8610497
  15.7110572   8.1473839  64.5334196  16.2141943   6.9785476  65.3529692
   7.8460521  63.8129997  55.1136780   8.1457114  64.5371675  54.5641136
   8.1973547  63.0297136  54.6902609  18.6074877  40.8733654  71.2251997
  18.9035845  41.7697668  71.3833809  19.4146848  40.3674459  71.1318636
  18.1070518  34.0645432  41.9217396  18.3779645  34.8942661  41.5288067
  18.0389857  34.2536569  42.8576040   7.1410853  63.2004309  12.2143936
   6.4093077  62.7074909  12.5855339   7.0205307  63.1314230  11.2673271
  13.9706206  13.6352491  62.7910328  14.8831904  13.7287533  63.0643606
  13.9308393  14.0666580  61.9374895  83.0420685  61.1851501   8.0708319
  82.2985935  61.5075731   7.5613993  83.7378788  61.0592079   7.4256802
   9.4258159  67.9790878   1.0153712   8.8145912  67.9940796   1.7518573
   9.6076137  68.9016247   0.8361821  47.9084349   5.4116428  19.9736917
  48.6039734   5.1904726  20.5929971  47.7270842   6.3370907  20.1376748
  38.7569070  73.1138229  13.8271475  38.3436656  72.8015900  13.0221784
  39.6896124  73.1570339  13.6163759  71.5913200  11.8124700  59.8133469
  71.8295336  11.6890073  60.7321739  72.0090437  12.6375484  59.5663977
  66.4534044  55.3177786   0.8052570  66.4635897  55.5559731  -0.1217767
  66.0668087  56.0760784   1.2431547  61.0796738   9.4640702  64.2795706
  61.3437748   9.9815238  63.5188341  60.9468555  10.1094961  64.9738455
  86.9192123  81.5569592  51.5406275  87.3913860  81.7175770  50.7236242
  86.5213203  80.6945419  51.4217520  10.5549252  18.5968959  47.3490000
   9.9384075  18.6800182  46.6215181  10.8906960  17.7033770  47.2774935
  71.5354967  80.4264641  37.5954652  71.2910843  79.5792961  37.9680181
  70.7328510  80.9464264  37.6358819  13.1503797  34.5832443  45.8526421
  13.5094440  34.5501184  44.9659586  12.2305024  34.3402195  45.7477760
  86.7309570  25.0526214  54.5965672  86.3218880  24.2199898  54.3607378
  86.5051937  25.6425786  53.8773918  28.0823588  26.0994077  59.1187620
  27.9294705  26.0330391  60.0613403  27.7124786  26.9480181  58.8752890
   5.4298383  76.5593529  64.7873640   5.2372271  76.1833382  65.6462812
   6.1493433  77.1696234  64.9489546  28.7408376  43.5351801  20.5245137
  28.2293558  43.9250803  19.8155737  29.3265700  44.2360449  20.8107662
  19.6472347  28.1286073  34.2523646  19.2219889  27.9514122  35.0914121
  20.3825259  27.5164914  34.2225146  84.9072456  39.5555353  53.4897614
  85.3125191  40.2217054  52.9346085  85.1906776  38.7233734  53.1110764
  14.4950008  32.6041961  62.3540497  14.0356731  32.1338511  61.6583300
  14.8679423  31.9147682  62.9034472  81.1310959   5.3352630  17.7533281
  82.0567131   5.1499301  17.5948131  80.7087135   4.4764465  17.7373195
  50.4353714  48.0876112  43.7176275  50.9789133  47.5169992  43.1743097
  50.5835819  47.7793407  44.6116257   2.2162473  52.5421762  53.7632895
   2.8046846  52.0984030  54.3740606   2.7334410  53.2701159  53.4185553
  83.2602119  47.5860167  38.6841846  82.3939133  47.9436779  38.4896588
  83.7367725  47.6491165  37.8564548  35.4928255  71.6279125  13.0052137
  35.7805848  72.2356462  12.3239744  35.3315687  72.1825933  13.7684667
  17.0938861  68.0013895  63.1616116  16.2204194  68.3779860  63.0545425
  16.9549370  67.2242212  63.7028408  77.1260548  34.9269342  25.5269694
  77.4204445  35.3842664  26.3146329  77.2273254  35.5696321  24.8248911
   9.6728653  37.6259732   5.5715936  10.5685639  37.7862716   5.8686763
   9.4733840  38.3680892   5.0008905  65.9734726  53.5332441  47.2411203
  65.1852846  53.5132265  46.6983604  65.9733295  54.4072247  47.6314926
  82.5655460  79.6467018  60.6159353  83.5167789  79.6902704  60.7133579
  82.2908306  80.5601788  60.5364895  49.9604321  57.7847958  49.8923683
  50.8885336  57.8052998  49.6590614  49.9306440  58.1252909  50.7864666
  48.4870863  57.4586058   5.9351069  49.1578817  57.5353289   5.2565944
  48.5448837  58.2800913   6.4230180  60.1156378  14.0875852   5.7915217
  60.5273199  14.9442172   5.9052265  59.5319653  14.0004241   6.5451562
  59.5071220  75.4432964  31.7452979  60.4109001  75.3039598  31.4624381
  59.1348410  76.0229778  31.0807657  57.9514837   4.3224666  55.2978325
  58.8661337   4.2267191  55.5633020  57.8062487   3.6084580  54.6770811
  22.0671725  52.4186993  56.6594219  21.6236401  52.3135185  57.5011158
  22.7850246  51.7860842  56.6862583  21.5661383  54.2306662  50.5987024
  20.9929824  54.9836493  50.4547071  21.3071251  53.6004686  49.9263954
  75.4164362  20.3924537  20.2270508  75.8970308  20.8132553  19.5141804
  74.6210718  20.9165263  20.3218007   2.2095227  47.6546097  59.4578075
   2.2208688  47.5575924  58.5056067   2.0653461  48.5899067  59.6015644
  28.7601733  81.5839386  60.9202528  28.9840984  82.3321629  60.3668499
  28.8855767  81.9014263  61.8145180  79.9522829  16.6022253  62.3561573
  79.9637032  16.5455604  61.4007044  80.7890701  16.2255681  62.6284456
   1.0406528  44.5248747  69.9295139   0.7217648  44.2074823  70.7743835
   1.9814588  44.6452332  70.0584698  14.5345104   7.1986789  48.0956888
  14.0049207   7.4057305  47.3256922  15.0538337   7.9880941  48.2485199
  84.8647404  70.9842300  49.8149538  85.7239246  70.7335186  49.4755983
  85.0551796  71.4463234  50.6313086  13.0372310  29.7599077  70.8648205
  12.6682425  29.6179676  69.9930811  12.7265644  30.6292415  71.1177588
  11.9942558   8.9934915  36.2894583  11.2273169   8.4907615  36.0150528
  11.7567146   9.3431371  37.1482682  44.4962358   1.8830208  54.8548603
  44.7904158   1.6012490  55.7210541  44.8755503   2.7549624  54.7450018
   2.6005322  73.0804300  60.6687641   1.7521580  72.7295113  60.3979301
   2.4374917  74.0115023  60.8196020  63.7244987   6.0381824   4.0631169
  63.6041927   6.8975782   3.6591399  64.1558170   5.5144119   3.3879429
  44.7965765  55.7251787  66.7151690  45.5235767  55.1785135  66.4170790
  44.3040180  55.9237576  65.9188128  33.2033062  77.7049828  34.0142679
  33.9095140  77.6624060  33.3695269  32.6310420  76.9707298  33.7915206
  24.3310356  35.1046872  50.7662439  24.9174881  34.3483019  50.7525635
  24.7336078  35.7086301  51.3902807  30.0855565  61.2254238  25.1139283
  30.4944015  60.3611040  25.1589394  29.5712638  61.2053728  24.3068767
   2.3227626  33.3095121  41.3981915   3.1660181  33.7172174  41.5954924
   2.0877667  32.8446126  42.2012329  86.4786243  29.4424129  54.7936106
  86.7590809  29.2729187  55.6929684  85.6077003  29.0494323  54.7362280
  16.8810260  18.3856082  56.3948154  16.5613449  17.4948120  56.5380573
  16.9538426  18.7581420  57.2735357  19.6369576   5.6608123   5.1421702
  20.2729487   6.3623375   5.0021386  18.9186573   6.0798287   5.6161982
  43.4633303  65.3138685  42.4657393  43.0611467  64.8553896  41.7279911
  42.8956842  65.1140738  43.2101154  28.5118127  56.4050865  12.1048605
  29.2942786  56.0982513  12.5629318  28.1640553  57.0999527  12.6638448
  11.4485729  43.3727694  22.0115876  12.0794594  43.5433674  21.3122225
  11.7472064  42.5549173  22.4092937  86.3974285  34.6376657   5.0132912
  86.1572456  33.9154983   4.4327554  86.2047672  34.3123078   5.8926421
  75.7077074  55.0379038  47.8224754  74.9999809  55.6670189  47.9623604
  76.3630629  55.2639771  48.4824991  28.8880873  64.4221401  39.3257356
  28.6387825  64.4764948  38.4031701  28.5795021  65.2445459  39.7060800
  27.1735001  68.9021540   7.3609346  27.1686482  69.0717745   6.4188963
  27.0548654  69.7640228   7.7601010  30.2450800  79.0079975  64.9642706
  30.9868145  79.3694592  65.4494524  29.5461822  78.9354134  65.6142759
  28.6975408  64.7437572  18.2734668  28.3701658  65.0346994  17.4223423
  28.9413738  63.8283825  18.1361413  16.3146400  15.6091940  55.3454351
  15.9637165  15.9039640  54.5050764  17.0799541  15.0828981  55.1140547
  77.9776669   7.5859368  10.4485667  78.5571527   6.9016010  10.7833946
  77.7648592   7.3052740   9.5585245  52.2624636  82.0601273   5.5946594
  52.4582386  81.2446880   6.0561365  52.6260900  81.9327068   4.7184351
  62.2276831  22.9249096   5.0223935  61.2964582  23.1450558   4.9980462
  62.6721048  23.7703609   5.0850809  17.0470011  81.2839985  64.3963671
  17.8611243  80.8475399  64.6472359  17.3299956  82.1004295  63.9845610
  29.2508578  52.7569342  37.5929594  29.7036314  53.1879425  38.3178473
  29.9398208  52.5771856  36.9532299  31.4106894  19.8392427  53.3951283
  31.4167070  19.2499459  54.1493988  32.3308611  19.9141002  53.1423235
  13.4260499  49.7893429  48.4869766  12.4733257  49.8387671  48.4088278
  13.6180949  48.8516045  48.4863424  29.0081167  66.4358044  64.5642424
  28.1604147  66.5660286  64.9893045  29.5272613  65.9537125  65.2079058
   8.4666061  25.2622938  63.9477491   9.4161880  25.3819823  63.9619207
   8.1309444  25.9404612  64.5339632  21.0657287  43.1751108  55.2592182
  21.4443970  44.0154743  55.5173492  21.8038058  42.6780701  54.9064779
  44.5945930  39.7751331  18.6024129  45.3287983  39.9969864  19.1750896
  44.2926121  38.9237905  18.9190447  37.2455406  64.0483475  48.6705065
  37.9352260  63.6016703  48.1795406  36.6173601  63.3580828  48.8830185
  47.7147675  14.5125735  19.0046811  48.6082888  14.7436082  19.2586088
  47.3700619  14.0285861  19.7551250  38.7809944  71.9354916  37.0324540
  38.1571937  72.1436119  36.3369036  38.4794950  72.4446869  37.7848196
  22.4590302  54.7942781  55.1999140  22.4211287  53.9391232  55.6282806
  22.4173045  55.4245043  55.9191608  33.1032395  10.3613400  18.5330546
  33.5758400   9.5475125  18.3582187  33.1114078  10.8273959  17.6970172
   6.6786838  53.0710554  57.0724630   6.9365472  52.7864981  57.9492569
   6.2829125  53.9321804  57.2068548  16.0607469  33.5421848  52.9196978
  15.1566279  33.8118052  53.0812740  15.9882653  32.6466227  52.5896263
   9.0661585  32.7211642  67.2242022   8.4816587  33.0715275  67.8963900
   8.9442021  31.7729354  67.2713327  83.0781937  33.5246897  58.8682556
  82.6781559  33.7265682  59.7140932  83.7336826  32.8560066  59.0668154
  72.5573730   6.5859556  40.7249546  71.8097258   6.7608994  40.1534176
  72.5280190   5.6410879  40.8752680  17.5521362  47.7908945  63.5249519
  17.2000265  48.5395432  63.0435228  17.3195684  47.0316029  62.9905224
  87.2337627  45.4960775  23.9890814  86.9790459  45.1308870  24.8364210
  86.4192963  45.5274200  23.4871840  10.2219224  16.6499388  10.3555441
  10.7896876  17.0070302   9.6726382  10.0082743  15.7675612  10.0522363
  23.7093592   1.5818033  59.5723343  24.4895983   1.0461999  59.4288540
  23.1889772   1.0830573  60.2021694   2.1225429   6.1761850  53.3938789
   1.4444280   6.7999780  53.1345034   1.9131476   5.9587193  54.3022251
  63.6523438  36.3327670  36.4464569  64.5677757  36.2267137  36.1876655
  63.4707165  35.5738997  37.0008588  83.5268116  82.5037098  71.1818600
  83.1234932  81.6378498  71.1198711  83.0907154  82.9183292  71.9262695
   0.5785597   7.3521721  66.1919117   0.2170612   8.1994128  66.4521646
   1.3914634   7.2749972  66.6913748  75.0212574  40.5604935  64.9368858
  75.5208826  40.0603580  65.5822325  74.2671824  40.0062323  64.7358942
  12.7475202  45.7977629  55.2037430  13.1297410  45.6639862  56.0710621
  13.4857047  45.7105970  54.6006536   6.0778379  20.2863288  11.3928747
   5.7837808  19.4664669  10.9958971   5.3245223  20.5912828  11.8985915
  57.2604990  16.9589317  16.7025197  56.3042402  16.9183815  16.7149282
  57.5360632  16.0597503  16.5242851  25.0393510  37.5324678   4.9098256
  24.3800306  37.5625110   5.6030983  25.3317332  38.4392715   4.8178998
  79.5870352  13.4305966  17.4921417  78.8162041  13.9125073  17.1924615
  79.8396063  13.8653660  18.3066452   3.9490843  67.8691053  28.2806349
   4.5953360  68.4838295  28.6280584   4.4017810  67.0257759  28.2708406
  11.4690948  63.7298918  21.8430805  12.3460698  64.1022015  21.9354534
  11.4833224  63.2917070  20.9921837  77.5800228  80.3651237  31.2116742
  76.9425154  80.8253098  31.7576146  77.6601648  79.5003939  31.6142249
  75.0181866  20.1273131  41.5876341  75.7724667  19.9411809  41.0284805
  74.6671820  19.2652893  41.8111038  19.2599702  55.5160189  67.7028370
  19.1705620  54.9046993  66.9717264  18.5323215  55.3000116  68.2860184
  15.1406538  59.5256424  44.1133308  14.9361742  60.3837299  44.4849539
  15.2527142  59.6906233  43.1771374  36.1136651  55.9258270  35.5409646
  36.8878579  55.7911396  34.9944139  36.0616159  55.1372480  36.0810280
   1.9269612  21.3861322  60.8622885   1.6470870  20.5464005  60.4979372
   2.8521997  21.2596011  61.0724211  65.6988382  12.4977314  21.7157555
  66.5041399  11.9925201  21.8275070  65.0081444  11.8376195  21.6572309
  10.8336186  64.2229462  50.1440287  11.1363077  64.4871759  49.2752409
   9.8929089  64.3995619  50.1338863  49.3201590  74.1868496  18.9324665
  48.6536455  74.0392923  19.6034539  49.8776865  73.4098721  18.9737320
   0.6571829  72.7954483  49.6780396   0.0288685  72.2611332  49.1922760
   0.3908218  72.7058744  50.5930567  78.7287045  32.0631194  63.6106014
  79.4514799  32.5880861  63.9544630  78.1764174  32.6914787  63.1454420
  44.7236347  79.2891359  12.7175653  45.2980471  78.5279226  12.8002071
  43.8484049  78.9178085  12.6065326  80.1032448  47.2502995  61.0374212
  79.3889809  46.7510653  60.6414032  80.4134369  47.8224802  60.3355503
  21.6640830  47.9696894  38.6056638  20.7817602  47.8756142  38.9646721
  22.1610141  48.4003782  39.3012214  86.4170265  31.4311147  47.2183943
  86.1464119  31.9129181  46.4368200  87.0900059  31.9819593  47.6182795
  21.6645932  49.7093725  36.4509463  20.9633255  50.3599930  36.4170361
  21.3511515  49.0515089  37.0715952   3.8937086  53.8606167  61.0082674
   3.9677343  53.2316542  60.2905273   4.6791363  54.4026327  60.9337234
  13.5316753  63.8610554  53.5796070  13.7745559  64.0396976  52.6711321
  12.7409124  64.3810749  53.7228107  55.8214283  58.1504679  40.0510645
  56.1761904  58.7088251  40.7428837  55.3827286  57.4395704  40.5183887
  57.8641939  50.3275967  47.1418953  57.6731205  51.1083603  46.6221523
  57.3876095  49.6240425  46.7013168  86.0472298  44.1191959  62.7592421
  85.1620388  44.1176414  62.3950052  85.9585953  44.5639515  63.6021900
  18.0253768  76.0011625  47.0520496  17.7383423  76.8845749  46.8209219
  18.1818390  76.0393429  47.9956007  78.4102392  61.5256262  54.9188137
  77.8299332  61.2134075  55.6130743  77.8931046  62.1815538  54.4513130
   8.0827379  38.6658430  44.7557735   7.7482617  38.6354423  43.8594294
   8.6134893  39.4618273  44.7864962  13.2499003  54.9280262   9.2252761
  13.9703321  54.5082664   8.7551594  12.4598646  54.5429087   8.8461226
  40.3406954   8.6033338  66.7510319  40.6722546   7.7077389  66.6861534
  40.5778551   8.8830703  67.6351881  45.6578207  46.4567947  61.6894054
  46.3520813  46.1613035  62.2784042  45.8356333  47.3880768  61.5577841
  29.0350413  55.9862661  26.6483045  29.3203020  56.8646574  26.3967395
  29.6866989  55.6964779  27.2867370   6.9215953  55.8988714  63.4167862
   7.2942579  55.0421667  63.6251354   7.2986138  56.4891481  64.0692139
  25.7789445  76.4185238  34.4479060  25.3291011  76.8334770  35.1838994
  25.4062319  75.5379105  34.4050956  34.2098141  76.9928694   4.6283683
  34.9078631  76.4722490   5.0257474  34.6691394  77.6713848   4.1335255
  36.1216545  16.6694021  22.9608655  36.4054298  17.4935937  22.5653768
  35.2390647  16.5303385  22.6174641  16.5796959  53.4754086  40.2916574
  17.3763895  53.2600069  40.7765388  16.8328774  54.2059898  39.7273993
  27.2798777  66.7743397  37.0136547  26.8791199  67.6164627  36.7981362
  26.6538382  66.3552999  37.6041722  12.1139991  28.5849309  59.3026543
  11.6871679  28.2367706  60.0854874  11.4038205  28.9840651  58.8000870
  84.8820210  43.7047529  70.1502562  85.0497246  44.1546774  70.9783125
  84.4008446  44.3432331  69.6239138   4.3467450  30.5536222   1.1775132
   4.6984977  30.0727034   0.4283682   3.5654527  30.9893441   0.8369816
  83.3359337  16.3485682  42.9232883  84.0924358  15.8546627  43.2394981
  82.6896095  16.2721634  43.6251879  16.8247652  62.0682621  23.6061573
  15.9873056  61.6069937  23.5601044  17.3980987  61.5836620  23.0122900
   3.0715105  42.8961182  35.7336593   2.5232249  42.1116495  35.7188439
   2.6596066  43.4639597  36.3849092  14.5335829  66.3496113  41.1038399
  13.8528466  66.3947582  40.4324341  15.3250730  66.1014795  40.6261349
  12.6389289  70.2721500  33.2300115  13.2674372  70.3792334  32.5160480
  12.7352655  69.3585587  33.4989023  83.8780689  62.4358320  34.2788100
  84.3533134  61.8191576  34.8356581  83.8085938  63.2310534  34.8070431
  67.1378994  27.5348139  45.7046652  67.7311945  28.2813859  45.7875013
  67.6814222  26.7733359  45.9070587  79.2376995  58.9197826  48.0154228
  79.7856665  59.6982622  48.1150723  79.6017933  58.2894421  48.6369896
  49.1315222  17.5107777  21.6727209  48.7070751  18.2888412  22.0342326
  49.6365166  17.1524501  22.4026656  64.1605520  37.4565315  53.9378023
  64.3270445  36.6296959  53.4851933  63.2179928  37.5949335  53.8447809
  42.4603939  44.2029190  66.9795227  42.8382349  43.7800455  67.7506590
  42.4755430  45.1372099  67.1871424  50.8760071  53.0112362  58.5011053
  51.7825270  53.3083439  58.5796881  50.9295702  52.2165918  57.9701614
  84.1966724  82.0378590  24.0794325  83.8167667  82.4540806  23.3056974
  85.1420975  82.1283150  23.9601851  11.6705239  46.9072008  35.8205438
  11.4031088  46.3345671  36.5394402  12.6250041  46.8376970  35.8013201
  85.9928417  80.9988117  67.0366669  86.3567448  81.3709927  66.2333679
  85.2209282  81.5341854  67.2204208  15.5349219  44.3975449   2.9923978
  15.6783617  43.4914637   3.2656580  14.8060918  44.3486357   2.3738135
  33.8016653  70.0260830  60.3348684  34.7337461  70.0944567  60.5417061
  33.3593297  70.4047728  61.0945845  71.8968105   3.6232048  53.5663462
  72.8080511   3.5185838  53.8400698  71.9472551   3.7927020  52.6256227
  28.7057257  31.8869758  41.7992163  29.0464354  32.3650026  42.5552845
  28.4518385  32.5700116  41.1785460   1.1377243  49.7935820  57.3829222
   0.2770112  49.9152040  56.9821548   1.0977956  50.2997732  58.1943464
   1.2369519  55.5207825  55.9342241   1.6159289  55.9344149  55.1586485
   0.2912270  55.5760241  55.7971716   1.9375440  43.9807272  38.3467722
   1.5685850  43.1981134  38.7561774   1.2559202  44.2803335  37.7452254
  45.6489849  66.8969393  23.9035821  45.9433460  67.5163031  23.2357669
  44.7130871  66.7889977  23.7342453  60.5849791  14.0569091  10.7276022
  59.8211718  13.5457671  10.9951150  60.6031084  14.7963274  11.3351905
  47.6433563  75.9829664  60.2860641  47.7329254  76.7991734  59.7941208
  46.6991186  75.8322573  60.3301287  11.1738503  60.0718689  59.5515203
  11.4328289  59.1634989  59.3965006  10.5116200  60.0178623  60.2405500
  20.4477811  75.4875708  33.8457537  20.1338100  76.1748123  34.4334197
  20.9110093  74.8760796  34.4182277  74.9310589  25.8328652   2.1473804
  75.5483866  25.1045227   2.0791622  74.6892881  25.8559942   3.0732542
  55.3611040  65.7486534  70.4901361  54.5088291  65.5677986  70.0937128
  55.3406811  66.6856050  70.6849003  86.9794559  68.4926653   9.8757106
  86.5818310  68.4547281  10.7455862  86.2484455  68.6774826   9.2860597
  81.2959766  45.6131601  53.9305067  81.7350292  44.8919821  53.4795475
  80.3932381  45.3138447  54.0386677  18.0590034  20.6059766  12.7965772
  18.5073495  21.2897348  13.2942641  18.7519109  20.1891828  12.2843325
  26.6240072  62.4409628  39.3992853  26.7513561  63.3300066  39.7303653
  27.0604467  61.8813658  40.0416279  12.8117347  55.0454569  26.2127781
  12.9412305  54.1514540  25.8962011  11.8691623  55.1929092  26.1350060
   3.9997798  50.5052280  63.2818508   3.9799836  49.8226452  63.9526129
   3.0812573  50.6367636  63.0468035  73.9592505  46.5833616  49.2040014
  74.2026901  47.2035074  48.5166979  74.5284796  46.8064737  49.9405003
  80.3384686  46.6692305  51.3798809  79.7789812  46.2385607  52.0262003
  80.8727360  47.2762012  51.8921089  59.1198158  69.6082354  27.6254821
  59.3598747  68.9733744  28.3004332  58.4150648  70.1220989  28.0198145
   8.5675216  50.4073238  57.0967007   8.4272659  51.2345505  56.6359949
   8.8448071  50.6665707  57.9754114  29.4312024  65.3720665  58.1290913
  29.5323586  64.6064663  58.6946487  28.7365031  65.1279497  57.5175095
  67.9641056  52.3449898  44.7905540  67.4979401  52.3616982  43.9547062
  67.3734474  52.7834320  45.4030228  30.4211569  54.9214268  34.2022419
  30.5523467  55.0327206  33.2606268  29.4779468  55.0267220  34.3267512
  38.0596590  36.3421750  44.9344540  38.5445905  35.8710051  45.6120062
  38.3530354  35.9488487  44.1125917  82.6963997  54.4920731   2.2510484
  82.8714657  54.0703297   1.4097886  82.2778320  53.8112164   2.7777952
  12.1356487  30.9333849  24.5808244  12.3364127  29.9979925  24.6118641
  11.1810029  30.9754372  24.6366382  13.6559045  76.0787916  31.7652583
  13.1130779  75.2994394  31.6461587  14.3068457  76.0265207  31.0654187
  23.6746597  30.4314685  65.4425049  23.8875103  29.9535465  64.6409321
  23.7896347  29.7886229  66.1423349  21.7768598  40.3719568  66.4691305
  21.9597030  41.0549355  65.8238888  22.4765849  40.4603481  67.1162844
  19.4139576  71.5710688  37.7909589  18.8883924  72.3563433  37.6381135
  19.0312839  70.9105921  37.2134113  78.8342714  36.6584086  59.3194532
  78.3504105  35.8979154  58.9973402  78.7065411  36.6394186  60.2679062
  19.9348915  49.5693445  20.6193233  20.4503202  49.1209793  19.9488509
  20.1853895  50.4896355  20.5384016  18.6120021  68.8730001   3.1868696
  19.0830517  69.4623852   2.5978306  19.1617501  68.8263845   3.9690691
  25.7802963  37.9176354  51.8991947  25.4006362  37.6682496  52.7417469
  26.5060711  37.3063970  51.7732096  30.0935769  35.8737254  42.9497671
  30.4360366  34.9973321  43.1255150  29.3038058  35.7225752  42.4304914
  85.3274059  36.8435717  52.5809574  85.4295921  35.9009385  52.4496746
  84.6145725  37.0915079  51.9922018  49.4731092  63.6199379  28.0378652
  49.2404270  64.1012287  27.2438574  50.3315687  63.2423925  27.8461862
  16.4519310   2.9928511  36.2846208  16.4631188   3.4767035  37.1104479
  15.5267525   2.9542449  36.0421610  18.4974837  42.7690554  57.1273804
  18.2838774  41.9390488  56.7011261  19.3010879  43.0598688  56.6962433
   0.4817209  26.4081979  28.0760407  -0.3475127  26.1400270  27.6802039
   0.6763089  27.2548079  27.6740241  83.6161423  24.9731350  60.4649115
  83.5263348  25.8935356  60.2178669  84.5459747  24.8689961  60.6669188
  41.9346476  71.9489574  59.3171263  41.3610697  71.6194773  58.6252594
  41.9045353  72.9007626  59.2201948  11.6681945  42.3726130  48.8607359
  11.0464847  41.9436026  49.4486618  11.9060493  41.6950178  48.2278681
  21.8421960  35.5437040  51.5935564  21.9422221  35.0790620  52.4244213
  22.7226853  35.5556107  51.2182856  71.7544651  38.6092448  43.6547232
  71.6164446  37.6948547  43.4075975  72.1150446  39.0181756  42.8679657
  79.6835518  54.2672539  34.8042083  79.2146540  54.9283409  35.3134537
  79.2281342  54.2457771  33.9625621  24.1823387   2.7574828  64.2579365
  24.3955708   3.6586925  64.4999743  23.9912105   2.7999571  63.3209705
  64.7568893  33.3446097  45.0540018  64.7160053  34.3009305  45.0507307
  65.2095604  33.1214452  44.2406654  14.8926151  14.9535763  15.1435256
  14.5270693  15.1412392  14.2790079  15.7979059  14.6956110  14.9699318
  87.6648998  18.2971728  15.9062850  87.5138378  17.3524857  15.8749962
  86.8056297  18.6829066  15.7356727  57.7819824   3.2260644   6.4008439
  57.8070784   2.2880238   6.5897405  58.3925772   3.6131373   7.0282066
  15.2877522  36.7147160  42.9141331  14.4501185  37.1700120  42.8286457
  15.4876697  36.7545795  43.8493729  68.6079454  19.5719659  14.4667244
  67.6975679  19.5931125  14.1717768  68.5642862  19.2131662  15.3530586
   4.7069806  69.9086714   3.0554205   4.9258080  69.4809866   2.2275138
   5.3366131  69.5529509   3.6825210  46.4868546  60.0989866  53.4017467
  46.9697475  59.5016384  53.9729023  46.7570877  59.8548460  52.5165319
  35.8012652  66.2265015  51.9645977  35.7874751  65.3432322  52.3332167
  36.6820073  66.3209057  51.6018152  77.6925945   7.2479880  20.9687114
  76.8105698   7.5873727  20.8167863  77.5554991   6.4303273  21.4471126
  30.9601402  73.7742090  65.1423264  30.4946232  73.0800152  64.6758223
  30.8504033  74.5487452  64.5907068  39.3879175  61.3112926  51.7134333
  39.9423718  60.5324697  51.6659737  39.9683905  62.0335388  51.4733505
  39.8697114  72.0894766  33.9678216  39.2558384  71.5481091  33.4715247
  39.4255757  72.9324150  34.0596271  44.9443102  73.1281948  23.0050564
  45.7065105  73.2318640  22.4353814  44.9318123  73.9247274  23.5357285
  36.6232800  39.7485113  11.9083130  36.7968583  38.8076544  11.8784094
  36.4911628  39.9968886  10.9933901  33.2305121  50.1557398  39.1160703
  34.1208720  49.9430180  38.8363552  32.6998472  49.4228029  38.8039279
   7.9557914  55.4406738  28.4762907   7.3030370  54.7611618  28.6448359
   7.5585037  55.9926271  27.8026867   9.1896427  16.5223396  22.2162342
   9.6023375  15.6596005  22.2561884   9.9023014  17.1370625  22.3907804
  18.4618866  47.5055742  59.9560213  18.8032055  48.3933735  60.0635052
  18.9752066  47.1370316  59.2370558  86.6002464  17.6952708   8.9454341
  86.1753464  17.1731305   9.6259224  85.8777905  18.0293047   8.4137303
  10.5196619  80.2602196  49.8853302  10.1818752  79.7332382  49.1611576
  11.4644682  80.1072121  49.8725557  21.4509320   6.2883157  53.7059450
  21.3729143   6.4951116  52.7746105  20.8524966   5.5531973  53.8390112
  13.0319726  55.6151819  48.3227777  12.9884243  55.2451372  47.4410772
  13.8690352  56.0788393  48.3468628   5.9278160  66.0738516  55.2953339
   6.5966266  65.4121447  55.4716063   6.4164466  66.8931293  55.2162361
  14.8350263  58.3657694  63.7090063  13.9628661  58.3870220  63.3151531
  15.3994668  58.0111837  63.0220509  47.8255558  82.4475098  66.7565489
  47.0267296  82.3698902  67.2781610  48.2560873  83.2332993  67.0933008
  22.5151086  66.4802408  37.3213434  22.2885752  65.8236313  36.6627240
  23.4689188  66.5463543  37.2754598  35.8446670  64.9954128  63.6913633
  36.4925289  65.6087351  64.0382719  35.7804418  64.3120718  64.3585634
  53.3300686  31.8028975  42.5131559  54.0043736  31.3090420  42.0466232
  53.4215355  32.6987028  42.1885061  54.4439602  48.1165600  47.2261763
  53.7680817  48.7782383  47.0791864  54.0720272  47.5380564  47.8919363
  28.2754683  17.3976207   3.5255015  28.2001734  17.4565041   4.4779167
  27.4530816  17.7612007   3.1972912  39.8100805  66.3475847  37.6321983
  39.6971107  65.4829121  38.0269194  39.3847418  66.9478464  38.2445765
  15.0609958  61.4696074  48.2781458  14.1433227  61.6880226  48.1156492
  15.1651311  60.5891085  47.9174423  38.6271954  73.9580011  53.5454416
  39.4864202  73.8020992  53.9374352  38.4508204  73.1687975  53.0333090
  11.4181042  58.3206940  51.7394209  11.6576958  59.2426443  51.6454458
  10.9372532  58.1152630  50.9376621  75.0008821   5.8854687  39.4472790
  74.2410803   6.3442737  39.8056579  74.6360445   5.0999928  39.0396595
  18.6934900  77.5009918  58.0639362  19.1662085  77.8547144  57.3105097
  17.7871537  77.7780294  57.9296350  31.2528062  31.3815665  23.6959958
  31.7739129  31.7007780  22.9592586  31.7012930  30.5847573  23.9791632
  26.9590950  73.5949421  38.6763597  26.9274378  72.8076506  39.2198658
  26.2523627  74.1463423  39.0121031  27.8875089  62.9287338  21.8591571
  28.6828160  63.2928848  22.2478938  27.6281667  62.2275019  22.4568582
   8.6109048   9.4971716   8.2638609   8.8590467  10.3403044   8.6430508
   9.1010308   9.4501781   7.4430072  79.6880865   8.5017967  66.7808437
  80.5289841   8.6235976  66.3400602  79.9201918   8.2839870  67.6835728
  77.0020437  54.1116810  14.2311478  76.1321449  54.1244745  14.6303296
  77.5154543  54.7258568  14.7559643  47.2523355  76.9126654  70.8614111
  46.9369650  77.4257994  70.1174545  47.0192671  77.4352074  71.6287851
  62.5466728  51.9959927  15.9507751  62.0471478  51.3100529  15.5078423
  63.4511137  51.6831064  15.9329176  51.7902946  60.2039909  70.1817036
  52.2839546  60.1008749  70.9952784  52.4295855  60.5426502  69.5549250
  82.1936321  11.2953472  23.9653373  82.7400494  10.7449925  24.5263815
  81.4066792  11.4601111  24.4847608  43.7295818  68.6492395  20.0807524
  43.7007809  67.7495098  20.4061627  43.0548620  68.6803436  19.4025052
   9.5260823  35.0446463   5.2505648   9.8775840  34.6865344   6.0656929
   9.7391087  35.9771252   5.2871144  15.7415569  56.3286686  48.1158209
  15.7821047  56.2335491  47.1642208  16.5485859  55.9223175  48.4317493
  34.4416428  64.9582481  40.4595661  35.3900123  64.9790335  40.5876064
  34.2266822  64.0266895  40.4124069  73.5481882  46.2593937  40.2081299
  74.1181421  46.9006729  40.6325579  74.1329288  45.5401087  39.9695182
  34.0688181   3.4665594  64.2342377  33.7081957   3.0115545  64.9952602
  34.8981285   3.0215064  64.0598726  70.4219055  61.8767357  64.6378183
  69.5534849  61.9653177  64.2451000  70.2562428  61.8410873  65.5799007
   7.8431773  25.9309244   9.6035427   6.9272619  26.1527920   9.7711879
   8.2417774  26.7548370   9.3233317  45.9443998  77.6752663  50.7369518
  45.4119015  77.3133945  50.0286245  46.2979841  78.4894896  50.3788328
  13.6415720  15.4174721  56.6629934  14.2957878  14.7833610  56.3695002
  14.1439962  16.0741770  57.1452188   2.8930750  37.2680068   3.8368732
   3.1577033  36.4152074   3.4919992   2.0629349  37.4562836   3.3990932
  11.2842822  42.4918699  64.2435932  10.9076560  41.9049835  64.8993015
  10.6501734  43.2048988  64.1679287  69.5275688  11.7514908  45.4011106
  70.4463768  11.5624726  45.2105999  69.0378809  11.1592793  44.8303890
  15.4020679   5.7407385  67.5349426  14.4886577   5.7732487  67.2505903
  15.4306388   6.2974572  68.3130693  63.6258554   3.3204120  52.2706652
  64.1414642   4.0948653  52.0457125  63.1551981   3.1039393  51.4657688
  33.7761331  75.8619547  29.1825533  33.4940219  75.1906252  29.8038101
  34.7235990  75.7433701  29.1156244  16.6954565  10.3827870  46.8736076
  16.8257511   9.8525202  47.6597834  16.6898227  11.2855291  47.1918154
  25.3594375  65.1365614  50.4497290  26.1130834  64.5477772  50.4895306
  25.0909638  65.2439785  51.3622046  28.1093049  76.5404272   6.9635248
  27.7748132  76.1221075   7.7568430  28.5109115  77.3526430   7.2721541
  31.5793777  63.9541578  51.5366840  31.1615896  63.8135958  52.3863506
  32.1241474  63.1779718  51.4063215  51.1513519  72.7853918  44.7409248
  52.0621872  72.9139853  44.4762039  51.1366701  71.9119215  45.1321554
  11.3591874  43.1806850  67.6056528  11.4978516  42.2349024  67.5556707
  12.2016883  43.5313416  67.8945541  16.2749827  22.2315764  25.6324840
  16.3077605  21.8734813  26.5195727  16.3698125  21.4684606  25.0624895
  78.4811926  10.6711161  65.8360672  78.9180708  11.4046848  66.2687874
  78.7895393   9.8970413  66.3071966  24.4751191  61.1355019  22.6109552
  24.8106551  61.4663458  23.4441328  24.2880392  61.9221878  22.0987463
  33.9935017  11.9332469  28.6794186  33.9181256  12.0996940  29.6190166
  34.8963332  12.1690679  28.4660721  38.1237507  72.9171562  69.7638941
  38.9779258  73.3298206  69.8916769  38.1768703  72.0987844  70.2575302
  33.9115286  56.8489408  57.9945660  34.1197181  55.9147167  57.9840279
  33.0456185  56.9059324  57.5906086  19.2744887  68.7014103  51.5111685
  18.7982106  69.5143270  51.3421774  19.8003280  68.8890934  52.2886610
  81.1076260  61.3998508  51.0851955  81.4388847  61.5851355  50.2064657
  81.4318657  60.5212450  51.2830687  47.0556498  26.3757539   5.3278261
  46.1907339  26.7583013   5.1801383  47.6355028  26.8607926   4.7406822
  34.5558834  51.5063524  31.5700126  34.3362999  50.5943775  31.7605829
  35.5114722  51.5372944  31.6161275  32.5166869  63.4494257  66.0526991
  32.2099829  63.4559011  66.9594097  32.4839044  62.5280571  65.7953405
  83.7404823  82.2364330  68.2765388  83.7926674  82.8135872  69.0383816
  83.5822487  82.8263664  67.5395298  53.9699697  65.8152580  36.7950916
  54.0681505  64.8638344  36.8324208  53.0599022  65.9721899  37.0468450
   3.8987541  10.3331137  58.1682444   3.5059986  10.8265829  57.4482012
   4.1802773   9.5099783  57.7689600  48.6546564  43.7350416   7.8464198
  48.2706785  42.8663206   7.7276152  48.1605959  44.1181993   8.5712147
  78.0671835  17.3898268  47.4615097  77.5688744  17.8509974  46.7867899
  78.9418316  17.7764285  47.4195766  86.7229843  71.6729736  57.8600073
  87.2603607  71.0654497  57.3517036  85.8467579  71.2879658  57.8448629
  60.1019764  72.4395943  59.5437241  59.8983097  72.5720596  58.6178684
  60.5460024  73.2450390  59.8089075  28.1216908  82.3699760  36.3550258
  28.3001447  83.3101749  36.3754725  27.2119713  82.2925472  36.6425061
  33.0371571  60.1614046  36.2287164  32.4787498  60.9372377  36.1787939
  33.2582235  60.0847387  37.1568775  23.2563329  71.3271570  67.2551537
  22.5608087  71.4482307  66.6087627  23.7490845  70.5703497  66.9378662
  54.4908667  31.4373660  12.9403555  54.5413160  31.8425465  12.0746100
  54.5295286  30.4967523  12.7672005  79.7829199  17.3684835  10.2657592
  80.3140354  18.1471813  10.0990975  80.3022957  16.8516457  10.8816803
   7.5475508  51.7569828  62.5085831   6.7322189  51.4304018  62.8891230
   7.8008413  52.4861622  63.0746031  42.8947020  13.6679697  54.6557331
  42.2301197  13.2948494  54.0766430  42.5745010  13.4826112  55.5385399
   1.6394463  23.5640478  65.2498198   1.3013098  24.2992473  65.7610703
   1.8189774  23.9354324  64.3860626  18.3370042  56.1147547  54.7483778
  17.9530752  56.3427639  53.9017153  17.7339518  56.4857388  55.3925323
  32.8546953  58.8028812  47.5945187  33.7656736  58.6591434  47.8508139
  32.9070544  59.1255140  46.6948509  20.8195448  60.8608627  31.8631339
  20.2773595  60.4590654  31.1842942  21.0685873  61.7103958  31.4991212
  29.1917109  53.6480141  53.1916571  29.9169302  53.5035753  52.5838518
  28.7938499  54.4680405  52.8992701  47.9218102  79.6009922  26.8723416
  48.1443071  80.5262852  26.9750595  46.9703245  79.5935822  26.7681599
  28.0413747  76.7317533  14.0910542  27.6560283  77.3435831  14.7182727
  28.4359789  76.0491610  14.6338141  11.5918171  49.6920109  63.8547516
  11.0484016  50.0054789  64.5777082  11.2190151  50.1075888  63.0772257
  48.6190796  27.1722293   2.9019299  48.9162397  26.4539623   2.3433416
  48.4334326  27.8876352   2.2936852  79.4193172  75.0481272  44.8841810
  79.5193529  75.2213287  45.8202505  79.8785591  74.2201710  44.7433853
  82.0635986  61.7762470  60.1802063  82.0190430  62.2789192  60.9935760
  82.1524906  62.4379396  59.4942808  12.0279193  61.8399525  55.2568436
  12.8636491  61.4235353  55.0461674  12.2490716  62.5039911  55.9098196
  20.0676942  48.8620472  64.3993616  19.2512298  48.3721542  64.3012619
  19.9502599  49.6360397  63.8485622  25.7641935  82.3516083  59.6067142
  26.6762662  82.4917126  59.3523026  25.5484414  83.1086540  60.1512909
   5.7033360  41.3598776  71.1349773   5.5521655  42.2654819  71.4056540
   5.4408574  40.8365631  71.8922615  80.7555199  16.9939697  59.5668316
  80.7688141  17.9483128  59.6395350  81.6699219  16.7522132  59.4197035
  58.2471037  66.3245106  43.4601927  58.2261276  67.1569157  42.9880810
  57.5602436  65.7990646  43.0498743  33.9114571   1.4195736  52.5900507
  33.9411044   0.6799939  51.9831133  33.5245037   1.0592417  53.3879614
  24.4442797  16.5125656  -0.1287776  24.3015003  17.2737944   0.4336960
  23.7054205  15.9338248   0.0593215  30.0175953  65.9151363  20.2563643
  29.4716954  65.4552317  19.6186221  30.2417445  65.2479601  20.9051085
  15.3001261  77.8470182  11.4667261  14.9372053  78.4496498  12.1158469
  15.4966414  78.3996964  10.7103145  51.3454580  63.9026833  49.5393372
  50.6974745  63.8330889  50.2404118  51.5121078  64.8418856  49.4595909
  23.0082726  67.0229721  23.5522199  23.3515787  67.8949594  23.3572578
  22.1047282  67.1774149  23.8278770  21.0813737  76.4580393  36.7452049
  20.5241823  75.6887102  36.8631196  20.6373096  77.1522856  37.2320986
  71.9888735  31.6352534  17.2170842  72.0646906  32.5065970  16.8281817
  71.0460663  31.4833117  17.2823608  65.3687191  12.9685760   0.4949313
  66.2990189  12.7795601   0.6175733  65.3486061  13.8648462   0.1594789
   9.9206263  75.5158424  48.0740213   9.0315843  75.1802731  47.9590082
  10.3814495  74.8183584  48.5402727  47.2323036  34.8218083   1.4808565
  46.8202162  35.5240655   0.9776196  47.3991823  34.1325665   0.8379502
  29.5158815  74.7662449  59.4171429  30.1355219  74.2041779  58.9519978
  29.4484687  74.3779373  60.2894402  21.9540811  59.4865179  51.5098429
  21.2909770  58.9089537  51.8879223  21.4692736  60.0382566  50.8960199
  20.3939724  82.5245857  64.5625067  21.0794449  81.8830013  64.7488499
  20.0019765  82.2248840  63.7422943  83.0140305  22.5040221   0.5550879
  82.6429176  23.0259180   1.2665151  82.5226021  22.7731848  -0.2209780
  34.1084027  62.4814129  62.7678537  34.5983052  63.0726147  62.1962690
  34.3821502  62.7224159  63.6528444  56.0951710  61.2475395  70.5211449
  56.5974426  60.4504728  70.6903839  55.2298069  60.9340477  70.2582836
  22.1091843  53.3932638  11.4688623  22.7189469  52.7364397  11.1327064
  21.4420772  53.4719944  10.7869518   8.8159102  39.0553522   3.3293766
   8.4767908  39.5071030   2.5566220   8.0795598  39.0409470   3.9407790
  47.9073238  69.4974804  14.3246353  48.5409498  69.6826887  15.0177765
  48.4144831  69.5550537  13.5148787  21.6522002  54.9063921  47.4782228
  21.4363885  54.0235472  47.7786303  21.0094523  55.4698133  47.9091120
  43.9741898  19.1052532  64.8354292  43.1716585  18.8462210  65.2882814
  44.5344877  18.3303928  64.8788881   7.4806464  43.5577536  18.9605820
   7.1671116  44.3980360  18.6261404   8.2140541  43.7859201  19.5317960
  45.7580328  64.3859100  28.2272863  46.5258408  64.9424791  28.0971384
  45.3958559  64.6698904  29.0665817  54.8505068   5.7362765  46.9389391
  54.4442892   6.6024220  46.9071722  54.9925566   5.5045438  46.0211420
  15.5138624  79.8915815  36.6161847  15.0937927  80.7432842  36.7360687
  16.4057779  80.1012993  36.3391685  31.2558699  58.7963533  34.6763778
  30.6912303  59.4966412  34.3492556  31.9388676  59.2502737  35.1700401
  22.1128988   9.7855586  27.8309631  22.4222159   9.4488525  26.9900203
  22.8870153   9.7718757  28.3938026  82.6944351   8.4708941   4.2992160
  83.1118774   7.6633817   3.9993852  81.8510151   8.4867537   3.8468739
  13.1366920  55.8311987  30.7847643  12.7065754  56.1802340  30.0041199
  12.4801743  55.9125948  31.4765668  39.2421627  77.3308468  49.8955441
  39.3498468  77.8320026  50.7039261  38.3410573  77.5052547  49.6238518
  27.4929976  61.2106562  48.1501579  28.3580208  61.2882614  48.5525799
  27.6663065  61.2061834  47.2087908   2.5338274  65.2612972  63.9036894
   2.3262280  65.8977413  63.2195330   1.6810827  64.9640989  64.2210722
  29.5197773  64.2187881  23.9855218  29.1712165  65.0414276  23.6420059
  30.3004622  64.0505362  23.4578323  83.0049610  40.7058144  59.6792173
  82.7290821  39.8407912  59.3761444  83.2398415  40.5741167  60.5977583
  30.2232838  69.1033411  38.1031537  29.3168521  69.4095087  38.1326723
  30.2604103  68.4017706  38.7532711  70.8436441  53.6381006   9.8300356
  71.2738085  53.1858873  10.5557716  70.5430317  52.9350328   9.2542267
  60.4358721  15.7248211  71.1231470  61.0829687  15.3349710  70.5353451
  60.8222675  15.6400537  71.9947767  28.1494236  79.7943640  67.3652601
  27.3615909  79.2567968  67.4463129  28.8145876  79.3214130  67.8653622
  20.8141041  12.3510063   5.5716604  21.7204714  12.0451450   5.6059909
  20.4342318  12.0682466   6.4035118  75.8089447  44.6319485  27.0564771
  75.2481031  45.4069710  27.0243788  75.4007053  44.0155363  26.4485264
  43.2719660  63.3399820  26.8095303  42.7529764  62.9510355  27.5135207
  42.6815987  63.3536482  26.0561967  38.3304405  70.0155401  61.2154818
  38.5266423  70.2104664  62.1318531  37.8754425  70.7950974  60.8968878
  33.6685371  17.8079104   3.5170040  34.1159630  16.9974101   3.2738373
  34.3523908  18.4770346   3.4878421  25.1931763  76.4201260  45.2200460
  24.8571658  76.0258436  44.4151402  26.0393667  76.7911053  44.9699068
   5.2333605  37.6526022  10.9967399   6.1093163  37.6345921  11.3822377
   5.3615093  37.3526621  10.0968254  73.5437202  76.1449432  13.7323308
  73.6621714  76.1776209  12.7830493  74.1703415  76.7827940  14.0739846
  26.1652994  50.9905005  67.1034861  25.7279730  50.3273535  66.5694332
  25.5998135  51.7601967  67.0400810  35.4422021  19.4216001  50.6081724
  35.7836318  19.7855783  49.7913647  35.9133887  18.5956419  50.7177544
  16.4965880  80.4316235  44.3995571  15.7955432  81.0720253  44.2785072
  17.3029971  80.9370613  44.2972422   9.7477990  36.4340830  38.9773583
   9.3339771  37.1752715  38.5350657  10.6624842  36.6967964  39.0801477
  72.6907444  76.4514399  43.2516718  73.4924507  76.6347933  43.7414455
  72.0026636  76.4329052  43.9168310  65.2531147  82.0234585  48.9901829
  65.0859737  82.9478168  48.8062191  65.5790472  82.0134735  49.8901272
  16.0304737   7.2302288  36.4250135  15.4988909   7.7272749  35.8032441
  15.4583633   6.5196401  36.7148137  48.8509083  71.6625881  65.7826519
  49.0230560  70.9612942  66.4109659  49.6604061  71.7351961  65.2770138
  72.8144026   5.7055491  62.3171949  71.9563007   6.0585719  62.5522709
  73.0374193   5.1176339  63.0388975  23.9698958  21.6438055   0.7077647
  24.7701311  22.1566486   0.8211134  23.6247730  21.9227433  -0.1403593
  52.8649235  77.8223133  65.6765556  53.3575964  77.0971727  65.2922630
  53.2200527  77.9110336  66.5610027  79.2808390  43.1075144   1.5611206
  78.5253525  42.9109240   2.1150348  78.9507532  43.7376785   0.9206737
  20.9613895  82.2153473  68.7920952  21.3944697  81.6612530  68.1427479
  21.2821507  81.8928146  69.6343040  71.8614054  21.3341665  70.5936337
  71.7532063  21.8131876  69.7720098  71.4318848  21.8833971  71.2494469
  22.8457069   5.1278484  38.9647675  22.5052786   5.4284519  38.1221652
  23.1081772   5.9296858  39.4168711  22.7291226  69.5055008  58.9548588
  22.4363112  69.2055225  58.0943298  22.0103526  69.2787027  59.5449114
  22.1515012  59.4016743  57.5575304  22.4324179  60.3153181  57.5068235
  22.5092483  58.9968872  56.7673397   9.5158255  52.8679705  60.9493542
   8.6625606  52.6308775  61.3126135   9.4885236  53.8220263  60.8768034
  39.8703170   8.9976066   6.0452110  39.6735787   9.7471797   6.6070521
  39.4525242   9.2080438   5.2101088  31.7684126  55.0981426  55.1694965
  30.9168983  55.0277328  54.7379923  31.7390752  55.9416246  55.6210613
   3.8676879  42.9595327  52.9410934   4.4346946  42.7608919  52.1959209
   3.4409225  42.1275520  53.1458092   1.3409884  78.8885307  68.4507513
   1.3574600  78.9058971  67.4938488   0.4453960  78.6316967  68.6702585
  42.9639578  59.7456980  10.4373682  42.8464556  60.6508923  10.1491880
  43.8370752  59.7305679  10.8293819  79.9401331  26.6860533  15.2603066
  80.4489231  26.1438847  14.6574688  79.1526794  26.1718464  15.4384601
  30.9390855  68.9969063  56.1382914  30.1420951  68.5086966  56.3449001
  30.7307196  69.9029922  56.3659430  50.2024031  59.1625977  52.4721670
  50.2038813  58.5957813  53.2434940  49.8149300  59.9826002  52.7782631
  55.5956030  61.1499166  15.6035209  55.3974724  60.4007673  16.1654401
  56.4879227  61.3998508  15.8433712  11.9526565  39.5129752   0.9424515
  11.7350519  40.2542210   1.5076391  12.8543270  39.6783924   0.6670235
  37.5882077  63.3831072  43.1451321  36.6615820  63.2371473  43.3356380
  37.8488326  64.0820837  43.7449121   6.1888033  62.1535254  31.7148685
   6.7691898  61.5974331  32.2346258   6.1015707  61.6941166  30.8796644
  78.1012964  31.4798570  52.9081392  78.2473707  31.6397572  53.8405180
  77.2987175  30.9591413  52.8772926  28.3441281  71.5499210  17.5133204
  29.2069650  71.2002373  17.2909164  28.3284307  72.4201584  17.1149790
  65.9077501  13.4124517  30.7494712  66.2928867  13.6216414  29.8985076
  65.3246498  12.6740444  30.5734563   8.5875839  32.9277706  13.2207453
   7.6336777  32.8503251  13.2035041   8.7538010  33.7308335  13.7143981
  34.7462320  68.3646059  53.0334568  35.1706815  67.6129961  52.6197481
  34.1703796  68.7177277  52.3552752  72.7030993  59.3510866  66.2546682
  73.4481382  58.7522125  66.3046694  71.9377232  58.7779951  66.2100220
   5.0671518  56.8068075  47.1755648   5.6804377  56.6435480  46.4590025
   5.5958867  57.2309732  47.8514004  10.3393066  37.8230739  10.8635962
   9.9406791  37.1017551  10.3767419  11.1541390  37.4578643  11.2084186
   8.1388050  44.8261309   0.8414502   8.4818065  45.5084038   1.4185888
   8.4565252  44.0077209   1.2228807  75.7129383  41.3153696  15.3593826
  75.3921938  40.4202747  15.4696643  74.9242878  41.8572330  15.3848386
  61.3434792   8.2879156  70.4332733  60.6399488   8.4375185  71.0648584
  61.6601801   9.1645390  70.2154112  80.3813553  19.0987480  71.1673832
  79.8643351  18.8896775  70.3894329  79.9112701  19.8234665  71.5797329
   2.0417398  82.6064968  51.2065554   1.5261304  82.0049000  50.6694698
   2.9199353  82.5736046  50.8271837  50.6496525  26.1439085  45.1749516
  51.0784960  25.3226924  45.4156351  50.7997084  26.7209172  45.9238005
   4.3822053  80.6603241  40.7903910   3.9187771  80.7049084  41.6267395
   4.9003351  79.8574114  40.8461714  77.8590536  70.8732271   2.9089108
  78.2889414  71.4047670   2.2389154  78.5750198  70.4073811   3.3408970
  80.2450466  43.5810041   7.4046016  80.9282970  43.6651373   8.0696690
  79.4453049  43.4124041   7.9028225  38.1516314  62.4729586  71.3627243
  37.9779553  62.1493912  70.4787731  38.1697345  61.6855907  71.9067383
  18.4981275  76.9619465   0.5863729  19.4527674  76.8975973   0.5589275
  18.3235598  77.8993845   0.6698345   5.4418111  20.7610822  39.1032863
   6.3456547  21.0755134  39.0825319   5.3838229  20.2520108  39.9118137
  72.6371908  68.4718513  69.0527487  71.9059134  67.8546762  69.0763664
  73.3883953  67.9650354  69.3610620  67.1745205  71.6309071  59.4067955
  66.4240503  71.0937023  59.1529369  67.4941397  72.0001888  58.5835648
  13.9320838  81.9000435  25.5590200  13.5127008  81.8335819  26.4168859
  14.6309578  82.5422192  25.6831789  17.4065447  28.4850979  27.3163605
  17.3322523  29.0916920  26.5796399  16.8975186  28.8945270  28.0159974
  61.9714308  59.8638487  57.7601290  62.5380182  60.3799057  57.1866369
  61.7134809  59.1112757  57.2278452  12.2211504  26.6616583   6.7766207
  13.1341696  26.6293240   6.4909941  12.2671700  26.9200706   7.6971298
  46.2204885  55.7321930  42.1138382  45.2683687  55.7399178  42.0156479
  46.4489412  56.6418648  42.3049927  68.9073133  70.2181149  61.6470480
  68.7859154  71.0981512  61.2906313  69.8380184  70.1748610  61.8664742
  58.8525343  49.6333694  43.9978123  58.1386375  49.3219900  44.5542574
  58.4556103  49.7334337  43.1325579  81.0624027  61.9339514  34.7960925
  80.9905052  61.7399454  35.7306647  82.0023727  61.9064713  34.6173930
   5.4797423   8.1109595  57.0765305   5.8396357   7.3547983  57.5401354
   4.6939394   7.7755547  56.6449642  73.6416292  14.2537642  51.5988016
  73.2373476  13.4690952  51.9690514  73.4447145  14.2059755  50.6632948
  72.0843029   1.2987781  69.2978239  72.6495123   2.0636299  69.4063139
  71.2055349   1.6633567  69.1925621  55.6203032   2.1817815  61.0169983
  56.0263681   1.6959698  61.7348671  55.1655245   2.9068562  61.4455748
  33.3951831  26.0107780  18.6929500  33.3927178  25.5463600  17.8559661
  32.7511168  26.7099452  18.5808098  63.0505705  52.4680901  70.3054667
  63.3994722  51.6579628  69.9337339  63.2387590  53.1350899  69.6452188
  73.6595631   6.7162323  44.3618488  73.2937717   5.9396398  43.9383698
  74.2630434   7.0803595  43.7141943   9.7339070  23.9696813   3.4809294
   9.1493702  23.4462714   4.0291911  10.2675056  23.3250308   3.0162454
  37.2633314  69.7631121  53.5684204  36.3958859  69.3619251  53.5153055
  37.8629112  69.0243196  53.6729240  24.5238328  33.5055089   4.8928204
  24.8985171  33.3381653   5.7575965  24.6755981  32.6958776   4.4052804
  86.9099140  21.4693284  69.3424082  86.0445309  21.0967779  69.1734266
  86.7398071  22.2243667  69.9056244   1.9649765  63.4409571  13.2133710
   1.6263126  63.9510870  12.4776363   2.8453591  63.7870121  13.3596742
  61.0239649  28.3213878  51.3310480  61.1021185  28.6536646  50.4367828
  61.5959644  27.5541902  51.3523483  55.6581354  60.3367519  56.6437817
  55.5602884  60.2975512  55.6924009  56.1238337  61.1577225  56.8030357
  14.6158373  81.8989182  38.4781981  15.3117180  81.2459183  38.5528612
  14.5721507  82.3025703  39.3450260  33.7446833  47.7657890  34.2356968
  33.9169717  47.2814655  35.0431466  34.2932415  47.3380613  33.5781527
  80.9439850  82.3990917  61.2556791  80.0306797  82.3087692  61.5275812
  81.4487076  82.0621204  61.9959021  17.2499371   5.6244433   9.5159084
  16.5971828   6.3150781   9.4011593  16.7644858   4.8988953   9.9085259
   8.3056974  73.2173443  36.1304593   8.5772520  72.7492046  35.3409433
   9.1140825  73.3343267  36.6295195  65.1411486  76.1296463  59.7355080
  65.0040150  75.1823616  59.7443581  65.9483433  76.2501431  59.2353582
  56.4368629  17.3898065  63.3940697  56.5897751  18.1152630  62.7886248
  55.5403900  17.5205970  63.7030363  29.5748019  35.0709009  17.0771861
  28.9982414  34.4170570  17.4725306  30.1123118  34.5744228  16.4600742
  32.3623180  70.1778793  46.9153547  32.2344947  70.6813717  46.1113739
  32.4157310  69.2681980  46.6223288  14.6909499  80.4569340   3.4326491
  15.5103695  80.9508610   3.4040117  14.8254085  79.7341728   2.8196540
  38.5213304  62.3614502  22.0434451  37.9581022  61.8868876  21.4320564
  38.0355644  62.3584986  22.8682208  83.0583954  18.6369252  70.3363419
  82.1410656  18.6077917  70.6081438  83.1694031  17.8627264  69.7844982
  11.2535274  64.8367929  41.1859703  11.9189763  64.2383289  40.8464813
  11.1235058  65.4738140  40.4834557  22.9627061  42.1118641  46.4322901
  23.1403899  42.8241301  47.0465660  23.3341813  41.3357019  46.8515921
  30.8398914  63.6172581  62.6174068  31.0171604  63.1806564  63.4505844
  31.6876221  63.9697361  62.3465824  47.9572773  77.5515652   5.5490166
  48.1388474  77.5567341   6.4888239  47.4724436  76.7392159   5.4032099
  21.7145252  79.2257977  24.4775248  21.3921857  79.0671444  23.5903049
  22.6499343  79.3953514  24.3657613  21.9666481  11.4709806  32.1896195
  22.3783326  11.8160760  32.9818678  21.4748526  10.7062578  32.4889040
  43.7480068  37.7123880  70.9401035  43.9543390  36.8348765  70.6181812
  43.6913061  37.6117325  71.8903065  14.2443120  50.1119518  17.2208047
  13.3820796  49.7821665  16.9677651  14.2695427  51.0049343  16.8770409
  55.3305531  68.4873629  68.3056831  55.1703882  69.3132210  68.7623405
  56.1202621  68.6484432  67.7893066  71.6146421   1.3901827  20.5160546
  70.8460569   1.7344135  20.0610662  72.0042706   0.7741189  19.8956609
  61.9415760  11.1546803  40.8731222  62.6495695  10.5330956  41.0422754
  62.2661209  11.9868267  41.2172651  22.2100163  78.8933134  39.7709560
  22.5581956  78.0605221  40.0894833  21.6826057  79.2258835  40.4972267
  57.2395706  65.7185078  63.6145258  57.6532412  65.2862597  64.3617010
  56.7801380  65.0154543  63.1553268  73.2892561  15.7058048  42.8287220
  73.7424946  15.1262188  42.2164440  72.8994131  15.1154029  43.4734535
  32.9640245  77.2077274  42.8861809  32.5321937  77.1841431  43.7401152
  32.7453327  76.3671494  42.4838972  80.2344513  36.0099602  14.1105294
  80.4176426  36.9421744  13.9937091  80.9084415  35.7078791  14.7193933
  59.5876980  14.6286738  19.3588662  60.0949669  15.0783360  20.0346732
  59.0061998  14.0441084  19.8450553  24.2623305  53.7942362  23.2383227
  24.6021962  54.3619776  23.9299798  24.1133261  54.3819618  22.4976444
  57.3510742  12.3278248  60.6847000  57.2846127  11.8996525  61.5382147
  56.4757729  12.2448182  60.3062963  37.3133802  29.1563630  13.1537724
  37.3770475  30.0909400  12.9569364  38.1719422  28.9275455  13.5097861
  45.3425264   4.5573759  58.4494448  46.2801361   4.3733084  58.5063219
  45.1452827   4.5091349  57.5140285  29.8797202  79.4743109  44.0470076
  30.3346801  80.2695465  44.3242121  30.4615831  78.7613392  44.3103361
  76.1930847   7.6323235  53.6272144  75.5190992   8.1369156  54.0825796
  76.5775537   7.0783925  54.3066072  40.5559444  72.7893734  62.9766417
  40.0915766  72.0870972  63.4320593  40.5252695  73.5293531  63.5830450
  82.3451328  30.3960299  18.7727940  81.8533421  31.2166786  18.7427235
  81.7897034  29.7669363  18.3123934  54.1570091  53.6279392  51.8725109
  54.9697590  53.7573624  51.3837099  53.8339758  54.5134878  52.0388889
  72.8029490   2.1894938  10.5889773  72.7853823   1.8635510   9.6891528
  73.1283045   1.4516401  11.1046815  36.1669540  65.6334305  46.5358925
  36.5409660  65.1852560  47.2945023  36.8385911  65.5581093  45.8580542
   8.6304212  76.2320423   0.7647361   8.6381125  75.9272671  -0.1426136
   7.9066229  75.7555580   1.1713211  13.6880827  76.0431814  46.8839121
  14.0521514  76.5148401  47.6330614  12.9768264  76.6023970  46.5714598
   3.3019900  52.5750399   3.4350732   3.4765399  52.8876448   2.5473562
   3.7599871  51.7361879   3.4879890  83.4411812  82.1922684  57.8838444
  82.5524330  82.5477314  57.8805304  83.6605453  82.0871544  56.9580650
  46.2162971  57.8211451  62.8556061  46.8321753  57.1096659  63.0309057
  46.7090368  58.4359884  62.3120880   8.1071478  58.9490509   0.9369354
   8.9252853  58.5798168   1.2694244   8.2856017  59.1353226   0.0151490
  21.2025595  75.6226873  48.8751841  21.1630464  75.1732302  48.0309916
  22.1378851  75.6897259  49.0672874  47.0183849  78.1108522  44.6648693
  46.8193245  77.2791386  45.0948238  47.9114676  78.0035591  44.3375683
  12.2170985  66.6279984  44.5728254  12.8252816  67.2876072  44.9063826
  11.3752830  67.0810366  44.5245218  42.2417164  72.4195719  46.2759781
  43.0483723  72.7682209  45.8965349  42.4178457  71.4865780  46.3973522
  47.6310968  62.9707193  70.2307224  48.3697605  63.2078362  70.7914209
  48.0122900  62.8819466  69.3571997  42.3911095  71.0936832  53.0247879
  41.5229893  71.3154125  53.3615828  42.3134804  70.1817942  52.7443266
  82.7590942  64.9089575  35.4966784  81.8348503  65.1380968  35.5942273
  82.9551029  65.0903702  34.5774961  28.6997771  55.9535933   7.5448161
  28.4514809  55.7880211   8.4543025  29.5710897  55.5664587   7.4601340
  25.9097600  61.3925123   8.8374221  25.8175802  61.7112350   7.9395622
  26.7075276  61.8119287   9.1597426   9.6117312  79.9634123  37.3648453
   9.3332207  80.8324814  37.6536250   9.4842750  79.4041395  38.1311321
  17.0131958  38.8844824  31.5806532  16.4418983  38.5316181  30.8984971
  16.4760256  39.5379734  32.0285726  19.1093767  53.0912971  33.5902047
  19.9597287  52.6538134  33.5484791  18.7632704  53.0275011  32.7000523
  29.2412353  25.5843425  35.7699728  28.5958481  26.2413955  36.0307169
  28.9638948  24.7852159  36.2179804  62.1567583  59.1578341  38.3510923
  63.0879211  59.3094826  38.1893063  61.7238569  59.9405575  38.0102420
  43.6641788   7.8941971  70.8807087  44.3306446   8.3173883  71.4219713
  44.1615629   7.3503947  70.2698755  59.9694014   1.6727322  70.9739065
  59.9339104   1.4337735  71.9001198  60.7003975   2.2876909  70.9130478
  24.1547132  72.6245260  13.8609350  23.7344074  71.8786669  13.4328389
  24.9653530  72.2670889  14.2233360  43.4420395   9.9982536  20.8026409
  44.2043686   9.5100713  20.4915738  42.6938105   9.5524848  20.4055572
  52.0542669  57.1200752  16.4680374  51.9759035  56.2359667  16.8264282
  51.3046169  57.2071552  15.8792448  42.7756691  67.4000549  14.8574126
  43.5625219  67.7516460  15.2739191  42.7798033  66.4701128  15.0841641
  38.1761742  59.8716593  37.9108334  38.2519460  60.3279305  38.7488723
  37.4079037  60.2620411  37.4941874  23.2493114  80.6994724   4.8705885
  23.3749080  80.4901600   3.9450368  22.2999644  80.6869316   4.9923027
  62.0030308   3.3476847  43.1130314  62.6558256   3.5391483  43.7864065
  62.4311447   2.7135715  42.5378370  80.0018024   5.9885103  52.2194386
  80.6669140   6.5754753  51.8598127  79.8165751   5.3731608  51.5100241
  67.0290565  80.5336666  66.3491392  66.7388582  81.3144398  66.8207359
  66.2742233  80.2804184  65.8177948  24.7181654  73.3507490  47.8636599
  25.4633689  73.6430788  47.3388290  24.2267442  74.1511059  48.0485153
  45.1519299   8.5348386  19.4137383  45.1755190   9.2648172  18.7950242
  44.9830818   7.7653742  18.8700044  45.1411438   0.0484497  71.5527916
  45.4806519  -0.3847151  70.7696390  44.8863220   0.9208802  71.2525225
  72.2687435  50.1956129  21.9292545  72.4772596  49.9597788  21.0253000
  73.0535507  50.6417274  22.2475171   8.7808698  80.7180023  41.6647911
   7.8911185  81.0579491  41.5698671   8.7124312  80.0567913  42.3535204
  39.0672469   9.7761464  37.1624136  39.4716215  10.5045557  37.6337242
  38.3906984  10.1858330  36.6232753  15.4051661  63.8677549  10.9395957
  16.0741043  63.7934065  10.2589893  14.6376288  63.4315109  10.5697179
  26.5174818  59.1424227  28.0483794  26.3910079  58.1971073  27.9670334
  27.4282980  59.2391634  28.3263803  86.0824108  67.5816774  62.7064800
  86.7316055  67.4779224  62.0107651  85.2510452  67.3445225  62.2956085
  64.2474079  56.2091255  28.3892608  64.9500895  55.5757046  28.5350561
  63.4499836  55.7451725  28.6443853  22.3601103  64.1055489  66.9256306
  22.7983236  64.1251612  67.7764034  21.4795804  64.4368696  67.1020555
  78.5410452  58.2601357   4.5745078  79.2651701  57.7176237   4.8868495
  77.8731632  58.1835604   5.2559018  76.0296059  21.7307639  67.9772425
  75.8771086  21.2722850  68.8035440  75.2813578  22.3212099  67.8893089
  54.8997927  69.1540766  46.4117241  55.7740164  68.7913132  46.2690115
  54.4537401  69.0413284  45.5723429  25.4593301  73.3729410  67.0056772
  26.3972402  73.5594654  67.0477343  25.4093361  72.4285746  66.8576717
  25.9626579  45.0960350   3.9730805  26.2301493  45.5061913   3.1506121
  25.0061154  45.0906038   3.9380214   6.6748899  11.6824341  68.1531334
   6.2271744  11.9740164  68.9473391   7.4775541  12.2032142  68.1257534
  32.8509593  76.7261839  55.8719015  33.5928631  77.1332932  55.4246044
  32.8954744  77.0645046  56.7662096  86.9701099   4.6566549  29.0732980
  86.0589695   4.3706125  29.0081882  86.9315243   5.4645354  29.5852280
  53.8624477  24.0339184  61.1837006  54.2062187  23.2234621  60.8079147
  52.9398346  24.0435934  60.9288979  87.8025246  53.9899588  49.6655178
  87.0101833  53.8158512  49.1574717  88.1884289  54.7614050  49.2505693
  36.7540121  62.6508141  34.6252871  36.3719416  62.7820587  33.7575150
  37.2670722  63.4432697  34.7834396   3.4333214  40.4997540  11.0894871
   4.1480255  40.9819603  10.6736684   3.7430125  39.5946765  11.1235464
  38.4337950   4.3489072  59.0792751  38.4562874   3.5135627  58.6124516
  39.0702629   4.2451853  59.7866535  42.2757483  70.9268808  61.8426991
  41.8278456  71.7170763  62.1447039  42.0918465  70.8912659  60.9040070
  54.7196245  75.3043938  59.9164343  54.9125242  76.1887312  59.6050358
  54.2975712  74.8751545  59.1722155  62.2453070  62.6262426  49.5731401
  62.0233011  63.2610178  48.8919592  61.8010235  62.9503965  50.3565741
  87.4531937  73.2102776  43.1899405  87.9076099  73.1740904  42.3482561
  86.7283440  73.8183689  43.0448389  27.8145123  82.4445724  67.1786213
  28.1181407  81.5369892  67.1968365  28.4148574  82.8859615  66.5777969
  85.4354191  28.4338546  41.8966913  85.4380226  28.8744617  41.0469341
  84.9520588  27.6218963  41.7439985  64.6034384  35.6882477   3.1121847
  64.6302891  36.6450715   3.1121615  63.7499094  35.4726005   3.4879634
  28.0098152  76.8826628   1.9651791  27.6336956  76.6150188   2.8037107
  28.2674026  77.7948618   2.0984657  18.8071406  45.1218653  18.2269228
  19.1826451  44.2512941  18.0952752  19.0586317  45.6120539  17.4441719
  57.7834511  21.0020781  64.8625469  57.9125214  20.8634782  63.9242744
  57.2711086  20.2456594  65.1481533  53.6359358  21.6108584  25.1506591
  54.4110727  21.4669704  24.6078086  53.2407427  20.7434940  25.2385974
  76.4304399   7.5570434  58.3718204  76.4103746   7.3780334  59.3119192
  76.3552332   8.5091233  58.3076382  61.2812948   3.7836060  53.8523912
  60.7962036   2.9584742  53.8438368  62.1507311   3.5537127  53.5245705
  59.5949936  11.6242254  52.4198294  59.7616053  11.9487095  53.3048058
  60.2556944  12.0558190  51.8781328  48.0992937  27.2113085   8.0792457
  48.3768415  27.5112057   7.2136474  47.2179127  26.8643641   7.9412919
   5.6499201  45.1183271  30.1126599   6.2371939  44.6064186  29.5565176
   4.8276120  45.1536942  29.6239972  44.1635036  75.5299616  61.5973330
  43.7955427  74.8653364  61.0150003  44.1650629  76.3319206  61.0747528
  43.2107687  81.5715694  35.6703639  43.4201097  82.1633625  36.3929915
  43.7365437  80.7900715  35.8407998  24.1118622  53.2118654  13.5191548
  23.4270954  53.5428762  12.9379845  24.9286199  53.5214329  13.1276071
  43.4063005  73.0047607  36.6681886  43.1292295  73.2548666  35.7867646
  43.7505770  73.8125229  37.0492768  51.9655561  81.4130783  49.9081230
  52.8492260  81.1052132  49.7066689  52.0446253  81.8202019  50.7708120
  34.0942216  66.1373091  68.1788158  33.4188461  66.3518190  68.8223124
  34.0210891  65.1901388  68.0615234   5.4189509  54.4492769  32.5349951
   5.5002129  55.3434515  32.2032118   6.3191670  54.1773319  32.7135682
  13.4207940  76.6016769  42.0340443  14.2419219  76.6071939  42.5259256
  13.6031508  77.1309376  41.2576008  78.3382559  57.0968628  43.7012243
  77.7506781  56.8847609  44.4264793  78.7144756  56.2551928  43.4437656
  65.6194973  77.2978020  52.3675156  65.6512833  77.2828579  53.3240700
  66.3031387  77.9183006  52.1148205  67.7421188  77.7295542  56.7435312
  67.6428080  78.6113882  56.3847256  66.8934679  77.3129797  56.5935659
  35.8878064  71.5276098  49.8888206  35.4151917  70.7149839  49.7085285
  35.7228374  72.0758629  49.1217279  22.5798154  74.8967361  15.9744692
  21.8796206  74.9973488  16.6193247  22.1231294  74.7634983  15.1438582
  78.7624741   1.8815361  67.8929663  78.7890434   2.0619987  66.9533062
  79.1867018   2.6398072  68.2945681  16.0200810  69.9362803   2.8918597
  16.8817818  69.6915531   3.2292181  15.6960642  69.1433382   2.4646799
  30.2523494  58.0514145  10.3346920  30.7401967  57.2662926  10.5833364
  29.3913770  57.9357433  10.7366621  32.1826482  59.9932051  67.9522324
  32.6682854  59.9817181  67.1274567  32.8052425  60.3386497  68.5919762
  53.8764095   5.4401749  37.9817772  54.7488880   5.3712726  38.3694196
  53.3936882   4.6976155  38.3448434  15.0623822  65.5258608  59.8766041
  14.2825508  64.9836206  59.7579861  15.5929375  65.0464392  60.5129194
  18.9568615  57.9097223  13.5441256  19.6272683  57.5033712  14.0933669
  18.2997131  58.2270098  14.1635740  47.3334646   2.2314329  56.5373802
  47.7021646   2.6719761  57.3030281  47.9964352   2.3409390  55.8556843
  63.3125305  33.9842772  63.8606358  63.1970739  33.3484507  64.5667696
  63.0673170  34.8230815  64.2511559  35.6499434  17.4818790  57.1767378
  35.9998322  17.6204157  56.2966156  35.4805326  18.3635592  57.5086594
  54.9419641  56.3530874  42.5148869  53.9905930  56.2481117  42.5046062
  55.2648830  55.5673075  42.9559135  55.9043694  65.5465746  29.9829865
  56.3380051  65.2873230  30.7959986  56.4364910  65.1527739  29.2916107
  83.6777592   7.5490439  60.7151842  84.4646358   7.2493327  61.1704016
  83.0909634   6.7929119  60.7280493  41.0437441  82.4147797  66.7357016
  40.8661222  82.9631901  65.9715462  41.8468857  82.7775097  67.1093559
  61.7101145   1.0944374  51.0900688  61.8960094   0.9578814  52.0190620
  62.2737741   0.4664879  50.6381893   6.3608223  26.9347477  -0.0126695
   6.8431646  26.1460900   0.2355135   5.4817104  26.7990303   0.3408485
   6.0714430   2.0110016  35.3816724   5.4644620   2.7418849  35.4983592
   5.7719839   1.5760943  34.5832920  56.0327673  61.2431145  66.8782711
  56.8907976  60.9091425  66.6165924  56.1603355  62.1875906  66.9672728
  19.2606997  39.7952390  27.0321369  20.2001500  39.6502805  26.9196606
  19.1579258  39.9875450  27.9641724  80.4419041  72.3269558  44.2600727
  80.2224159  71.7108202  44.9589539  81.3402843  72.1032429  44.0169573
  43.2770824  15.3752029  52.4553776  43.9807701  15.2061892  51.8288851
  43.4312248  14.7495735  53.1632328  77.1815681  23.0855775  26.2998772
  78.0901527  23.0564642  26.0001135  76.6642475  23.1053686  25.4947567
  31.0978365   7.9855728  63.6367798  31.5193653   7.2116321  64.0103579
  31.6657758   8.2400858  62.9095268  56.1557865  14.6459842  19.0684843
  56.5375423  13.8969684  19.5261645  56.0700846  15.3202307  19.7424853
  72.7349663  16.4211178  48.8142443  73.0007029  17.1598697  48.2666445
  73.3370590  16.4454877  49.5579672  81.1526394  21.5755463  67.7095795
  80.3091717  21.1656046  67.9012346  81.3817692  21.2554526  66.8370676
  87.7320766  64.6214724   0.0418161  87.9920864  65.2822256   0.6837095
  86.7810822  64.5608807   0.1322463  37.0141101  79.9916935  47.6229763
  36.7879248  80.7929802  47.1507215  37.6050591  79.5243931  47.0325184
  14.9577415  56.3515329  45.4746103  14.1609168  55.8212852  45.4864264
  15.3798604  56.1310673  44.6442842  14.3496561  54.4764709  23.7654734
  14.5800507  53.9087772  24.5009160  14.4908965  53.9332008  22.9901409
  64.4980097  59.0325880  47.9042673  64.1718435  59.6375608  48.5704899
  65.4173422  59.2739344  47.7910662  23.5200977  78.4423351  52.3699331
  23.4520602  79.3828344  52.5344419  24.0702963  78.1139851  53.0810595
  44.8012209  75.5387402  67.0511723  44.8367929  75.3269148  66.1183834
  44.6872139  74.6929741  67.4846697  46.3226414  75.7682276  45.9013510
  46.6373825  76.0720301  46.7527437  46.7145967  74.9012661  45.7965374
  26.9222713  28.0643582  50.2599955  26.2948394  28.7793994  50.3661823
  27.7221823  28.4912086  49.9531174  77.9846191  35.3814983  39.0306616
  78.2936525  35.7037783  39.8773408  77.0572376  35.6175232  39.0085316
  70.1796198  41.2680244   2.5891891  70.5878019  40.8073425   1.8561237
  69.2735195  41.4037800   2.3120843  66.4660597   8.8100243  67.8531218
  67.1990252   8.2003641  67.7676105  66.5003347   9.3390620  67.0561409
  41.0427284  11.4904451   7.4755746  40.7621336  11.9328904   8.2766628
  41.2849474  10.6094253   7.7608192  65.0045300   0.9684569   2.3064889
  65.5269194   1.1618313   3.0849159  64.0979624   1.0032949   2.6116979
  39.1977358  47.7426624  10.1585996  40.0250959  48.0356264   9.7766614
  38.5899687  47.7131796   9.4196934  44.7343111  39.3600774  60.3427410
  44.9965286  38.5745263  60.8227253  45.5469704  39.8524189  60.2269125
   0.9336960  18.4219348  46.3717079   0.5077025  18.9890814  47.0144415
   1.0487261  17.5879359  46.8271685   5.6487674  72.9444838  27.7399731
   5.1822835  73.3247471  28.4843016   4.9591064  72.7139473  27.1175146
  23.4621239  34.6565700  27.1470618  22.5886726  34.6491170  27.5385475
  23.8882184  35.4250216  27.5267434   9.1532832   8.0277574  62.3879480
   8.8556743   8.0015683  61.4785671   9.1237152   7.1154082  62.6760054
   8.6909372  36.7550778  22.1361852   9.0964597  36.7970514  23.0022240
   9.4074899  36.5181446  21.5474176   6.9527942  26.6295242  22.1031666
   7.3466206  27.4985337  22.0260024   7.6459312  26.0275269  21.8322563
  28.9261484  77.2457695  11.3028502  29.0429568  77.1324444  12.2461128
  29.3880105  78.0593491  11.1003518  60.7898617  81.6843414  65.7734632
  61.3293600  81.8701935  66.5419865  60.7499170  80.7287788  65.7342720
  56.3561296  24.5143700  58.4320116  57.2502279  24.8059607  58.2536936
  56.2642670  24.5906091  59.3817377   3.3063456  15.1009381  58.4179115
   2.9335997  14.2692661  58.1253147   4.2110917  15.0808239  58.1060457
  72.8956890  19.2333305  51.7267036  72.6713037  18.5703337  52.3796320
  73.8171387  19.0695047  51.5258932  30.1688933  47.2085190   5.0295502
  30.4151487  46.2938404   5.1672137  29.8460364  47.5005436   5.8820271
  65.1621485  70.3180218  57.9437208  64.9055099  70.4882097  57.0374060
  64.4788456  69.7389889  58.2814360  69.4817591  27.8660941  50.2537441
  69.1964340  28.5056067  50.9063101  68.7547588  27.8165913  49.6330595
  59.2652178  71.2153816  36.0241413  58.3622026  70.8982563  36.0091376
  59.6256113  70.8733892  36.8423033  33.8155460  14.7194028  41.6888094
  34.4312501  15.1413667  42.2880459  33.6246085  15.3883684  41.0313416
  39.8994851  78.9188957  42.9931116  39.0036702  78.6131859  42.8506804
  39.9052787  79.8121214  42.6491070  31.5411544  73.5254145  57.9848099
  32.2916865  72.9329872  58.0291557  31.7437744  74.1147137  57.2582436
  63.6865377  69.0504885  14.7327018  64.1729355  68.2889175  15.0483894
  64.3569088  69.6289492  14.3690872  87.1697998   6.1871022  62.8558111
  86.2768459   6.1115927  62.5194120  87.1448803   5.7427132  63.7032366
  43.6666870  80.6900024  50.9961319  43.5069990  80.0514698  51.6911221
  43.3915615  81.5264320  51.3715267  82.9783630  18.0794489  24.3159032
  82.8938007  18.9514446  23.9302802  83.9131927  17.8818798  24.2586684
  75.6266785   9.9708796  26.4839888  75.8659601  10.1468980  27.3939323
  75.3412676  10.8185685  26.1431146  84.4709969  36.4593720   5.3814882
  83.9919567  36.3646436   4.5582142  85.1930332  35.8348489   5.3116924
  82.9343891  74.6053123  50.3072166  83.1585312  73.8391590  49.7790146
  83.7107372  74.7608423  50.8451128  79.4949770  19.3242943  22.0222473
  79.2103720  19.8748291  22.7517295  78.6839867  19.0780842  21.5773773
  35.7483983  61.8444872   5.5640459  34.9938416  61.3586664   5.2310961
  35.6746101  62.7086067   5.1589769  82.0653820  48.7717247   7.0126247
  82.1643353  48.2372046   7.8004885  81.1631680  48.6192894   6.7315382
   0.7723092  63.4164286  19.5557606   1.5199214  62.8374958  19.7045648
   0.0741915  62.8339720  19.2564166  60.9325647  11.3964033  43.9515400
  61.4046478  12.2174215  43.8126135  61.4716434  10.9131539  44.5777178
  35.4869676  51.3927937  10.7460451  35.0034118  52.0434284  10.2370477
  34.9495935  51.2506819  11.5253162  11.3234746  58.8855839  11.3329399
  11.7278767  58.3520412  10.6488168  12.0595598  59.2005062  11.8575692
  85.1542568  18.2860804  65.6690741  85.8110332  18.6965728  66.2315464
  84.4976044  18.9685321  65.5301809  28.2788014  68.9904976  15.5657160
  28.4401703  69.6465826  14.8876691  28.3823538  69.4669056  16.3894546
  72.1280909  26.1224246  28.9640617  72.2327995  25.6720614  28.1259465
  71.2213898  25.9493017  29.2173553  75.3587294  71.3128376  56.7841768
  75.2065182  71.5546560  55.8706188  76.3117409  71.2976551  56.8723249
  84.7385979   3.1056675  49.4857025  84.2307758   2.2970831  49.4183493
  84.2391586   3.7451684  48.9779329  86.7966080   9.9882132  49.8290730
  87.6362038  10.3957200  49.6163607  86.3841915  10.5958211  50.4430389
  27.1377015  33.2605600  44.0474510  26.6391110  33.6374497  44.7724295
  27.3304033  34.0046144  43.4769392  17.8447354  47.6402473  23.5418940
  17.1034932  47.3454332  24.0709257  17.4532712  48.2023335  22.8732777
  28.2863617  51.1014366  70.5705166  28.7743592  50.9427214  69.7624969
  28.6561966  51.9129610  70.9182072  53.4345961   1.8359879   9.0180516
  53.3698082   1.5133077   8.1192124  52.6369286   2.3493221   9.1463208
  69.5747375  81.6157436  57.8632164  69.3755579  80.6891155  57.9971027
  68.7472725  82.0656681  58.0338001  80.0423145  49.5869589  69.3891525
  79.7981739  50.5087996  69.3064547  80.4388523  49.3676424  68.5460091
  43.3787918   6.3931531  15.4775691  42.9442739   6.9772691  14.8560917
  42.8855562   5.5746979  15.4220688  22.6265717  46.8936491   9.9335092
  22.8687549  47.5588369  10.5777967  22.0400882  47.3482084   9.3288231
  10.2114546  22.9014969  52.1954441  10.2234936  22.4299145  53.0283308
   9.2867500  23.0973244  52.0444298  54.7521353  76.5886259   1.1774549
  55.4101467  76.7800617   0.5091672  55.2561378  76.2647104   1.9239759
   9.4522059  21.2949562  70.0207663  10.1513791  21.9104433  69.8003912
   9.8303920  20.4321408  69.8511791  46.2012339  47.4612427  53.6240149
  45.8669758  48.2397032  53.1784773  45.4257584  46.9214201  53.7771845
   0.4566656  53.5352039  20.7213092  -0.4487721  53.7144136  20.4677391
   0.9437695  53.5512877  19.8974741  24.0477324   9.1577989  49.4179201
  24.1282010   9.8013890  48.7139702  23.5534620   8.4368044  49.0279293
  33.0393195  39.5764256  58.3470297  32.2592735  39.0537024  58.5328341
  33.6329007  38.9712143  57.9024935  77.3346663  79.2142010  25.9842920
  77.9073143  79.3491936  26.7393279  76.4812756  79.0067625  26.3649845
  13.3703613  48.6865568  57.0556450  14.1268671  48.1641340  56.7891741
  12.8082454  48.0712605  57.5264597  12.5893855  26.8359017  39.0296054
  12.6467931  27.1790338  39.9213433  12.6475704  27.6107407  38.4706140
  17.1140087   5.3477466  70.6240559  17.8548801   5.8417463  70.2729082
  17.4637198   4.9114037  71.4009333  52.2098112  78.9876413  29.2866135
  52.9792786  78.9787245  28.7173390  51.5755558  79.5348597  28.8234639
  25.3810048  33.2414699  57.2491121  25.5586219  34.1752648  57.1363688
  25.2941155  33.1267333  58.1954288  14.1640103  50.9341097  65.4202890
  13.3299673  51.3885641  65.3016376  14.1738486  50.2681923  64.7327662
  21.3700128   5.0432569  47.6351833  20.9247780   4.2881846  48.0197191
  21.2199926   4.9559563  46.6938543   5.5060744   9.1745043  45.8297825
   4.6534449   9.4257259  46.1849499   5.8596444   8.5569036  46.4699316
  10.0313199  56.1671829  45.6457663  10.3446031  56.8958616  45.1099300
   9.0846586  56.1557388  45.5045795  44.8072433   4.1424435  49.6819067
  44.4046688   3.3906132  50.1165533  45.3548145   3.7583259  48.9971781
  31.1585331  18.0896795  55.9602690  31.7479706  17.6175249  56.5483713
  30.6951547  18.7048042  56.5287161  64.9015427  40.2357674   5.9576499
  65.7361650  39.8831344   5.6489724  64.3665218  39.4625902   6.1370325
  15.5415618  40.8436346  47.7943897  15.6161344  41.7775440  47.9905558
  16.2841582  40.4437733  48.2470417  67.5257540  17.5784600  62.0559835
  68.1768274  17.9675865  61.4721060  67.8377628  16.6852820  62.2012949
  15.2315044  20.7252932   8.8597864  15.4336441  19.7899044   8.8802266
  14.5094264  20.8007169   8.2359707   1.9277528  14.3066716  41.1984491
   1.7106178  14.1990817  40.2724314   2.2752175  15.1963711  41.2611818
  43.5452843  47.2090006   1.0369825  44.2283535  47.0796919   1.6949560
  44.0031004  47.5915527   0.2884565  62.2859621  31.5456319  69.3610144
  61.7834902  30.7781267  69.0877199  62.3034477  31.4926291  70.3165865
  39.1556358  51.2816477   3.7003186  38.3649516  51.0082912   3.2352123
  39.0109563  52.2076082   3.8949841  39.9202561  32.4835300  46.8941498
  39.9879122  31.8240499  46.2036848  39.1687965  32.2056866  47.4179316
  30.0706077  34.5380473  26.4156818  30.5738616  34.8267174  25.6543422
  29.6999025  35.3431726  26.7770433  80.0553226  15.1246452  41.8866158
  80.5225849  14.9836659  41.0631943  80.2599716  16.0284364  42.1264315
  75.4077196  50.0484324  14.4862413  75.3436232  50.4705238  15.3429568
  76.0971498  50.5325031  14.0317225  67.9388571  63.9288473  34.0870428
  67.5093126  63.2183409  33.6107016  67.9253960  63.6465406  35.0015664
  84.7162914  14.1196287  63.1720304  84.5493221  13.4308684  62.5286341
  84.9738979  14.8787129  62.6489019  13.8411999  31.4437294  38.2591796
  13.7735009  32.3982930  38.2378769  14.3860996  31.2592721  39.0242243
   7.7046210  19.9619603   8.3778274   8.5531986  20.2809072   8.6851066
   7.7579862  19.0108585   8.4715742   9.6983474  25.8354425   0.7716152
   9.4362712  26.6562009   1.1886341   9.8218572  25.2258682   1.4992112
  79.8979902  71.6280890  29.0869069  79.7146702  72.3885632  29.6385455
  80.7119465  71.2676239  29.4387221  25.7490540  28.2698131  43.0799627
  25.9784174  27.6654553  43.7859201  24.8491359  28.0387402  42.8497744
   2.5757504  73.7114906  14.5661616   1.8610093  74.0426970  14.0223956
   2.9788682  73.0223370  14.0381503  83.8982391  77.0541859  17.3359823
  83.7544823  76.1847448  17.7096677  84.0248394  77.6232433  18.0951774
   8.2925314  52.7740812  48.0708170   8.2661033  53.6854458  48.3622932
   9.2170274  52.6083755  47.8862143  61.0485029   9.6210498  30.3350830
  60.4983187   8.8431370  30.2435470  61.5444708   9.4702983  31.1397719
   8.4262812  48.2099295  52.2004461   7.9999024  47.4844217  52.6565981
   8.4158999  47.9524279  51.2785912   9.2495567  20.6324959  23.7474298
   8.7922806  19.7916102  23.7539315   8.7542146  21.1792231  24.3573141
   0.4765261  19.3467963  18.4205604   1.2960050  18.9182782  18.6676586
   0.1820511  18.8708806  17.6440156  63.7613773  11.4434588  26.3566875
  64.6635675  11.2153757  26.5808916  63.8429308  12.1986377  25.7742047
   1.6136909  22.3350930  36.8245006   1.4579487  21.4025521  36.9739771
   1.7176527  22.7041578  37.7015495  62.2774363  40.6037188  68.8685036
  61.7426538  41.3448572  68.5839844  61.9192934  39.8536921  68.3937073
  13.0932236  74.1106272  58.3128309  12.8717732  74.4787979  59.1681910
  14.0484035  74.0487671  58.3187199  20.8833456  56.5104437   7.2043931
  20.9287953  56.1700678   6.3109112  21.7495871  56.3349533   7.5719023
  82.1820259  14.2025280  58.3799648  81.8332767  13.4522426  58.8612890
  81.5584564  14.3405545  57.6669884   6.5536863  40.7461023  52.5348330
   6.6769695  39.8110247  52.3715496   5.9519434  41.0319662  51.8475056
  75.6475401   4.6678823  57.9819202  75.5526066   5.2359837  58.7464333
  74.8259974   4.7728276  57.5020456   3.1792608   3.7282991  31.9913173
   4.0455842   3.4191561  32.2561669   2.5992519   3.4526303  32.7011251
  36.3619089  23.6432409  48.0439186  36.3343549  24.2123842  48.8130426
  37.2670603  23.3340907  48.0070353  54.5881653  67.5837326  63.5238457
  55.4099512  67.1283484  63.7069464  54.4886971  68.1995726  64.2498493
  25.8697772   7.8839117  65.7143641  26.6142464   8.4391791  65.9460449
  26.2557745   7.1580958  65.2240276  29.9549818  29.6191573  40.1686192
  29.4806552  30.2773428  40.6765938  29.9683094  29.9682283  39.2774391
  64.8837948  69.4491911  41.5253544  64.1911745  69.5838594  42.1721745
  65.0812101  68.5139990  41.5770102  38.5009813  37.3916268   2.8843790
  38.0959153  37.3254442   2.0196398  38.0628729  36.7193031   3.4061769
   7.2134972  32.3235559  25.8666348   6.4115894  31.8203092  25.7255077
   7.0702010  32.7740431  26.6989565  11.7517233  52.5389671  55.9465361
  11.5600574  52.6077080  56.8818235  10.8922005  52.5388145  55.5252838
  12.4047601  62.7416468  47.2472572  12.1554470  63.6578369  47.3683548
  12.1399570  62.5379181  46.3502550  18.4909093  38.1420159  48.3651781
  18.7906492  38.9900661  48.0377674  18.8664973  38.0779409  49.2432785
  22.0648336  15.6432521   0.9846675  21.7028403  16.5210211   0.8633687
  21.3174105  15.0573182   0.8652001  49.7877312  19.9634695  70.0200033
  49.0785599  19.3484175  69.8328590  50.3587389  19.9110377  69.2535639
   8.9944142  17.1572971  60.6997538   8.2093585  17.0007777  61.2245607
   9.7083694  17.1777201  61.3369989  10.2659035  28.0277443  24.2688131
  10.6123400  27.1790385  23.9932895  10.6458843  28.6532545  23.6518979
  33.5325980  14.2372108  26.4263368  33.4668589  13.2828283  26.4589691
  33.5022378  14.5108652  27.3430848  80.1514053  71.4132786  61.9474697
  80.4007244  70.6438351  62.4593544  79.3123627  71.1764765  61.5523052
  67.8023481  69.3368244  18.1486714  66.8916178  69.4248819  17.8675270
  67.7457619  69.1166830  19.0784931  85.5304623  14.4426775  48.0461597
  84.6688175  14.0280998  48.0022812  86.0932827  13.7830341  48.4515476
   6.5534347  10.1914847  55.4489422   5.8495188  10.7966638  55.6823778
   6.3012028   9.3624425  55.8555126  78.3548927  14.3732405  33.1192207
  78.3311319  14.9821544  32.3810530  77.5720358  13.8334477  33.0097294
  62.3560905  55.5033445  49.7633600  61.4122486  55.5829096  49.9014616
  62.4875736  55.7639217  48.8517475   6.8635577   4.0115964  71.2864780
   5.9432834   4.0918335  71.5372515   7.3166865   4.6574706  71.8284655
   8.1196392  45.3988647  40.9902477   8.2076138  46.1523676  40.4065323
   8.0767435  44.6444416  40.4026794  49.4330359  71.4641666  54.2740774
  49.8671818  70.8284235  54.8429155  49.1602087  70.9553480  53.5105991
   8.7941253  30.5708981  18.3297718   8.8498116  31.2133408  17.6223838
   8.1638330  30.9459257  18.9448464   9.0637076  27.7545571  37.0919442
   9.8772705  27.9098988  36.6121340   8.9232135  28.5586500  37.5918698
   6.8848467  20.9914708  70.2174282   7.7979064  21.2735534  70.2720594
   6.3796401  21.8021989  70.2784157  74.0947008  52.7304029  61.5881109
  74.4325876  51.9772482  62.0727015  74.1601086  53.4603310  62.2038698
  29.4463959  54.9379314  -0.1270552  29.9944466  55.6675853   0.1618652
  29.9712302  54.1580535   0.0534182  26.9942212  31.2443066  59.2582989
  27.5137329  31.4205575  58.4739017  26.1016560  31.4895296  59.0145254
  34.9775195  35.8279276  -0.1388614  35.6924558  35.6805253   0.4803058
  34.3002844  35.2048564   0.1245196   7.3438901  34.3816209  58.0115366
   7.2577703  34.7526073  57.1333647   8.1363785  34.7853017  58.3654213
   5.4396534  80.2356243  37.2408533   5.0575370  80.0290775  36.3878846
   5.7483649  79.3935394  37.5752497  74.5813322  40.0718689  30.1786065
  73.9746141  39.5967007  30.7463574  74.2509270  39.9185681  29.2934155
   2.9154941  20.2401233  66.9229317   2.7131176  19.5456290  66.2960720
   3.3178079  20.9296727  66.3948250   9.4006062  13.3117723  43.4123516
   8.5325408  12.9108357  43.3682537   9.2918295  14.0536618  44.0073299
  63.3801508  21.2095022  47.4300432  62.9325104  20.3635001  47.4186754
  64.0584469  21.1306047  46.7592764  74.0763426   5.0708818   0.5129884
  74.1112947   5.4696071  -0.3565103  73.4722710   5.6254804   1.0066971
  31.1579585  47.5912809  35.7698083  31.1310005  46.6498709  35.5987644
  31.6700602  47.9516792  35.0458622  28.8675332   3.7620249   9.1558379
  28.7515903   3.7772933  10.1058674  28.8393617   4.6829310   8.8962805
  32.1588922  30.4667974  60.1936960  31.6599274  30.9291005  60.8671522
  31.5546417  30.3951097  59.4547939  85.3891277  48.0786991  62.0273113
  85.1994133  48.9610195  61.7083120  86.3135147  47.9424810  61.8195009
  21.4169669  15.6761599  61.1064625  20.7874751  15.7717729  60.3917408
  22.1997404  16.1332524  60.7989502  17.0028424  35.7028842  48.6420059
  17.7993846  36.2280059  48.5645437  17.2744298  34.9265718  49.1317081
   1.5248485  25.7489777  23.7677217   0.9686297  25.0334287  24.0756893
   0.9406490  26.2987351  23.2455063  72.4526072  63.8752079  50.0067472
  71.8843508  63.3222055  50.5429506  72.6681995  64.6166945  50.5723858
  74.7572756  34.1519547  52.3509932  74.9109173  35.0838733  52.1955919
  74.9588633  33.7331724  51.5142059   0.7767323  44.9758244  63.8550901
   0.1750170  44.2335463  63.9116478   1.3904649  44.7343111  63.1613779
  65.7874632  24.9949098  46.8208456  66.1304617  25.8143187  46.4642620
  65.9082556  24.3580627  46.1165237  80.4872704   3.6853200  29.9231339
  80.2030468   4.3033594  30.5965352  81.3953781   3.9283961  29.7428846
  80.7938194  32.0086241  60.2962399  80.2916050  32.6983690  60.7301331
  80.4170513  31.9543862  59.4179821  75.4170513  67.6267433   1.1687075
  75.9562206  67.5829172   0.3790189  75.1656199  68.5478592   1.2362371
  28.7024641  23.3189416  45.3744268  29.2704654  23.9839268  44.9853230
  29.1601157  23.0491877  46.1706781  12.3333764  14.6623313  60.6388569
  11.5135777  14.1689837  60.6665754  12.8826594  14.1795862  60.0212193
  27.9010963  11.3058126  45.9580374  27.2263932  10.6378710  46.0799360
  28.4021592  11.2917328  46.7734957  67.2814417   1.2458187  53.9619970
  67.3398972   0.9616333  53.0498266  68.1917477   1.3215987  54.2480564
   2.0280211  35.4574990  14.0781033   2.0725161  34.7085810  14.6725535
   1.9141036  35.0685477  13.2109404   7.9020911  26.4741278  34.6851230
   8.3536953  26.3275218  33.8539839   8.3991283  27.1747160  35.1074529
  20.1875925  61.3020229   8.3043092  20.5680633  60.4697752   8.0235279
  19.4225025  61.4178181   7.7408713  83.6631966  73.3028460  45.3638363
  84.2042351  74.0739536  45.5338621  83.5697269  72.8826094  46.2187576
  59.3827820  76.8324900  28.7060928  58.8999367  76.4103508  27.9955339
  60.1458263  77.2217798  28.2789540  71.3962984  61.7843342  47.3198271
  71.1364317  60.8815002  47.5031042  70.5955076  62.2052908  47.0071602
  17.7939093  78.2521200  49.3113089  17.2416258  78.5775185  50.0221729
  18.5193563  77.8116989  49.7540140  16.7405093  11.6675901  59.5590687
  16.8781018  10.8345485  59.1081381  17.2084630  12.3093021  59.0247917
   8.5473055  16.7224002  25.6299043   8.1164265  17.0326424  24.8334575
   8.7608331  15.8076417  25.4459095   0.9942944   3.0894169  19.8197734
   0.7049961   2.2381474  19.4913244   1.6058852   2.8786704  20.5253053
  85.3155041  53.1394625  22.7978325  85.4245472  52.3827362  22.2218919
  85.9256172  52.9819441  23.5183740   7.0580453  23.4280372   9.8706609
   7.3582351  24.3206263   9.6991885   6.9370097  23.3941865  10.8195746
  82.2307682  29.7572970  60.9150553  81.6522408  30.3186059  60.3988504
  81.6372013  29.2038488  61.4226055  33.2421684  64.9854469  13.3039558
  32.5317979  64.5267916  13.7525594  32.8109384  65.4545736  12.5896800
  40.9174061  58.5957146   6.5834939  40.2283859  59.2240667   6.3674885
  41.7327785  59.0787935   6.4492029  65.3115320  71.6680479  49.5488548
  64.3918610  71.4048004  49.5151091  65.6946087  71.3028622  48.7512779
  17.8660274  75.1143265   5.8120197  17.8879416  75.5831099   4.9777576
  17.4812388  75.7384062   6.4273989  15.7833362  15.8701301  65.3910065
  15.9276259  16.8008029  65.5620575  14.8981202  15.7016909  65.7138872
  13.6072290  13.7069297  24.5505643  14.5045543  14.0401399  24.5473027
  13.6967003  12.7801228  24.7724986  27.9627657  37.7587771  63.7152004
  28.0117011  38.1593919  62.8472471  27.0249891  37.6810479  63.8905907
  26.0320926   3.4705111  51.2592220  26.1531067   2.5434920  51.4647055
  26.3680363   3.5640875  50.3678083  45.3101683  37.1018052  61.7923403
  45.8398581  36.5568614  61.2103605  44.5763302  36.5409160  62.0435667
  16.7731833  51.2717104  59.4854403  16.0430741  51.2880993  58.8666487
  17.5384152  51.0681438  58.9476538   8.7442869  19.2267966   3.8578427
   8.1162292  19.6722412   3.2891998   8.7619185  19.7554219   4.6556371
  22.9922509   2.5403160  37.8364110  23.0215096   3.3484218  38.3486032
  23.1170988   2.8257519  36.9313312  54.8600578  79.2637300  28.2997608
  55.5746317  79.0128040  28.8851237  55.0578260  78.8184834  27.4758220
  81.4245319  78.1128597  67.5065279  82.3444939  77.8793144  67.3826361
  81.0130978  77.3074770  67.8200960  61.5609884  25.1424980  57.8387785
  61.5259790  24.6439815  57.0223951  62.2705746  25.7709360  57.7054262
  81.7056847  42.2640228  55.5137730  80.9851170  42.4399948  54.9087524
  81.4912510  42.7724123  56.2959480  66.4563513  78.9927816  29.0832615
  65.5815983  79.3154716  28.8666868  66.3488293  78.5589170  29.9296832
   1.8401065  28.8917112  57.5171375   2.1732317  29.6502566  57.0376968
   2.6225072  28.4717560  57.8745174  15.1210833  19.1947854  37.4595213
  15.5494118  18.5084069  36.9480014  15.4867947  20.0110531  37.1186495
  30.1424909  64.8180389  70.5128098  29.2673445  64.5155573  70.7554054
  30.0950480  65.7713127  70.5852079  50.4680967   6.3649666  62.5997734
  51.2428617   6.0368979  63.0562210  50.8031321   7.0499128  62.0211220
  77.1559620  60.9544230  26.1586022  76.2230206  61.0966873  25.9985638
  77.5741720  61.1395121  25.3177238  10.4401958  29.6187329  57.7147055
   9.6900666  29.9820709  57.2440434  11.1909008  30.1149106  57.3883915
  29.7066355  50.4537106  62.3182058  29.9908662  51.0266876  63.0303431
  28.9897227  49.9425507  62.6936817  57.3050737   8.3818531  71.0839558
  58.0814314   8.5455048  71.6194153  57.6521301   8.1690699  70.2176380
  84.3549442  14.3957627  52.7614403  83.5904121  14.9676466  52.8297424
  84.7853565  14.4685328  53.6133146  17.3440135   1.8504283  54.4785976
  16.6076517   1.6868499  55.0678730  17.0224285   1.5901259  53.6154270
   4.5505312  56.6579628  66.1914825   5.3507006  56.1335182  66.1612320
   4.1287768  56.4042664  67.0124531   9.5282197  59.5934105  21.9805670
   9.1866577  60.4757118  22.1258640  10.4286599  59.7306156  21.6862631
   9.2431331  77.0820904  23.5854483   9.7802216  76.7665577  22.8586674
   8.5109055  76.4669800  23.6268306  29.2690182  47.1914625  32.6125193
  29.3711448  48.0357361  33.0518413  28.3984566  47.2312498  32.2165775
  40.8963203   9.1744435  48.8546181  40.1632452   9.2013979  49.4695234
  41.6602898   9.4069499  49.3823767  21.6264296  16.5635657  52.9513407
  22.0635247  16.3053524  52.1398592  20.7045960  16.6519988  52.7091932
  37.9395914  31.6895461  13.6790192  37.3510647  31.4947987  14.4083619
  37.9531121  32.6454377  13.6308300   3.9681989   5.7168585  44.1955328
   3.8517311   4.7745132  44.3165827   3.1303325   6.0975182  44.4588041
  67.5274181  78.8827467  44.9247456  66.8086481  79.5122814  44.9820709
  67.4599695  78.3683157  45.7291317  33.8021874  37.8033757  53.7559080
  33.6449790  37.2157717  53.0168295  34.4445252  38.4331512  53.4287739
  12.4150801  31.3115120  57.0703983  13.3157206  31.1237073  56.8061829
  12.4791849  32.1163678  57.5845242  34.5623589  22.8721166  53.0407047
  34.4515038  23.2599425  52.1726418  34.4529915  23.6052585  53.6463213
  16.4267015  47.0490313  66.0346794  16.9617939  47.1739292  65.2509022
  15.5250180  47.1362352  65.7254982  16.4774299  35.1760173  39.5093274
  16.2419331  35.1853228  40.4370594  16.9489241  34.3515611  39.3901634
  71.1265135  61.1350203  34.0514493  70.7850027  61.5818787  33.2769036
  71.8518114  60.6045628  33.7216115  57.4212265  32.0501637  61.7791224
  57.4049568  31.8022108  60.8547354  57.8925657  31.3371849  62.2100878
  26.2160039  18.1915069  64.5208788  25.3943133  17.7192807  64.6552706
  26.5842700  18.2861936  65.3993130   9.3025059  50.8974218  16.9203925
   9.4886053  51.8238735  16.7677855   8.7254351  50.8916712  17.6840603
  47.4688959  75.9368801   2.3650819  47.9090309  76.2501431   1.5749016
  48.1669760  75.8667040   3.0162290  85.0731277  32.0484328  60.1700020
  84.3618584  32.2336793  60.7831955  85.8382988  31.9051290  60.7269764
  68.0800200  37.2774839  42.7435732  68.0894041  38.0786824  42.2199106
  68.6437178  37.4738121  43.4918594  15.2789247  46.3946342  50.5443573
  14.9913824  46.4514828  49.6331406  14.5346034  46.7193508  51.0510874
  29.0638232  18.0663967  38.5590005  28.8378143  18.4266722  37.7014732
  29.0989137  18.8283920  39.1372442  45.1964808   9.4468302  61.3859510
  46.0232687   8.9900410  61.2310457  45.4554319  10.3383565  61.6191006
  46.3614607  40.8910704  64.5860481  46.4365244  40.0218105  64.1923666
  47.1456718  40.9770250  65.1281357  36.8367648  10.5990589  42.7342129
  36.1057830  11.2048209  42.8564835  36.4452386   9.8327351  42.3150587
  53.9246368  21.5558076  57.2412539  53.2241440  21.3624859  56.6182184
  54.3138981  20.7033110  57.4360943  83.3728027  40.5267477  62.3521233
  83.7991524  39.7423506  62.6973438  82.7436543  40.7751369  63.0294085
  79.8122406  32.2660184  37.9532766  80.7680893  32.2591543  38.0036759
  79.5685577  33.1707072  38.1492090  40.9089136  56.6549587  10.0612557
  41.6932774  56.9431353   9.5943910  40.9595203  57.0957422  10.9094191
  77.6295280  50.2740097  41.8973827  77.0122623  50.6961441  41.2998724
  77.5844193  50.7974720  42.6974964  24.7727895  27.1137667  35.7838035
  24.7245002  27.2928882  36.7228556  25.7104421  27.0789909  35.5945158
  20.5329013   2.5272664  62.3090744  20.1485348   1.7722553  62.7545547
  21.3368392   2.1889880  61.9147635  72.9887819  69.3986034   2.3398291
  73.2935953  70.2625799   2.6170814  73.1441402  68.8351774   3.0978823
  21.9302583  26.5437055  67.2483349  22.2862005  25.9234834  67.8846216
  20.9833455  26.4090419  67.2864676  28.5920358   0.8975015   7.0129114
  28.6286974  -0.0503974   6.8849444  28.5462427   1.0094047   7.9624438
   5.0548172  75.6762171  60.7183743   4.8679835  76.1841011  59.9288321
   5.9748423  75.4270077  60.6307316  25.1383567  79.3421793   6.2898332
  25.9653258  79.5857286   5.8738565  24.4647360  79.6840191   5.7019448
  49.5796824   8.1309783   4.2814729  49.3014860   7.8060740   5.1377881
  50.3888273   8.6106968   4.4586310  73.4104776  28.2190800  34.2733979
  73.2758141  28.5252929  33.3765507  73.5726452  27.2799611  34.1840315
  13.2034707  47.8133965  43.1670189  12.4012029  47.2934723  43.1192827
  13.0164576  48.4824610  43.8255072  32.6895094  49.5867300   0.5799939
  32.4906969  50.3672409   1.0972071  33.6457825  49.5488787   0.5614382
  26.8496990  37.6598668  41.0645056  27.4959445  38.1802487  41.5417910
  26.8512273  38.0278635  40.1808739  72.7435255  69.6178102  47.7748919
  73.5094309  69.9312925  47.2939014  73.0160522  68.7740993  48.1356096
   9.2044044  71.3180780   3.0910596   8.2939214  71.2450171   3.3772677
   9.5683545  72.0222855   3.6275899  34.9127674  78.1454086  54.9942636
  35.6667042  77.9702806  54.4311094  35.0634599  79.0297651  55.3280926
  83.6193371  17.7741420  29.9650240  83.2937336  18.2840180  30.7068086
  84.5687199  17.7553248  30.0856161  87.4657345  59.3314648  27.3940706
  86.6148186  59.5607138  27.7677321  87.8050041  58.6482334  27.9722810
  10.7017267  23.8232422  31.9658208  10.3179002  24.6944666  32.0651960
  11.2189519  23.8796091  31.1623693  12.2424531  60.2439833  48.9920473
  12.0506704  60.4678917  48.0813789  13.1881154  60.0967169  49.0084362
  36.9018054  54.8003435  16.9603086  36.7915297  54.0358591  16.3949502
  37.8349590  54.8080635  17.1733689  35.4969835   7.3170811  64.7521591
  35.1733804   6.8311816  65.5107212  36.3927603   7.5591570  64.9871302
  53.7609053  75.6357002  20.2883840  54.4821358  75.8602715  19.7004867
  53.3792019  76.4789629  20.5321956  11.9876456  19.0227973  25.0403357
  11.9320059  19.9621117  25.2159095  11.5837562  18.9157712  24.1791439
  19.0835857  42.8996468  43.5781336  19.6941519  42.4813175  44.1851282
  18.2397711  42.4886322  43.7659502  32.7226019  29.5839930  19.3129683
  32.7401161  30.4498410  18.9052534  32.5703192  28.9800406  18.5861373
  64.6956587   0.1545301  11.5040994  65.3657341  -0.5256446  11.4363182
  64.9474001   0.8049288  10.8484781   9.6396524  50.3699255  65.6645536
   9.7599262  50.6522512  66.5712309   8.6906153  50.3619719  65.5400658
  75.8954811  15.8041322  58.0909824  76.7054892  15.3570700  58.3364391
  75.4834604  16.0285163  58.9253187  32.6391387  40.8051252  27.9671216
  32.4384546  41.4637947  28.6320329  33.1205177  40.1262903  28.4400773
   0.6095656   2.4567546  12.9357290   1.0439886   2.6372844  12.1021116
   0.7219183   3.2604527  13.4433484   7.1419173  47.2408772  22.1619248
   7.4738818  47.5309420  21.3122797   6.5239739  47.9235363  22.4233747
  17.3347092  81.4267159   3.1176808  17.3682928  81.2836838   4.0635383
  18.0071580  82.0872879   2.9513103   2.7238300  35.7465386  58.9306974
   3.2700047  36.5307689  58.9846230   2.9326543  35.3674722  58.0769205
   4.3431237  42.3312378  30.8395982   3.5835674  42.7205133  31.2729216
   4.7627762  43.0635977  30.3881931  11.1831248  40.4986286  32.6970458
  11.7867029  41.1941481  32.4359417  10.5843556  40.9200668  33.3135653
  14.2412698  35.0329280  27.3513627  13.8626075  35.6587839  27.9687357
  15.0831854  34.7937107  27.7389002  59.4909954  58.2751894  43.9440107
  59.7644567  58.3412790  43.0290890  59.7524977  59.1097593  44.3330383
  33.0903053  11.0191691  57.9199457  33.0551434  10.7412243  58.8352299
  32.2785473  10.6863141  57.5372028  20.7837701  19.3407023  44.2204666
  20.0936246  18.8666379  44.6843624  20.4241037  19.4927275  43.3465338
  40.4921293  12.0157790  37.6092529  40.0474739  12.7908850  37.2661448
  41.2433720  12.3636520  38.0897212  11.3066924  20.0318766  50.1046562
  10.6532335  19.7407222  50.7406235  11.0704720  19.5800018  49.2945719
  13.1971788  44.9534845  16.9060230  12.4712431  45.1117849  17.5095046
  13.9753151  44.9485970  17.4634385  31.1121583  31.3084173  49.2019033
  31.9557643  31.2312531  49.6475554  31.1496568  32.1585870  48.7636852
  56.9813108  64.0943003  28.0303526  56.7576599  64.4930315  27.1893859
  57.6308012  63.4255505  27.8131604  23.4231830  47.6284313  68.5333443
  23.0235410  48.3494091  68.0468178  22.7399802  46.9592476  68.5741043
  87.9582359  23.7131453  21.8396807  87.0036333  23.7561893  21.8954730
  88.2105594  24.5331025  21.4151382  32.8840184  28.9356852  40.3514910
  32.0306468  29.0175891  40.7772636  32.7215075  29.1798759  39.4403434
  28.7202334  19.9147332  40.6229115  29.4097877  19.4552767  41.1021280
  28.0331588  20.0607729  41.2731695  71.8147230  21.4330530  29.0609646
  71.8385363  20.9040499  28.2635808  72.3446035  22.2027779  28.8536501
   7.0100641  59.0037489  56.6759205   7.7520043  59.2493200  56.1232424
   6.6699100  58.2023716  56.2780237  10.0888383   6.1950213  35.6725812
  11.0260570   6.2722737  35.4940152   9.8685408   5.3003645  35.4131770
  53.1937885  53.9816189   1.5861942  53.9062452  53.3443403   1.6362898
  52.5823402  53.6079121   0.9516058  22.1279836  29.8502946  28.5800862
  22.4440002  30.6175017  28.1028438  22.6926923  29.7985506  29.3512273
  10.4648972  33.9926100  45.7779741   9.8400694  34.7169232  45.7434320
  10.2647138  33.4664845  45.0037956  71.4102602   7.0255697   4.8724410
  70.5070639   7.3391539   4.9186638  71.3633728   6.1160135   5.1669592
   6.7126042  29.9825311  23.0789351   6.8941814  29.3980408  23.8148904
   7.2502840  30.7559681  23.2490206  62.7449942   8.9328992  32.8141737
  63.5536909   9.1588342  33.2737327  62.0510864   9.3274629  33.3424139
  22.9667997  21.3825703  26.9197941  23.1158280  22.2115684  26.4650583
  22.1915746  21.0133481  26.4967895  63.5972834  14.2225802   9.8986048
  63.8674498  13.3500564  10.1848626  62.6426172  14.2123234   9.9674577
  77.5889826  39.7030735  30.5288076  77.8022575  40.1717186  29.7218895
  76.6860104  39.4108057  30.4045177  11.6411042  23.1957006  42.0429802
  11.2583351  23.7696362  42.7065468  12.5099242  22.9822254  42.3832893
  12.7830267  49.8820400  31.1925316  13.2319832  49.3997526  31.8868446
  13.4654224  50.4255390  30.7986116  51.9721556  59.5070457  13.3931804
  51.7281961  58.7829971  13.9697814  52.9293394  59.5014668  13.3935523
  27.8771138  21.2680602  49.6530676  27.0727372  20.8101630  49.8970747
  27.9966354  21.9245100  50.3393745   3.6102298  16.8468201  43.8129330
   2.7572361  17.0915937  43.4541559   3.4203851  16.5560424  44.7049189
  87.2012329  34.4146657  26.1013150  86.5370655  34.3145299  25.4193473
  87.5448036  33.5309577  26.2326455  20.0463891   9.3240619  33.0515671
  19.2695999   9.6240884  33.5236025  19.7133172   8.6788481  32.4278736
   7.1004051  43.4940910  21.9540882   7.0055145  43.7755585  22.8640342
   7.9244608  43.8871050  21.6665030   5.6053394  39.1969514   4.9337986
   4.8161048  39.4740200   5.3991723   5.7079852  39.8400974   4.2323303
  16.5052104  70.7563019  29.3602991  16.5977407  71.3640118  28.6265731
  17.3985183  70.4665375  29.5454192   8.4952712  28.5823059  20.8514023
   7.7551961  29.1639304  20.6775260   9.0136474  28.6072850  20.0471044
  14.5822191   5.0076407   9.2429942  13.9742661   4.2989683   9.0322614
  14.2966926   5.3208840  10.1012397  65.6577253  22.8218007  52.0578623
  66.5105057  22.4692678  51.8034649  65.8634520  23.5265636  52.6720428
  15.2536392  24.5101547  45.2175188  14.3667626  24.1602659  45.1323128
  15.2927232  24.8484802  46.1120796  73.7943602   4.6800297  32.3154306
  73.4987259   5.1207691  31.5188265  74.3206692   3.9448643  32.0011592
  75.3402758  28.9966178  69.4016504  74.9308157  29.6075273  70.0143194
  75.4264498  29.4944453  68.5886478   7.5619310  43.2403326  39.4795680
   7.1061373  42.5001431  39.8803258   7.2117400  43.2839584  38.5897970
  62.9364729  41.3469887  53.6734295  63.8293934  41.5791893  53.4184599
  62.6052523  42.1253157  54.1214609  22.4586368  17.7864158   9.1841328
  22.2495723  16.9625342   8.7439710  22.2382045  18.4627819   8.5436875
  52.6477385  73.7708807   7.6307005  52.4371862  72.9194450   7.2473472
  52.9681587  73.5654688   8.5089761  21.9950366  40.5596209  51.9815731
  21.7175674  39.8829436  52.5991154  21.5446496  41.3514185  52.2755814
  37.8296804  25.5517793  46.0734034  37.0779395  24.9598551  46.0461664
  38.1142259  25.6196594  45.1620007  70.9339905  12.0312107  17.9626524
  70.3445911  12.6329207  17.5079131  70.4427576  11.7532742  18.7357461
  33.3105350  52.4224758  25.8232641  33.2244372  51.7309046  25.1670980
  32.4129295  52.5975847  26.1058807  84.6062565  22.1986938  28.1929445
  84.4981670  21.2599230  28.0404449  85.2617931  22.2544885  28.8882065
  83.9009571  16.1749041  37.7757311  83.8702965  16.4082611  38.7035418
  83.8558292  17.0133984  37.3162484  49.5514250  18.8539505  58.2296705
  50.0326729  18.6990225  59.0424585  48.7287664  18.3781445  58.3440018
  77.6259184  42.8802347  46.8044853  77.1397352  42.1017408  47.0761633
  78.5445595  42.6488543  46.9415522  75.6564903  28.8860726  37.6442266
  75.9927464  28.6387706  38.5056233  75.3344965  29.7799706  37.7604032
  14.4300830  22.4975896  52.9185295  14.5792425  21.6894817  52.4276686
  14.8394692  23.1799793  52.3865700  21.2409163  44.8507547  47.5274420
  22.1193123  44.5201302  47.7154303  20.6529164  44.1886282  47.8908539
  78.4690189  29.9869108  38.1524944  77.5168562  30.0218272  38.0608463
  78.7581825  30.8851624  37.9920030  30.6091332  78.2572031  31.7626095
  30.1854610  77.4906445  32.1487713  31.4866114  77.9539299  31.5296102
   1.0566291  49.6797228  65.8551788   0.4845936  48.9978838  65.5028963
   1.9380039  49.4098234  65.5971766  22.8110862  61.7309713  56.0958481
  22.8509760  61.1913729  55.3062439  21.8818545  61.9362020  56.1989975
  81.6651440  61.1143923  47.8353643  82.3763084  61.7538977  47.7964115
  81.7974472  60.6594276  48.6670685   2.4170722  40.9895277  49.0030384
   1.5217960  40.6818247  48.8615084   2.9447547  40.4834414  48.3852530
   5.7647216  26.4571881  42.5508356   6.5258312  26.4060473  41.9726276
   5.8345866  25.6819057  43.1078720  54.4779587  22.4671435  27.6993322
  55.1803255  22.8491068  27.1730113  53.7896872  22.2610235  27.0668483
  77.7126360  42.3257446  58.7777424  76.8817854  42.5185251  58.3432865
  77.6339293  41.4115572  59.0503168   0.4966617   8.6071038  62.5781202
   0.8521802   8.5508180  61.6911793   0.1673548   7.7270234  62.7604580
  82.4878788  68.8615561  69.9780798  83.0416393  69.5195961  69.5578814
  82.2810459  69.2344427  70.8350563  40.2351809   8.0551946  60.1022100
  40.9360218   8.6973941  60.2146387  40.1274300   7.9818076  59.1539288
  10.3815389  14.9779725  52.6261425   9.7085637  14.4273305  52.2259808
  10.0879669  15.0966680  53.5294485  68.5150051  40.0752640  34.1204047
  69.2403173  40.2442598  34.7217321  67.8619719  39.6225047  34.6540642
   3.4843209  52.5937033  65.1447630   3.5665318  51.8183708  64.5894861
   2.7268374  52.4109411  65.7006836   6.6328198  33.8705397  27.9053593
   7.0178854  34.5537758  28.4541249   5.6881982  33.9781046  28.0164981
  83.9605522  37.2722030  47.3360586  84.3873978  36.9310737  46.5501404
  84.5389938  37.9725623  47.6379347  55.4240513  20.3398466  41.3153744
  54.4872379  20.1815414  41.4317846  55.8062553  19.4660878  41.2335157
  57.2281027  64.9898624  32.3246980  57.9327869  65.6315184  32.4137425
  57.6746750  64.1432571  32.3165774  73.5234261  22.1625948  21.3599133
  73.9839935  22.6588154  22.0365763  72.7756214  22.7127028  21.1266804
  18.8809741  12.0886874  62.1181440  18.0542672  12.5429213  61.9554806
  18.8561189  11.8725324  63.0502844  16.7273641   9.2798108  24.9237657
  16.9248986   8.3694100  25.1437259  16.7515218   9.7396284  25.7629395
  82.2743416  81.8771076  63.4788513  82.6494408  81.1542416  63.9818335
  83.0274105  82.4152088  63.2347775  14.6728098  22.6123691  41.2618017
  13.8404357  22.7795315  40.8197165  14.8556435  21.6891837  41.0870695
   4.3482590  19.9976373  36.3057089   4.3978938  20.9370780  36.4824057
   5.2548116  19.6953595  36.3606858  78.6388588  48.5334396  28.8646388
  79.5510578  48.8052034  28.7633276  78.6765528  47.7856064  29.4609213
  30.0687551  74.8051071   5.8413762  29.4356561  75.4531717   6.1502910
  30.6823897  75.3066730   5.3046113  12.0942199  15.4558921  43.3222342
  11.6210234  15.0241864  44.0335321  12.9824483  15.5701935  43.6601925
  11.1047018  66.5026522  29.8267531  10.6479597  65.7848930  30.2654266
  10.5077934  67.2472525  29.9009514  40.8704948  69.9411249   0.9823079
  41.4558840  70.5272245   0.5026823  39.9920368  70.2667093   0.7860042
  25.4002213   9.7608179  54.8785019  26.2661004   9.5440596  54.5328140
  24.7886133   9.3521279  54.2660141  72.4189758  27.2004294  44.7595072
  72.4361515  27.7496171  43.9757156  72.6573467  26.3280225  44.4459534
  29.1153193  59.5674515  29.2146230  28.9648199  59.6659517  30.1547718
  29.6760988  60.3077888  28.9829707  76.7121744  62.3342180  66.6573715
  77.6627684  62.2223139  66.6662550  76.5822315  63.2645178  66.4733028
   5.0013816  48.8868999   0.5048005   5.6315219  48.7468624  -0.2019840
   4.1572461  48.9670849   0.0606873  17.9366755  38.3158422  54.0610647
  17.7701271  37.4802089  54.4971943  17.4771452  38.2450986  53.2243681
  49.7482061   1.2218849  39.7822714  50.0467014   2.0642376  39.4393778
  50.3069401   1.0612741  40.5427027  69.1936398  38.3280540  26.3445258
  68.3227110  38.6298394  26.0863829  69.1587448  38.2850742  27.3001242
  67.5958300  77.2716284  26.8808150  67.0867920  77.9926443  27.2512889
  67.7870607  77.5490236  25.9848714  38.2825947  17.9474616  33.2838202
  39.2022634  17.9384756  33.5490727  38.2996774  18.2315278  32.3699021
  20.8968234   0.7118910  38.7220645  21.7275906   1.0454549  38.3832550
  20.4146624   1.4950313  38.9874768   0.3714308  16.7922366  50.9299517
   0.5109901  17.2278678  51.7707729   1.1802617  16.3040650  50.7759619
  46.0194588   4.0626624  16.3963616  45.3465748   3.8765559  15.7415128
  46.8270111   4.1541135  15.8906734  23.7032533  38.0760312  23.3706069
  23.1671977  37.9338956  22.5904322  23.6894989  37.2348428  23.8271666
  85.6882000  17.0647466  60.3436899  86.5779018  16.7126286  60.3177452
  85.3435516  16.7825818  61.1909437  24.7738457  28.8971162  24.2493343
  24.3676043  29.1176748  23.4111500  24.1306353  28.3403301  24.6880865
  34.4875336  33.7490106  24.9835134  33.6149526  34.1289210  25.0860071
  34.8887634  33.8337612  25.8484197  71.8877220  12.7501428  40.8431339
  71.4682817  13.5425663  41.1783409  71.1611366  12.2001719  40.5501509
  82.9188156  34.8687148  40.9928894  83.2292938  35.7214904  41.2972069
  82.9422283  34.9320841  40.0380754   1.8251346  61.8612194  61.3417339
   1.4915289  61.8999720  60.4453897   1.1349996  62.2601843  61.8716145
  39.4713998  43.1508207  17.8125381  39.7716689  42.9929876  16.9174635
  39.6336603  42.3251009  18.2687092  22.2922778   2.4619153  11.5313733
  21.5490842   2.6832381  10.9702015  22.0841122   2.8646180  12.3744214
  38.6209178  27.4014544  64.9846649  38.1710172  27.3136210  65.8249664
  37.9694080  27.7948356  64.4041348  37.6930904  17.3468125  70.4943275
  37.3709416  18.1321502  70.0519514  37.9115963  17.6423693  71.3781452
  12.0788705  22.6967263  34.2349935  11.5966439  22.7989626  35.0555038
  11.4148140  22.7965569  33.5528684  66.4002657  67.8189516  54.8454809
  67.1325731  67.3806763  54.4120455  65.8326864  67.1054220  55.1369667
  79.9483252   9.3166947  47.6837397  79.8149109   9.0612245  48.5965204
  80.8993244   9.3331629  47.5761795  12.4931860  72.7324057  34.3558860
  12.4901652  71.8535423  33.9766502  12.1003985  73.2858849  33.6808944
  22.8864384   2.2697128  68.8741207  23.7608600   2.1204911  69.2337799
  23.0068088   2.2252235  67.9255629  36.1070156  67.8111219   4.5223135
  36.7142677  67.7362108   5.2584291  36.1308241  66.9506645   4.1036597
  69.3674564  53.8506603  61.8402052  68.6578751  53.5027742  62.3802996
  70.1050758  53.2638073  62.0068121   5.6999034  55.0939512  20.1729488
   6.5546727  54.7215557  19.9563301   5.8581448  55.6148243  20.9602737
  10.6643701  79.8430204  34.8037195  10.0079072  79.7743034  35.4969478
  11.4859462  79.5924568  35.2261710  26.4237690  11.4950931  67.1794271
  26.9723082  10.8473098  66.7370319  26.2866664  12.1799266  66.5248775
   7.3407823  35.3635311  25.2159119   7.9650289  34.7587538  24.8149228
   7.2412729  35.0450492  26.1130738  28.4364891  33.0754280  61.0004473
  27.6970768  32.6902890  60.5301571  28.0724406  33.3368206  61.8462467
  17.6783633  67.3185349  39.8561549  17.3560119  67.9933167  39.2586660
  18.4437609  67.7138805  40.2734089   4.8483568  55.4906178  58.1240797
   4.4235855  56.1019230  58.7258339   4.1511565  54.8896408  57.8614664
  19.3667674  45.5761814  24.2823768  18.7310827  46.2713766  24.1125345
  18.8491893  44.7710323  24.2737865  31.8365383  27.9979324  37.4475908
  30.9883642  28.1563377  37.0331788  32.2017622  28.8716221  37.5872707
  30.6569648   5.9209514   6.3491136  30.0623941   6.2975043   6.9979006
  30.7376456   5.0016373   6.6032487  42.3431096  23.4599196  71.6061252
  43.0942712  23.5155569  72.1967966  42.7064881  23.1216227  70.7877452
  11.5135217  49.1421366  17.0876050  12.0949388  49.0330744  16.3350821
  10.7377887  49.5743227  16.7302728  20.3938293  10.1593709  52.9125404
  20.3539038  11.0889947  52.6879597  21.1675978   9.8347223  52.4519777
  33.8518262   7.9965550  17.0405293  33.5672402   8.4447110  16.2440372
  34.8072004   7.9878068  16.9820905  81.6832542  36.1283374  50.2708149
  81.1317253  36.8498921  50.5731344  81.8222904  35.5903220  51.0502005
  76.9472742  17.0270693   6.1447930  76.7193413  17.4629128   5.3236228
  76.1324120  17.0210803   6.6469818  82.8674412  43.5393763  22.2270799
  83.3174896  43.2779837  23.0304217  82.4693584  42.7318716  21.9019628
   9.7592872  26.3651943  44.6325350   9.6912068  25.7800174  43.8781023
   9.0592289  26.0808396  45.2201509  47.0513725  55.5699682  58.2040167
  47.9023266  55.5112600  58.6383724  46.8416786  56.5038729  58.2132435
  34.7972727  41.1480761   5.7937545  35.7334375  41.0464811   5.9655339
  34.3718958  40.5999422   6.4531732  29.3992662  81.0083294   4.4043073
  30.1868725  81.5285873   4.5631522  29.0386772  81.3618183   3.5911345
  82.8312969  73.1166029  42.6962852  82.1651173  73.6158323  42.2238398
  82.7070332  73.3597565  43.6137056  23.5229087  41.9259405  54.5336056
  23.5846114  41.2198305  55.1769066  23.9765978  41.5871525  53.7618399
  33.7265110  51.1985683  23.2313514  34.6163106  50.8510017  23.2920527
  33.2272482  50.5047846  22.8005004  40.8840084  28.2346702  59.6979475
  40.9401035  27.7736878  58.8609409  40.0189209  28.0075765  60.0389528
  60.4743099  78.2321358  35.4163408  60.6966925  77.4209785  34.9593854
  60.4705334  78.9000082  34.7306538  22.5845885  79.7835255  20.8022451
  23.3934021  80.1221561  21.1861467  22.0492387  80.5616093  20.6466150
  33.3422661  17.6465034  23.2280278  33.4178424  18.5339630  23.5786510
  33.0634785  17.1168041  23.9749742  38.5670996  59.8349953  49.3640471
  38.4037423  60.4743624  50.0574112  39.3832922  60.1259804  48.9573717
  72.7249146  74.8169565   3.6961371  72.5416517  75.4743052   3.0249143
  71.8634033  74.4821835   3.9450541  16.1845195  56.0733271  31.9815183
  15.3714883  55.5727291  32.0494390  16.6214943  55.9356308  32.8219485
  67.0762873  10.9371436  36.5388274  67.2849035  10.5881965  35.6722569
  67.7148819  11.6370022  36.6753078  36.8059897  15.0982702  63.0149221
  35.9315705  14.7453892  63.1795454  36.9606733  14.9309480  62.0852423
  28.7528682  71.9023609  36.1151052  28.2820058  72.7338028  36.1718249
  28.5298681  71.4450264  36.9258761   9.6622545  41.5921259  50.6716108
   9.4805330  41.9841003  51.5257549   8.9412320  40.9783506  50.5314684
  26.7583799  28.4100461  58.8375330  26.8602753  29.1900229  59.3829536
  26.1177063  28.6642575  58.1733465  37.2800899  28.8487911  68.8891268
  37.1109867  27.9204464  68.7284565  37.1168184  29.2714190  68.0459404
  67.0432997  28.0846906  62.4170446  67.4786615  28.4189296  61.6328430
  66.2220621  27.7130389  62.0950699  45.2646255  41.4824200  51.9739199
  45.4659891  40.8955336  52.7027845  45.5204630  40.9912443  51.1931992
  18.8413382  53.4919071  65.3669214  18.6574638  53.8610649  64.5031261
  18.2114685  52.7773142  65.4610157  10.6495047  53.8120556  43.7675285
  10.1661527  53.0354452  44.0494537  10.1033473  54.5477343  44.0445089
  15.7513261  27.7993369  56.7331791  15.4046416  26.9239974  56.5604925
  15.9773660  27.7882385  57.6632404  59.7496700  69.7436571  38.7570548
  60.0247955  70.2243757  39.5377254  60.0984001  68.8613033  38.8838148
  59.9357271  77.0021486   6.5406632  60.3868246  76.8838024   5.7047594
  59.0136623  77.1007490   6.3033730  61.5826416  50.4798651  67.2244215
  62.0047474  50.9750986  66.5224218  60.9736872  49.8956203  66.7726851
  53.3609438  11.3584185  67.9157495  52.6946402  12.0295155  67.7677441
  54.0295124  11.5345931  67.2537756  50.7428408  40.9436321  60.0630856
  49.9061394  40.9673214  60.5274153  50.5029011  40.8399343  59.1422653
   1.9369349  16.9369709  41.7448616   2.7708542  17.4034560  41.6882706
   1.6078502  16.9247675  40.8460903  83.6205101  43.8238382  66.3884735
  83.8132954  43.1236362  67.0119953  83.2936001  44.5428085  66.9292498
  14.7830760  40.8614683  24.1400242  13.8944244  40.8776474  24.4953680
  15.3454304  41.0435724  24.8929048  84.2701912  26.0731959  41.7900610
  84.2648220  25.5612373  42.5988293  84.8847675  25.6123567  41.2189627
  28.9065099  56.8912697  36.0654449  29.8326898  56.8379641  36.3011980
  28.8399148  56.4037895  35.2443767  12.0209777   2.2921245  12.9351795
  12.8709066   2.7261949  12.8614557  11.4803565   2.9067862  13.4313166
  37.6165080  50.4645014  38.7251234  38.4235764  49.9686670  38.8630557
  37.4762607  50.4353142  37.7787018  25.7653880  49.3377113  63.1365824
  26.6606450  49.0137196  63.0377245  25.2491570  48.8029003  62.5334978
  18.6195993  20.4903316  59.8574066  19.3151867  20.2160215  60.4550219
  19.0808964  20.7855630  59.0723753  10.9128952  49.1972017  55.5950594
  11.6825175  49.2365217  56.1628294  10.2545559  49.7249079  56.0471058
   2.9130977  23.3318496  26.1766195   3.4957898  22.5752139  26.2414575
   3.0174819  23.6380386  25.2757406  78.2107544   6.3598466   2.5465673
  77.8858328   5.5894893   2.0805126  77.4417591   6.7094511   2.9967389
  32.9002500  43.2043314  30.0418806  32.4461412  43.6726761  30.7423568
  33.8287187  43.2934999  30.2568793  20.8430004  48.9174652  32.4962711
  20.7115269  48.6591864  33.4085417  20.5602884  48.1566715  31.9888282
   6.9618344  26.2012959  50.4408121   6.4711577  26.4249110  49.6499491
   6.6018611  26.7758465  51.1164904  37.6396585  70.6404734  71.1506128
  38.0254912  70.5563211  72.0225525  36.7801881  70.2262878  71.2280178
  16.4236999  46.3389111  46.5847588  15.8289957  46.4155054  45.8386421
  17.1002388  45.7291889  46.2901926  61.8153191  23.2022476  60.5053377
  61.6209745  23.9035678  59.8835564  62.0381498  22.4504185  59.9563980
  39.0916800  60.2475166  25.6137919  39.1379118  59.2928171  25.5624294
  38.7780762  60.4247570  26.5006208  72.7758837  40.2718449  37.0712590
  72.7804232  40.4671240  36.1342025  73.7014914  40.2236891  37.3103666
  17.3610747  32.5871825  34.1415524  18.2716334  32.8509140  34.2740679
  17.2247517  32.6630783  33.1971550  67.9716539  24.9463344  16.5709829
  68.8260841  25.1224422  16.9649005  68.1660223  24.7527337  15.6539381
  10.3301799  41.8033743  70.8352041  11.2392259  42.0679474  70.6942415
  10.3909326  41.0172796  71.3779688  68.7193775  33.8602901  46.8597889
  68.2599545  34.6829247  46.6911697  68.2106781  33.2008052  46.3880539
   9.4289446  59.9568892  61.5289021   9.3754530  60.6291342  62.2082138
   8.5648125  59.5451832  61.5307903   8.0242378  44.4663477  50.6350613
   8.3680236  43.7876749  51.2159634   8.6369103  44.4852257  49.8998690
   7.1087533  46.9969606  47.3569298   6.3080955  47.4663687  47.1227646
   7.5030917  46.7621374  46.5169334  22.7697086  47.9116392  45.1062536
  22.0013022  47.3438501  45.0479937  23.4371114  47.3691034  45.5263233
   8.7195045  66.4156246  67.8255224   9.2868078  66.6893101  67.1047640
   9.2982984  66.3842630  68.5872602  34.9142623  64.9890184  27.3395681
  35.8027840  65.3450346  27.3362446  34.9398494  64.2872763  27.9900551
   1.6416259  34.7880960  38.9208746   1.8361351  34.0585375  39.5092106
   0.7070130  34.7017169  38.7330723  15.8139849  33.2706189  55.7277107
  15.4081893  32.4069905  55.6521463  15.8976102  33.5758305  54.8243380
  72.0600510   6.2888134  68.2513475  72.8076887   5.8748746  68.6825418
  71.2948179   5.8625203  68.6372471  14.2879832  41.9703531  51.0224199
  14.0197694  41.2728453  50.4242802  15.2345419  41.8590212  51.1110926
  45.6692314  54.7985172  71.3428688  46.2418985  54.6070385  70.6001568
  45.8997202  55.6915379  71.5990353  51.9756413  71.3948011   6.5524095
  51.9635963  70.4378366   6.5699852  51.2414455  71.6538382   7.1092635
  38.0490398  25.4543495  43.4297895  37.0950794  25.5306506  43.4105873
  38.3627415  26.3567090  43.3700418  14.1271842  51.7804384  54.8142433
  13.9061856  51.0644293  54.2186594  13.2937396  52.0215797  55.2185392
  18.1191444  35.0125551  51.7627811  18.6919260  34.3387938  52.1291161
  17.4039829  35.0883102  52.3944759  35.2730417  50.3521061  16.4294195
  34.6526098  50.9883642  16.0737967  34.7579312  49.5534945  16.5439522
  52.0185614  40.7467937  14.6614492  52.8551817  40.7266378  15.1260865
  52.2060823  41.2201977  13.8509190   6.3870907  61.3500595  52.2513294
   5.5295360  61.0730982  51.9286442   6.1905044  61.9230127  52.9924822
  13.1823814  59.1948509  46.1526632  12.3192680  58.9099884  45.8524656
  13.7736368  58.9628839  45.4365349   6.9106185  39.7055316  47.2040892
   7.3553509  39.3374300  46.4405775   6.9514996  40.6526279  47.0715570
  30.2354503  36.6771626  56.7624426  30.7443690  37.3735118  56.3473129
  29.8891902  37.0766854  57.5603867   0.4215333  79.8408651  59.8432255
  -0.2594879  79.4178915  59.3202209   0.2798647  80.7778549  59.7082710
  27.7558756  71.9808388  23.7302160  28.1737232  72.2488785  24.5486236
  28.4811497  71.8741894  23.1147194   0.4003950  77.0416117  33.8652444
   0.8070616  76.2646866  33.4815168   0.3141698  77.6528788  33.1337047
   4.5671692  39.9219894  59.8736858   3.8628250  40.2621412  60.4254341
   4.4818735  40.4048395  59.0516043  53.2111788  71.4967203  -0.1340665
  53.7101364  71.3042450   0.6597995  53.3115578  72.4406624  -0.2570854
  14.2169547  59.2565107  12.1209526  14.0175164  60.1884413  12.2101820
  15.1622570  59.2269278  11.9734430  23.4746003  38.6554503  50.3459358
  24.3895411  38.7056994  50.6226778  23.0164886  39.2686033  50.9207439
  54.1131973  73.4362507  43.9884472  54.6583986  74.1060877  44.4011307
  54.2474747  73.5633183  43.0492687  26.4995193  57.5399351   0.0799344
  25.8769107  57.1662378  -0.5437166  26.7213440  56.8129253   0.6617232
  26.6148257  48.2607317  48.3135319  26.3326192  48.5932350  49.1656065
  27.5498033  48.4622288  48.2755041  22.2876477  23.7656069  64.2622662
  21.9520974  24.6480632  64.1044474  22.6834512  23.8119555  65.1325655
  38.6934376  78.9810610  45.8792496  39.6468902  78.9537621  45.7991505
  38.4274936  78.0616045  45.8891821  27.6578283  27.6307750  36.4858174
  27.3554969  27.8621745  37.3640442  27.9971433  28.4501624  36.1256790
   4.7737062  67.9493141  34.8077106   4.7830501  68.8105774  34.3901300
   5.5030286  67.4792480  34.4035363  12.8281665  42.0177174  28.1396484
  13.3435893  42.6759005  27.6734233  13.1588137  42.0464325  29.0374660
  59.3017197   4.0103185  43.9751101  60.2163601   4.2490971  43.8245916
  58.8493586   4.2788526  43.1754303  59.6313334   2.7127028  13.0404210
  59.3255711   2.9483363  13.9163303  60.2291536   3.4195888  12.7972031
  29.0793228  36.7789030  27.2777724  28.4308600  37.3265719  26.8352938
  28.7764573  36.7344236  28.1847048  71.0070086  46.8572664  52.4755144
  70.1217699  47.2073984  52.3755550  70.8919048  46.0583401  52.9900026
  20.8463383  74.9737215  52.4195623  21.2587786  74.1408396  52.1905756
  20.6478763  74.8941946  53.3525753   7.6853031  45.0893497  55.3913832
   7.9780453  45.9242439  55.7567406   7.5507432  45.2691221  54.4608974
   1.7153412  46.8824244  39.0513778   0.9863717  46.3698196  39.4007635
   2.2662404  46.2407112  38.6031079  30.2526426  61.8420982  48.3716202
  30.0775528  62.6001215  48.9292765  30.5144596  61.1518717  48.9809418
  19.7202504  27.1989298  46.0499525  20.1332664  26.4537597  45.6136322
  20.4481173  27.7787280  46.2741756  20.9897494  45.1032925  39.4864583
  21.2188101  45.5339146  40.3100681  21.8173122  45.0435591  39.0091681
  51.2364340  13.4788966  48.3730507  51.0641527  12.5518501  48.5377789
  52.0976877  13.4919584  47.9555559  38.4416199  18.4975350  46.7269993
  37.7433777  19.0723979  47.0404053  38.9810896  18.3324075  47.5002623
  85.1663685  32.2822642   3.9409626  85.6894493  31.4806986   3.9304337
  84.5824051  32.1970987   3.1873271  19.5205641  64.5518589  66.8918085
  19.6680009  65.2113152  66.2138653  18.7925875  64.8977900  67.4081564
  20.1299691  65.8893251  42.8770971  20.4758310  66.5451288  42.2716761
  20.7931042  65.8244324  43.5643196  55.0696325  41.0558033  71.1335802
  55.9011698  41.2225056  70.6897449  55.0140905  41.7383099  71.8024111
  18.4091866  56.5225458  63.3231258  17.8662837  56.2744331  64.0714121
  18.3656347  55.7684946  62.7351236  79.7854042  40.0492573  60.6230974
  79.9550533  40.9738350  60.8036566  80.0180531  39.9386334  59.7012138
  23.1407690  36.3810849  39.5928097  23.4097409  36.3029408  40.5081129
  22.6764369  37.2170305  39.5501542  32.5225949  79.7960472  61.1249828
  32.8188038  79.5553923  62.0028067  32.3496699  78.9596272  60.6928587
  36.9874978  33.2124567  32.3713350  37.7626371  33.6790466  32.6838779
  36.6944456  32.7022219  33.1263256  10.7681727  10.9070909  23.9435840
   9.9525636  10.9621537  24.4415593  10.6452978  11.5152562  23.2147002
  47.7781963  58.7113380  55.3579712  48.0944014  57.8718853  55.0239611
  48.5737944  59.2055082  55.5555725  59.8704958  22.4017978  47.7135754
  60.0744724  22.1646094  48.6182117  60.4982090  23.0920267  47.4995804
  43.2462931  46.5177727   5.5770326  42.5693083  47.1541691   5.3469950
  42.9238701  45.6876659   5.2260411  25.5467343  62.3070431  42.1663713
  24.8730135  62.4750185  42.8252459  25.1737452  61.6218805  41.6116953
   2.1228294  70.9723234  46.3736248   3.0743444  71.0324335  46.4586973
   1.8578255  71.8285751  46.0377169  23.7246180  50.2020073  34.5896125
  24.5427585  50.2790165  35.0804758  23.0826426  49.9126244  35.2379608
  85.6128597  54.3285322  70.9875298  85.3237724  55.0544453  71.5404367
  86.3414288  53.9363098  71.4687586  22.8595448  30.7993078  31.0578156
  23.1186080  31.2267184  31.8741703  22.7447987  29.8791265  31.2951636
  13.9124429  80.0038052  57.9695320  14.7638655  80.0688267  57.5369978
  14.1167855  80.0216293  58.9044952  14.5684242  36.5712619  52.7837706
  14.2524099  35.7748699  53.2105350  13.7899482  37.1213746  52.6966858
  35.1028705  56.0458994  40.2352905  35.8352232  56.5743732  39.9181056
  34.4956064  56.0100555  39.4962525  76.8248177  58.4192324  34.6408176
  77.6497364  58.0201960  34.9174166  76.2738466  57.6788092  34.3869734
  49.0726185  78.0827713  49.2213106  48.3096027  78.2637119  48.6723995
  49.8065233  78.4746790  48.7479973  68.4239435  64.9352932  22.3911643
  69.0230417  65.6816578  22.4072528  67.6821136  65.2349091  21.8656659
  64.8201799  50.1545000  21.2421298  64.8476839  51.0387468  21.6076207
  65.6283903  49.7433710  21.5487123   2.7941692   7.4954551  24.5643640
   2.2070315   7.0307845  25.1606727   2.2750953   7.6264274  23.7708664
  29.5038271  65.2111244  36.6956615  29.8028874  65.2930307  35.7900763
  28.9626765  65.9873056  36.8403196  64.1776276   8.4566766  49.8250914
  63.2612371   8.7325716  49.8437357  64.6400690   9.1277981  50.3270626
  66.0381699  62.1393108  54.4348097  66.9569397  62.0042849  54.2027187
  66.0593653  62.8126907  55.1147652  61.0651636  76.7223120  39.8696733
  61.3001966  76.9527340  40.7685041  60.8670616  77.5602770  39.4515872
  20.1853728  60.4448605  45.4563093  19.9190259  60.4257631  44.5371103
  19.3619502  60.4676104  45.9438419  34.0642095  66.0232639  19.1315329
  33.6272717  65.6079054  18.3880341  33.3491206  66.3184595  19.6952164
  84.9770069  65.3596735   1.0269784  84.6728611  65.3999567   1.9336781
  85.2563286  66.2533569   0.8281219  20.5361819  57.3201656  69.1163445
  20.0323820  56.8136549  68.4792709  20.7092023  58.1529427  68.6772776
  37.0846772  65.4011631  40.1798248  37.0793891  65.2514267  39.2344236
  37.8934669  65.8871365  40.3408289  15.1052201  25.2895594  56.4615154
  14.6834445  24.6364331  55.9031582  15.4208708  24.7919059  57.2157955
  36.4975548  81.8125439  58.9062119  37.2670984  82.3817158  58.9151144
  35.8064365  82.3378658  59.3094873  38.5725498  70.7389641  20.3638124
  39.0109825  70.9492922  21.1882973  37.8829765  70.1223326  20.6097412
  67.3537683  81.7929173  47.3472166  66.7237997  81.6280556  48.0487776
  66.8266582  82.1444702  46.6297245  38.3437681  33.0447268  51.7309093
  38.4890008  32.2296619  51.2504864  39.2205000  33.4071541  51.8582726
  30.7657218  56.8259192  71.2929535  30.7366633  57.7637243  71.1034393
  31.6950655  56.6011524  71.2479258  62.5346994  62.5585413  31.7097092
  62.6383018  61.7998695  32.2840953  63.4279251  62.7898836  31.4550304
  62.5056124  49.5607615  54.8253918  63.2658482  50.0612783  54.5291615
  62.7063799  49.3353891  55.7337618  47.1552944  67.4759245  20.5404878
  46.5275860  66.7707062  20.6982183  47.1687555  67.5761461  19.5886433
  45.1938486  55.1718998  22.9648495  44.7151470  55.8583117  22.5001812
  46.0939741  55.2520132  22.6492715  65.0766659  60.0758266  29.0429306
  64.6601772  59.3892479  29.5638657  64.6925449  59.9814034  28.1712842
  85.6049728  70.6549501  28.6563420  85.0846004  70.3596735  29.4035077
  86.5065002  70.4338503  28.8900018  61.7310572  70.6402493  52.0206928
  62.2541571  71.1508846  51.4027548  60.9099245  70.4727554  51.5581799
  29.0774226  61.0387135  38.4125233  28.5730910  60.4712629  37.8295326
  28.4713435  61.7419910  38.6455464  69.1932535  20.0069523  35.3372097
  69.5192146  19.1111803  35.4242229  68.5965872  20.1176739  36.0774541
  36.9752026  64.2761660  37.6125097  37.0940828  64.7935295  36.8159962
  36.4495277  63.5260391  37.3346496  32.0167542  59.8937654  11.1144209
  32.3948550  59.9467802  10.2366614  31.3213491  59.2406273  11.0366106
  44.7722578  70.7963514  37.3502135  44.0863562  71.3554096  36.9852114
  45.1580286  71.3187075  38.0534601  43.5460520  57.1091652  21.2591267
  43.9976597  57.8825855  21.5969181  44.0571976  56.8489742  20.4927969
   8.8792330  11.7848480  56.4547586   8.8523078  10.9821343  55.9340286
   7.9725832  12.0914555  56.4692688  60.2760601  72.0066738  40.4438639
  60.0266171  72.8678846  40.7790232  60.8093357  72.1954298  39.6717095
  63.0780363  44.6000051  42.9178953  63.5050631  44.3121338  43.7247467
  62.4601936  45.2739763  43.2012081  35.2954316  68.9055443  23.9039493
  34.8690557  68.1781721  23.4507704  34.5796490  69.4995403  24.1299033
  32.5933719  57.1820736  18.8406730  32.3478723  57.0992470  19.7621393
  32.7950215  56.2878180  18.5652161   0.6430093   5.8833408  55.7124138
   0.5409334   4.9909741  56.0433102  -0.2294696   6.2691563  55.7908916
  60.2857780  69.4152546  71.1968184  60.3829384  69.2155886  70.2657270
  60.8082056  70.2065325  71.3278770  65.1639271  73.5960150  32.5866270
  64.7251272  72.9549170  33.1457996  66.0929251  73.5011339  32.7968550
  28.9469910  68.3607435  33.4042692  28.9381456  67.6378870  34.0316701
  28.5019422  68.0127001  32.6315904  72.6272535  14.0670657  26.2734413
  73.3112478  14.0826917  26.9428706  73.0555391  13.6959672  25.5020237
  17.7328122  10.5348897  53.8159180  18.3736491  11.0679507  53.3453798
  18.1163239  10.4100168  54.6839952  75.7380724  11.7745829  61.1966705
  75.3842211  12.5587833  60.7770872  76.4012861  12.1055543  61.8023443
  10.8549452  65.0388670  16.9264591  10.7736814  64.9943781  17.8791642
  11.5971637  65.6243992  16.7764688  57.1725750  71.7483711  51.4266348
  56.4065456  71.9097519  50.8758259  56.8095541  71.5534449  52.2906113
   4.3922421  50.4010344  52.2179174   3.9265886  50.9206963  52.8731680
   5.2386141  50.8379316  52.1230173  36.7869759  77.4820852  57.3539019
  36.0344505  77.9101133  56.9455767  36.9196916  77.9605007  58.1722784
  33.8840175  52.7532291  33.7682724  33.9159870  52.3734236  32.8902316
  34.8018456  52.8857279  34.0054822  54.6468496  44.9992466  38.9704347
  54.1459084  44.1873169  38.8925815  54.3765306  45.5208540  38.2147360
  18.0845821  80.5007172  60.1885843  18.3992994  79.7270012  60.6560755
  18.1579590  80.2676773  59.2630863  52.8501415  68.3507442  56.1087465
  53.7024593  68.7752438  56.2066412  52.8669405  67.6313734  56.7399836
  25.2066875  75.1848078  18.7928307  25.6506062  74.6027756  19.4096041
  24.7794867  75.8389282  19.3458736  17.9579473  77.4948502  21.4766645
  17.1028888  77.7795362  21.7992496  17.7784467  77.1343946  20.6082845
  69.4338417  72.9450893  60.6056070  69.4897461  73.8814783  60.7960844
  68.7176085  72.8713131  59.9748898  30.9998322  59.3491554  49.7225094
  31.4951372  59.7008991  50.4622269  31.6523743  59.2296124  49.0324879
  38.9632702   0.5315515  59.6699905  38.6837864   0.1602396  60.5067968
  39.4436479   1.3244483  59.9082851  68.7036753  35.1150918  27.3908830
  67.8494978  35.3655863  27.0389414  69.2197227  34.8772883  26.6205740
  55.6484604  71.5219593  19.1527963  55.9716320  71.4168835  20.0476456
  56.2587309  72.1387672  18.7486291  33.9215970  14.3731701  14.0733838
  33.0365610  14.2142737  13.7452173  33.7956738  14.6320033  14.9862802
  61.6188812  62.6660442  57.9322338  62.3934603  62.7616930  57.3780632
  61.4835691  61.7204475  57.9935932   8.1097358  38.2614398  68.0599928
   7.8295237  39.1642118  68.2107162   7.2975355  37.7832961  67.8928375
  87.1558666  82.1332359  31.2596798  86.2476826  82.1493053  30.9577322
  87.0920849  82.1830177  32.2134542  68.3850956  47.5132561  52.1716738
  68.2476902  47.5846958  51.2270880  67.6110983  47.9230642  52.5579691
  30.7470369  74.3807602  50.0205517  30.3564787  75.0088787  50.6281424
  30.0376129  73.7710714  49.8174953  15.0957036  51.2952328  57.3698235
  15.0189948  51.6657782  56.4905930  14.4127154  50.6256771  57.4079800
  10.5133438  49.1643858  49.8142767  10.8784795  48.9006758  50.6588840
   9.9099249  48.4581804  49.5832062  18.7009108  64.7177887  28.3796430
  18.7713969  65.2070761  27.5599718  18.9682353  65.3415632  29.0546799
  62.5475597  79.4599390  21.0122776  63.3353710  79.1483641  20.5667400
  61.8400955  79.3001747  20.3876185  70.4073811  64.1794109  42.6536322
  70.8937645  64.9325991  42.3184156  69.6259832  64.5586586  43.0558968
  56.2014866  54.1086245  48.6134768  56.0741997  53.1901360  48.3759832
  56.5051126  54.0815353  49.5208454  23.5437012  41.0570145  13.8267791
  24.1482282  40.5370569  14.3563306  23.5926414  40.6662893  12.9543293
  59.3317890  39.8619819  55.9143019  60.1526546  40.3507853  55.8552599
  59.5267391  39.1373515  56.5085554  50.8744192  49.3862200  36.7008090
  50.3639126  49.1044044  35.9417343  51.5844631  49.9106407  36.3306046
  78.7658548  38.8159442   1.4431740  78.3721399  39.0460634   0.6015898
  78.0859327  39.0128279   2.0875126   3.8606539  66.8263245  69.5499992
   4.1448599  67.5375795  70.1240826   4.5425287  66.7719698  68.8804293
  41.4693880  78.6702585  64.6138763  41.3581181  78.3348036  65.5034399
  42.3700905  78.4428883  64.3830776  58.5998011   4.4505200  40.8588266
  59.4417238   4.2343888  40.4579735  58.1142902   3.6255926  40.8558130
  68.6625528  16.4255726  37.4302793  67.7829695  16.6325092  37.1144605
  68.5427570  15.6544507  37.9845810  51.5073729   3.8580525  19.0938437
  51.4564514   3.4555793  18.2268643  51.9474792   4.6947649  18.9440072
  43.4584284  67.2707605  48.6979961  43.2230949  66.3483810  48.7983370
  43.8765764  67.5028276  49.5271683  39.7466683  62.0119619  35.3840303
  40.3026199  62.7042437  35.7416511  38.9575720  62.0348597  35.9253573
  25.4495215   9.7410131  59.6458817  25.1721644   9.8173529  58.7329340
  25.3946900   8.8043535  59.8353386   2.3088062  74.1074514  21.9601989
   1.7520651  73.5454464  21.4212918   2.9896581  73.5223675  22.2923923
  16.6445804  50.3128624  25.2322674  16.2918055  49.5498514  24.7744536
  15.9208333  50.6205463  25.7779336  18.9494550  47.4932384  50.3293324
  18.3524084  47.9649210  49.7485685  19.7487855  47.3845577  49.8140717
  68.0945301  18.4598720  40.5234575  67.9853725  17.5098765  40.5661535
  67.2726202  18.8110399  40.8660555  43.7170315  70.6907225  41.9895458
  43.9436007  69.7612619  42.0211983  44.2735243  71.0494947  41.2982941
  86.1784458  33.4013534   7.4968678  85.5750847  32.8724289   8.0188155
  86.5301895  34.0427566   8.1142092  54.3230772  70.1184559  65.0137281
  54.7696638  70.7841825  64.4906616  54.3679047  70.4489517  65.9109402
  58.1077814  14.4460511  16.1657739  57.4553919  13.7479782  16.1082196
  58.5569668  14.2862511  16.9957924  65.6213284   0.7637418  31.8337965
  65.0886869   0.3773601  31.1386466  65.0283098   0.8276761  32.5824451
  60.9324837  67.1651506  50.8215332  60.2283859  67.8115129  50.8734465
  61.2297535  67.0616770  51.7255020  38.2426000  57.1978903  10.3713226
  39.1857004  57.3409128  10.4509425  38.0369735  57.4517202   9.4715887
  12.4937618  33.4625459  35.6060648  11.9326580  34.2180300  35.4310226
  12.8770256  33.6426330  36.4645004  60.0905418  71.2834454  53.9986706
  59.8297167  72.1675539  53.7406778  60.7010174  71.0050249  53.3160067
  84.6825981   8.2105225  10.6917298  84.9441624   9.1272038  10.7783937
  85.4364777   7.7838117  10.2845192  74.5531940  58.9831066  47.1328259
  73.9418364  58.9416885  47.8681898  75.4075336  58.7935734  47.5206566
  47.0841980  50.5712795   4.9468246  46.3050270  51.0112238   4.6068636
  47.3570585  51.1082697   5.6907433  22.9354262  58.1364584  15.9989643
  23.1857896  59.0583086  16.0601223  23.0092001  57.8082752  16.8951130
  46.3899565  46.8134499  46.4255571  46.8439579  47.5728083  46.0601902
  45.9132242  47.1595526  47.1799850  13.4493291  77.7951956   1.1468387
  14.0526319  77.4564648   1.8082888  12.6226664  77.9133177   1.6147168
  33.3313441  52.5157118  36.4739227  32.3909044  52.3548126  36.5508437
  33.5052657  52.4744701  35.5335593  26.3963270  67.8360987  13.9202356
  26.9251370  68.2095194  14.6253216  27.0158052  67.6977205  13.2037640
  26.7197156  63.7932491  28.0954576  27.1441793  63.2751894  27.4115920
  26.9605279  64.6977139  27.8949952  51.3014889  74.4894981  33.6963272
  51.7859459  75.2190638  33.3099699  51.9189978  73.7582397  33.6831546
  40.3274584  47.0960760  71.6487932  40.6969976  46.3250351  72.0791054
  39.9891400  46.7666006  70.8161974  60.2980423   2.5958279  25.8434939
  59.4501257   2.7447063  26.2619448  60.6411886   1.8107426  26.2702560
   4.8293138  46.7853880  60.7450628   4.5937318  47.5697756  60.2496147
   5.5330545  46.3829803  60.2360964  58.8012028  59.8441648  56.2810326
  58.9107990  59.3356895  57.0845699  58.6711740  60.7433176  56.5824413
  52.8437901  52.5311232  48.6018133  53.6497068  52.1931744  48.2112741
  52.9168653  52.3106766  49.5304108  29.0677762  73.1202364  25.6948924
  29.8870635  73.4311581  26.0800242  28.4697437  73.8636780  25.7716203
  25.6351900  49.7340202  37.3689461  26.5616298  49.8244143  37.1458578
  25.4607987  50.4608393  37.9669094  18.3949482  45.7723570  40.6279230
  19.0044451  45.0633860  40.4227209  17.7164376  45.7069159  39.9559307
  35.4312325  48.7413645  38.6750889  36.1813831  49.1475391  38.2408929
  35.6987500  48.6616135  39.5906806  37.5705600  62.1085644  17.2615385
  36.8534350  61.9385815  17.8723311  37.1647763  62.5979996  16.5459764
  39.6321893  14.9089253  70.1499033  39.6890950  15.3980935  70.9707022
  39.3612194  15.5591774  69.5018435  37.8404284  19.9776542  55.2077627
  37.3848534  19.7523403  54.3966436  38.2264614  19.1528964  55.5026913
  86.6794682  10.3544998  34.3884897  86.7131805   9.5952064  34.9703574
  86.9859886  11.0834134  34.9278975  85.3314686  52.1365881   0.2717015
  84.4265175  52.4456263   0.2293470  85.3887653  51.4688587  -0.4117354
  46.9024563  42.4952126  45.7869673  47.1213150  43.2260561  46.3650656
  46.0353136  42.2118998  46.0768461   5.9919178  29.5694613  31.7590547
   6.8758732  29.7058535  31.4180946   5.5993527  28.9346552  31.1597657
  61.8934584   9.4248623  57.6420259  62.8443718   9.3650454  57.7337742
  61.6700602  10.2777779  58.0146646  78.3831501  60.6183624  14.1899025
  77.5675440  60.9174013  14.5918953  78.1179571  59.8992920  13.6164558
  47.0983553   6.9185585  27.5730824  47.6480436   6.6608733  28.3131337
  47.7016211   6.9649613  26.8313622  31.7446566  76.2792301  53.5644865
  32.5047421  76.0537863  53.0281305  32.1118784  76.4946032  54.4218016
  59.7706079  80.8932114  49.1073322  58.9375639  81.2493801  48.7984419
  60.4026365  81.1432838  48.4333611  15.6076670  19.9100649  40.8260775
  16.3829851  19.5214939  41.2312031  15.6938004  19.7019732  39.8957491
  76.9781923  76.2102795  14.0151274  76.9423962  76.1573124  14.9701905
  76.5227413  77.0250654  13.8031971  54.1119766  51.4907646  64.5916748
  53.1847334  51.3968134  64.3734455  54.1146660  51.8015003  65.4970312
  57.0078087  49.9275446  19.6923268  56.3222790  49.6040249  19.1078508
  57.8259516  49.7063160  19.2474329  69.0505457  13.0049253  49.5370245
  69.5331860  12.1946537  49.3734741  68.3358097  12.7448297  50.1181746
  43.1975937  50.4201460  25.0269294  44.0219879  50.0239706  24.7446990
  43.4572077  51.0837650  25.6660271  79.0067005  38.5975623  37.5642824
  78.6738110  39.4747829  37.7537537  78.6784792  38.4011817  36.6868234
  -0.2275486  11.8157065  39.2265821   0.7024746  11.9963610  39.0900254
  -0.2572079  11.3160765  40.0425005  79.0332079  46.3802767  70.9516573
  78.9152098  45.7621384  71.6729164  79.1171741  45.8281040  70.1743031
  33.2735825  62.5530672  59.4011831  34.0169835  63.1473064  59.5034933
  32.5160217  63.0667496  59.6812963   8.2045531   1.5255859  50.2619410
   9.0658754   1.2545079  49.9443340   7.7668303   1.8847422  49.4901657
  38.0448389  34.6502137  57.7382755  37.6765823  34.2237639  58.5120678
  37.5678945  34.2654300  57.0029545  74.5202732  65.7163954  29.5792627
  74.2378664  65.0371695  28.9667821  75.1918125  66.2044287  29.1027236
  74.9930620  62.8281879  57.5374603  74.2125416  63.2990456  57.8295422
  75.2220392  63.2382345  56.7033958  60.6503057  79.1058016  30.0546622
  61.1589670  79.1880035  29.2479801  60.0081635  78.4219646  29.8642659
  41.7067289  16.5566921   3.0285457  41.1654758  15.8352506   3.3491737
  42.1637011  16.1943150   2.2695383  51.1883450  42.9517603  67.5207281
  51.8216801  42.2374725  67.5907850  51.7246580  43.7421799  67.4587584
  44.0769196  53.7632799  46.9335890  45.0059080  53.9559174  47.0605087
  44.0677500  52.9510975  46.4271164  55.4569006  51.5782928  48.2306099
  55.9497356  51.2208700  48.9692497  55.5391836  50.9157181  47.5447130
  73.9444971  80.9714794  68.7886667  73.9246702  81.7506695  69.3442774
  74.1187334  81.3083649  67.9098129  52.0171261  69.7882366  28.8911986
  51.5263271  69.3561697  29.5902467  51.3451099  70.1818419  28.3346939
  42.5335836  65.4325724  31.3536787  42.0471621  66.2024450  31.6485047
  42.6444340  65.5653477  30.4122353  35.2834702  64.6020031  61.0505009
  35.2276111  64.7021341  62.0008087  36.1967182  64.7990084  60.8421755
  83.8664341   0.9044275  20.5501008  83.2117844   1.0483195  21.2334466
  83.4642792   0.2629886  19.9643946  72.8147316  10.7230830  29.1649652
  72.5150013  10.4746604  28.2905054  72.4753761  10.0360739  29.7386289
  45.6437254  62.6468134  38.8846540  45.5236816  62.7443218  37.9400301
  46.4534521  63.1210995  39.0734076  27.7627444  35.0813580   7.9823416
  26.9773602  35.2890515   8.4885681  27.5867796  35.4361320   7.1109039
  76.6325474  66.2644243  49.9862146  76.3842106  66.0718489  49.0820742
  76.3275003  65.5065346  50.4849958  74.8351288   0.6190899  53.6338854
  74.5484781   1.3486771  54.1832161  75.7874393   0.7078103  53.5956430
  56.9744158   5.6087041   7.9885727  56.3695049   5.2544928   8.6403763
  57.7597141   5.0677413   8.0716628  63.0378866   4.1091204  45.8769464
  63.9518166   4.3535295  45.7312298  62.6619148   4.8553577  46.3438606
   1.0481878   5.4118180  18.3483911   1.0619980   4.4936061  18.6184430
   0.2244025   5.5086017  17.8706443  60.2521372  60.2619267  70.0362444
  59.7640228  61.0606527  69.8362112  60.1188850  60.1284885  70.9746838
  22.4195433  49.7905445   2.0045142  21.4811826  49.9005890   1.8508816
  22.4856663  48.9833832   2.5147566  38.3450580  56.8854237  50.1229620
  38.5240173  57.7645731  49.7893476  38.0431056  56.3957930  49.3579006
  56.8313169  47.3546267  26.5890646  56.0687494  47.2721624  26.0164189
  57.3825550  46.6053724  26.3632536  64.5897150  77.6097202  20.6662035
  64.1446590  76.8358660  21.0116148  65.4673481  77.5709057  21.0463166
  40.4686737  67.2339773  47.0522070  39.7164440  67.8188372  47.1434212
  41.2056828  67.7355433  47.4007463  52.9820824   3.2494685  47.1624851
  53.4659958   2.5225395  47.5544500  53.6499071   3.9099228  46.9779682
  50.9635210  70.6658506  39.6831512  50.8223629  70.4893589  38.7530136
  51.6702461  71.3112116  39.6999216   7.0409006  36.4245939   2.6825166
   7.4992782  36.1271453   1.8966123   7.5416631  36.0509968   3.4077013
  46.6045618  68.4939861  26.0746694  47.1550655  68.9572716  25.4433680
  46.2124491  67.7800179  25.5719471  34.0002871  76.7199230  48.6970663
  34.0627527  75.9823179  48.0902147  33.8327146  76.3160133  49.5485401
  36.3953924  71.4641142  59.9530363  36.0480976  72.3040199  60.2533293
  36.1831284  71.4369535  59.0200615  58.0153036  75.1291132  38.5207844
  58.1124496  75.1376534  37.5685668  58.7396908  74.5854902  38.8305783
  79.4173336  31.8034482  22.8677154  80.2964211  32.1785903  22.8157496
  78.9005184  32.3174596  22.2472930  82.5971794  75.7567692  37.9766488
  82.9336452  74.9273396  38.3158684  81.8789673  75.5044889  37.3963404
  79.1885614  66.2296629  50.9220886  79.4011259  65.3125048  51.0949087
  78.2973146  66.2074137  50.5736351  50.4736233  27.2295666  49.0317059
  49.9820137  28.0494976  49.0793419  51.1459970  27.3915386  48.3699608
   4.7206488  73.0674028  55.8789968   5.0631142  72.2670412  56.2769508
   4.2695740  72.7682924  55.0895071  57.9110765  33.7081456  50.9506607
  57.1788692  33.7793374  50.3382540  58.5521507  33.1624985  50.4951096
  70.4668617   1.6227223  39.5825601  70.7540607   0.7476292  39.3218637
  69.8413181   1.8810612  38.9056659  19.0805554   6.9728017  12.3023987
  18.9493430   6.1536437  11.8249106  18.2195592   7.1782422  12.6666927
  40.7767200  71.5654993  30.9345412  40.3765106  72.3923969  30.6656480
  40.2170324  70.8917952  30.5483985   7.2419703  24.0523028  19.9768150
   7.8134817  24.3821716  20.6702065   7.6524258  23.2340479  19.6971405
  49.2337656  71.9763041  59.5963526  48.4285402  72.3411798  59.2293262
  49.5864105  72.6774311  60.1443434  44.1963768  79.9840117  40.3075838
  44.2588091  79.5354795  41.1508799  44.9751425  80.5395222  40.2735329
  69.4117212  73.6030197  40.6772947  69.7043133  73.5108948  41.5840101
  68.9602852  74.4468069  40.6558514  64.7734022  32.2359300  49.6522760
  63.8316870  32.3410726  49.7877312  64.8570156  31.4034915  49.1872072
  19.6538365  43.3733273  71.5899658  20.1329160  43.8798857  72.2457933
  19.8452306  43.8125658  70.7613087   4.5075732  77.7989388  53.2920790
   3.8241512  77.2912979  52.8545141   5.0998110  78.0608463  52.5871754
  10.3753042   4.9711359  39.0267992  10.7951725   4.6665591  39.8312712
  10.5970001   5.9010386  38.9781737  28.4800172  82.6029778  22.1475601
  27.6035571  82.7791214  22.4896455  29.0187526  82.4680328  22.9271674
  15.6353617  51.0937595   2.7164301  15.7182205  50.2652979   3.1886837
  14.7026932  51.3039160   2.7632806  84.7473240  27.4737334  64.2139196
  85.6123638  27.4772716  64.6236992  84.7656536  28.2156157  63.6093521
  55.7826519  81.4285374  26.6464043  55.3929329  80.7126999  27.1483231
  56.2863064  81.9262314  27.2905087  11.6189468   8.1379873   1.3078703
  11.1512685   7.3393619   1.0635234  10.9572589   8.8278425   1.2578696
  13.6949241  52.1764803   0.8090820  12.8576434  51.9067669   1.1865032
  13.6218154  51.9545317  -0.1191556  17.6492214  76.0870314  39.2395306
  16.8273497  76.5675926  39.3386412  17.9751182  75.9829473  40.1335049
  46.6650057  73.1652832  60.7560205  46.1339664  72.3817348  60.6136131
  46.4502859  73.7373161  60.0191927  18.4606802  43.7933826   4.5869789
  18.5368812  43.8762569   5.5375350  18.2585371  44.6788549   4.2847994
  86.5078735  24.8207784   6.0140777  85.7787895  24.7240901   5.4014504
  86.6913605  23.9293623   6.3106245  69.0492821  48.0487394  32.5070882
  68.6358547  48.5607338  31.8119860  69.1083765  48.6531591  33.2469654
  65.0401640  65.8859301  45.1947832  65.8519936  65.7614756  45.6863880
  64.3903303  65.3686810  45.6706047  63.1699848  49.0048504  46.3474512
  62.7886057  49.6647072  46.9265652  62.5273943  48.9020824  45.6454897
  36.7040539  81.9697571  45.6314754  35.9643102  81.4147472  45.3845453
  37.4214244  81.6766644  45.0695896  12.1797192  17.5648272  32.1198082
  12.9086232  18.0408370  32.5177360  11.4369965  17.7365994  32.6986790
  10.4592371  76.5824223  55.5739355  10.1997077  77.1962500  56.2610245
  11.3422024  76.3067198  55.8200932  77.7119160  81.1153698  17.7223611
  77.4515724  81.1377239  16.8015170  77.8218555  82.0353985  17.9625726
  46.2864971  39.2069006  53.7277412  46.3375282  38.2971644  54.0210199
  45.5957747  39.5936394  54.2658567  82.7924156   9.2391944  47.2240496
  83.5691643   8.7131500  47.0338392  83.0217934  10.1204062  46.9289494
  22.3578095  17.7855957  63.4439564  22.8507376  16.9893587  63.2458115
  22.9922771  18.4937668  63.3336067  29.6226621  82.1757030  54.4826889
  28.7391257  82.1039486  54.8438692  29.5789552  81.7087650  53.6482525
  63.6149836  73.3459854  62.9286337  64.0097141  73.1982040  62.0692301
  63.2357407  74.2229223  62.8704166  67.7279711   8.8985127   9.9811959
  67.4490786   8.9065492   9.0655619  68.5949802   9.3040001   9.9710566
  67.9954720  49.2821026  30.5396676  67.9926968  49.3037653  29.5827150
  67.2003412  49.7514057  30.7921696   9.9820215  31.5798306  60.3880215
  10.1020575  31.2269330  61.2696648   9.5126301  30.8916998  59.9164534
  68.3224821  71.8382072  14.4045925  68.9619589  71.1603546  14.6232688
  68.5334873  72.5646782  14.9910653  83.4106636  13.8694715  41.1523438
  83.3443928  13.9614034  40.2018785  83.1788921  14.7333479  41.4932680
  50.3874683  -0.0118530  37.2643542  50.5837250   0.5625143  36.5242076
  49.7914839   0.4987818  37.8123355  56.7712545  65.6438732  59.4666719
  56.5933752  66.0933447  60.2928495  57.4945116  65.0500584  59.6679497
  18.5484874  32.9742002   7.1763247  19.2759025  33.5798287   7.3188418
  18.9667308  32.1573281   6.9042534  17.8392696  10.4199696  34.6477652
  18.4097910  11.0141671  35.1352763  17.1696377  10.1585293  35.2798033
   0.3889351  38.6023498   2.3338720   0.0000267  38.4122944   1.4801377
  -0.1939411  39.2544675   2.7227575  86.0377026   6.0793537  41.4043522
  86.3588142   5.7414854  42.2403908  86.5158463   6.8988407  41.2776613
  53.0002832  55.9355068  66.8967962  53.0547285  56.5578604  67.6220179
  52.1516418  56.1137009  66.4914656  81.4736462  17.7907312  26.6421151
  81.3613987  18.7218046  26.8337846  81.9811726  17.7727103  25.8307481
  45.6515265  24.6426177  18.6666954  46.1339378  24.9008203  17.8813028
  45.3755140  23.7426448  18.4931958  82.0042896  78.0431175  39.5721555
  82.1971130  77.2549915  39.0643024  82.8618145  78.4300613  39.7486830
  27.3987365  65.3727436  48.0041313  26.5742373  64.8934984  47.9218960
  27.7284169  65.1352167  48.8708067  31.0853672  44.6253395  65.3631973
  31.4818716  45.3077269  64.8215675  30.3751349  45.0695992  65.8262634
  46.1248064  64.5198393  52.7189684  45.7611465  65.0743341  53.4092712
  46.5803099  63.8208961  53.1882477  57.3293591  54.8410511  43.5064363
  57.4474192  54.5866013  44.4216156  57.7091980  55.7178879  43.4507179
  34.9094367  20.1239419   8.4994286  34.8706722  20.5793691   7.6584089
  34.6354485  20.7802582   9.1400629  75.5017805  82.3045826  42.5692415
  74.7190046  81.8004608  42.3470926  75.4327440  82.4508190  43.5126829
  85.0754452  75.5068874  45.6103897  84.2964745  76.0613823  45.6547880
  85.7870102  76.0684490  45.9178877  68.0402231  60.6545162  28.6844182
  67.2857189  60.4665899  29.2426658  67.7402115  61.3537407  28.1036377
  10.4010701  75.7502174  21.6301990  10.1673961  76.0331774  20.7461381
  10.7229114  74.8557377  21.5181637  72.3630047  76.1507416  64.7494078
  72.0445490  76.7458296  65.4281425  71.5949774  75.9741735  64.2060900
  54.8038054  76.9258356  14.9358499  55.6334591  76.6634417  15.3346622
  54.5052767  77.6637125  15.4675019  20.8166504  12.5954902  29.1776872
  20.6413007  13.4630322  28.8131952  21.6826057  12.3649061  28.8412595
  28.3849645  65.0591850  62.3948002  28.7647033  65.8106041  62.8502131
  28.9139915  64.3140697  62.6796865  32.6649189  60.0947380  51.8667889
  32.7503943  60.0953102  52.8201675  33.1323457  60.8807039  51.5839386
  84.7729778  15.6602824  55.6767941  84.2601299  16.1056745  56.3512182
  85.4342651  15.1689732  56.1641788  73.3993101  80.0451279  52.1095133
  74.1447115  79.7854900  51.5680313  73.5286617  80.9811783  52.2621489
  38.4755802  47.1967077  22.5798178  37.6092696  46.8666267  22.3415232
  39.0843296  46.6599417  22.0723343  75.0393200  81.4055443  54.2972565
  74.8732042  80.7559586  53.6141205  74.1757679  81.5916634  54.6658611
  19.8582065  69.6368980  47.1246815  19.9416542  68.6994600  46.9500923
  18.9141107  69.7914171  47.1568966  77.1270084  74.9664307   2.0986678
  76.7382908  75.5963326   1.4917445  76.6226816  75.0688887   2.9057536
  72.9517651  65.4150009  63.7170792  73.2377529  64.6336651  64.1903162
  72.9031944  66.0966158  64.3873596  23.6515880  35.7456493   3.4175423
  23.9019752  34.9004126   3.7905180  24.3331051  36.3492537   3.7132251
  87.1486759  40.3039265  13.7294853  87.6164150  40.8084297  13.0639601
  87.6393890  39.4849443  13.7980235  39.1297078  66.7935038  40.9343147
  39.8962355  67.3340654  40.7433701  39.3611670  66.3243151  41.7358875
  47.4620819  55.3019571  28.9392948  47.2979116  55.3753567  27.9991388
  46.7591381  54.7379971  29.2618656  55.5550623  81.2686062  52.4538422
  56.4185762  80.9642506  52.7330065  55.5401039  82.1960831  52.6900482
  45.3153229  79.3400717  27.3111176  45.3925323  79.1090536  28.2368064
  45.1051855  78.5143566  26.8749142  82.2273922  11.8508697  31.1140871
  81.8261242  11.0629308  30.7475233  81.6697025  12.0799673  31.8575478
  11.4721179  45.0540161   5.1316011  10.5798650  44.7092342   5.1668280
  11.3996112  45.8533001   4.6099460  29.1893482  50.6423569   4.5391646
  29.9694395  50.3552866   5.0137979  28.4937191  50.6377554   5.1966685
  76.8674278   8.6976624  51.2637949  76.5542650   8.1471217  51.9814777
  77.8090334   8.5296923  51.2263727   8.8790715  82.6152611  64.5421886
   9.4006932  81.8131542  64.5699501   9.2776823  83.1831360  65.2016306
  62.2742605  53.9401340  32.9508924  62.5398064  53.4462929  33.7266755
  62.1017933  54.8234892  33.2767224  73.1613350  67.2162867  26.2328887
  72.4821281  66.9285774  26.8429160  73.9449644  67.3111868  26.7743206
  36.7441607  59.9272490  10.7995486  36.5432072  59.2030764  11.3923585
  37.2658944  60.5314302  11.3277400  40.8178473  12.7436030  46.9726658
  40.2636719  11.9643390  46.9294596  40.2499771  13.4577012  46.6831493
  43.9369488  56.4884377  46.7375994  43.9104700  55.5328560  46.7865276
  43.7887764  56.6851044  45.8126116  54.0361500  39.1406465  55.8230591
  54.0456533  38.5563278  56.5811586  53.2838917  38.8510418  55.3068542
  65.1477003  62.3521996  30.5849767  65.0846195  61.4495754  30.2726936
  65.3322029  62.8654480  29.7983599  36.0647297  70.8870888  17.4503624
  35.4470968  71.0589027  16.7395580  35.9826183  69.9481440  17.6172924
  44.5580959  77.5629187  53.2186937  43.6602354  77.6789141  52.9078484
  45.0859499  77.5338793  52.4207258  50.8710957  55.9927893  70.0654030
  50.2239895  55.7655048  69.3977022  50.6120396  56.8649006  70.3629684
  39.7182918  60.9335995  32.5604296  40.6315088  60.6469536  32.5504303
  39.5836043  61.2734365  33.4450769  52.7105856  39.3606377  44.0970898
  52.4380541  39.7096038  43.2484531  52.9696894  38.4577942  43.9127779
  55.4418659  68.5542870  41.3089705  55.2902842  68.9684010  42.1585417
  55.8607483  69.2348671  40.7821131  71.1618042  72.1936607  57.2743702
  71.4390659  71.2795067  57.2137260  71.9755650  72.6948166  57.2208261
  49.7066545  51.2473965  50.7925272  50.6057024  51.5418053  50.9383440
  49.2514420  52.0221376  50.4626989  76.5891933  82.6813889  58.7407255
  76.7126608  82.3562527  57.8489447  75.6459570  82.8267384  58.8142252
  85.7058239  77.4109364  15.3158987  85.0826836  77.7388000  14.6674848
  85.1766777  77.2517490  16.0974967  57.3156023   6.0580873  21.7110157
  58.1989050   6.0260558  22.0784163  56.7462349   6.1963874  22.4679327
  70.5703783  75.5311203  57.4228573  71.0085154  76.3814259  57.4582005
  71.2149239  74.9149179  57.7708435  49.5292759  58.4314680  33.5400772
  49.1423750  57.7464581  32.9948211  49.7062588  59.1497231  32.9326105
  41.4338446  21.7846513  48.1390047  41.4678288  21.0645533  48.7687159
  41.8440866  22.5201821  48.5939026   9.0564311   8.8567078  16.1389637
   9.8978931   8.8212961  15.6840801   8.8407469   7.9409415  16.3152707
  63.6466265  61.5064621  53.2997370  64.4946432  61.7358875  53.6798239
  63.1530190  62.3265696  53.3028221  77.6674795  56.2855482  36.3326716
  77.2901392  55.4068518  36.3743520  77.2171307  56.7725849  37.0227528
  71.7573071   4.7659621  24.7006941  70.8679962   4.4197130  24.7746968
  71.8156004   5.0859553  23.8004518  46.4051342  73.0015135   7.7960557
  46.7870998  73.6884785   8.3423263  47.1358633  72.6827478   7.2662872
  55.4463005  11.6462421  39.2350459  55.4392719  11.6290724  38.2780242
  56.1322880  11.0255134  39.4807005  64.8713446   2.8385040  68.9687538
  64.1845417   3.4968168  69.0743685  64.3997240   2.0309779  68.7645292
  18.2932031  65.9638405  25.9481692  17.5392222  66.5026903  25.7086158
  18.2616115  65.2243423  25.3412247  12.9495001  42.7353954   5.3562778
  12.3483610  43.4289837   5.0846177  12.4451232  41.9281530   5.2553022
  65.2541685  74.3960381  39.2786121  65.1512146  73.4485245  39.3671966
  64.4701099  74.6792126  38.8081932  87.0477962   0.2026929  50.6379604
  86.8878937   1.1053815  50.9133101  87.5488472  -0.1819057  51.3571739
  56.2837124  78.3465528  30.4819417  56.9808054  78.8647985  30.0798059
  56.6467381  78.0683422  31.3228011  78.3833933   9.5711565  22.4140930
  77.7337503  10.2358186  22.1851492  78.2468176   8.8723725  21.7743444
  14.7430110  12.5488782   4.3167967  15.4375243  11.9316912   4.0866584
  15.1603055  13.4088337   4.2660561  61.5282106  71.3986254  19.6569943
  60.5896521  71.3592052  19.4731796  61.7920303  70.4835701  19.7534204
   8.9018071  15.7546234  41.1696959   9.7985160  16.0870337  41.2102938
   8.4669966  16.1453021  41.9276857  38.7643075  60.9937286  43.6114979
  38.4966969  61.9012928  43.4667587  39.1047788  60.7064009  42.7642965
  56.8792200  77.6793242  56.3309145  56.5068340  78.0435753  57.1339607
  56.9410563  76.7392921  56.5004873  46.6451502  74.7468758  56.1337805
  47.1556807  74.5882893  55.3397751  45.9574795  75.3534651  55.8592081
  45.2407312  70.1193810  14.3389213  46.1152220  69.8762178  14.0349925
  45.3464556  71.0035515  14.6900558  15.0545847  -0.0830989  62.4358082
  15.7650793   0.3843651  62.8750181  14.3391395   0.5515362  62.3957157
  14.1532278  61.5268707  23.4942055  13.1972241  61.5421534  23.4488893
  14.3844533  60.6070328  23.3651090  73.4803915  36.7802382  65.2934599
  73.2196951  36.2323117  66.0337639  74.3863535  37.0240402  65.4832602
  28.9045763   6.4406365   8.4583300  28.0868721   6.8687361   8.2047141
  29.1215229   6.8231678   9.3085277  56.7227316   4.6510014  14.8010004
  57.3366880   3.9314130  14.9475765  57.0965481   5.3871852  15.2852821
  66.4332581   7.1769649  28.0097294  65.4904842   7.1574086  27.8453159
  66.5346241   7.7727598  28.7520123  47.3146439  72.9159927  68.9429712
  48.0042934  73.1560898  69.5618200  47.7825832  72.6861525  68.1402063
   9.1584128   0.9490751  32.9404330   8.5346192   1.1472902  33.6388779
   8.7271494   0.2719084  32.4191952  60.4705811  60.6099844  44.7498369
  60.6751728  60.8368063  45.6569862  60.3002405  61.4508009  44.3252897
  50.6439543  74.9627542  56.6216707  50.0564337  74.9836445  57.3770618
  50.7166481  75.8775330  56.3494110  29.0329671  10.4563892  28.1097722
  29.9277520  10.1802099  28.3080578  29.1375375  11.1922407  27.5065970
  54.0597868  47.2100544  40.3864193  54.3905735  46.4090204  39.9800253
  53.9193153  47.8099108  39.6538401  65.8783150  19.6387923  48.3826876
  66.7027712  20.1235723  48.3440447  65.5076981  19.7261727  47.5044870
  40.6133127  25.3680921  47.0881510  41.0844707  26.0805678  47.5201511
  39.7031784  25.6634760  47.0629215  85.3645706   0.8719632  56.8301535
  85.6063080   0.4267604  57.6423025  85.9218979   1.6498758  56.8084145
  62.5667286  71.1220312  55.9749699  63.4844351  71.0650826  55.7088852
  62.0762539  71.0794258  55.1540852  36.0169959  47.0499516  18.8559473
  36.1882353  46.9834900  19.7953570  35.1063800  47.3392487  18.7983561
  64.2967463  34.5737791  51.7322016  65.0176430  34.0913486  52.1369267
  63.5072374  34.1856956  52.1094275  59.3919134  57.4983978  68.1324196
  60.3451490  57.5814342  68.1584072  59.1058207  58.2034349  67.5516367
  44.3089867  65.6669378   6.3884938  43.8110352  66.1645222   5.7398897
  44.4826841  64.8267508   5.9640545   0.3783332  81.5406227  39.4609094
   1.1405157  81.2370110  38.9678288  -0.1846110  81.9498158  38.8037300
  54.6478176  74.2024708  24.4821286  54.0801048  74.4031954  25.2262020
  54.1112995  74.3941593  23.7129521  22.1275711  49.1234779  25.1171660
  21.6807866  48.5580873  24.4871283  21.9026041  50.0124884  24.8427916
  15.1941252  19.1658986   5.2746773  14.5355129  19.3601608   5.9415537
  14.7367954  18.6144400   4.6398735   8.8927633   3.7413666  35.6270766
   8.4839749   4.3679789  36.2241387   8.1784105   3.4487137  35.0611401
   7.8918272  13.8334620  61.8760490   7.3472399  13.2381725  62.3911095
   8.7203366  13.8739347  62.3537159  44.6435118  71.3875151  60.1274252
  43.7238932  71.6520977  60.1044464  44.9042940  71.3474989  59.2073011
  62.8325558  80.1742840  61.9884729  62.4118662  79.5119476  62.5367165
  63.5732031  80.4823208  62.5107622  78.9009047   4.5016706  24.6582365
  79.1575003   5.4237556  24.6460629  78.7166691   4.3164626  25.5790973
  26.1064935  17.5765395  14.5999908  25.2323937  17.1957028  14.5154703
  25.9475899  18.4939897  14.8219550  76.9518423  25.7021880   8.7346554
  76.3655901  26.3554931   8.3529067  77.8310299  26.0210705   8.5307598
  67.2393179  27.8576612  42.7887535  67.6771975  27.2262526  42.2179508
  67.8653288  28.0161619  43.4953070  55.1563168  33.5794115  16.7311990
  55.9730768  33.2245922  16.3801420  54.8633814  34.2059445  16.0694766
  82.2981548  68.1226873  54.1680908  81.6728401  68.8186216  53.9658499
  82.7736568  67.9825544  53.3492565  75.2100039  71.4819860  22.0370889
  74.8353148  72.3539448  21.9124794  75.8356810  71.5902805  22.7533531
  49.8546648   9.6601725  43.3617640  49.0559626   9.7945935  42.8516245
  49.7900248  10.2911592  44.0786362  80.6109619  22.5676727  52.1302223
  80.7386208  21.8639135  51.4940929  81.4618015  23.0034328  52.1792841
  45.3175879  66.2877083  64.9248743  45.6746149  65.4010391  64.8741245
  46.0481453  66.8226767  65.2352428  59.6600628  68.3075762  47.8313971
  60.4811764  67.8405285  47.6769066  59.6715641  69.0273571  47.2005177
  72.3835039  66.4467955  59.7551298  72.5856638  66.1074495  58.8832331
  71.5282202  66.0720682  59.9656153  68.6282301  77.3147297  39.8703694
  67.8988647  76.8348742  40.2627945  69.3303299  77.2551584  40.5182409
  73.2219362  10.6278503  42.3779869  73.5769415   9.9009126  41.8663549
  72.7800369  11.1808860  41.7336988   1.2887250  32.2237825  58.8422155
   1.9008133  32.9004049  59.1316271   1.7561390  31.7589927  58.1481504
  34.0565538  62.2178125  40.4167271  34.1476750  61.6623306  39.6425343
  33.1281710  62.1626043  40.6431961  33.7530684  60.9945583  42.9459143
  34.1390204  61.1129570  42.0780134  33.8359070  61.8517113  43.3638382
  24.3652034  37.0504737  66.9663525  23.4309554  37.1345162  67.1570063
  24.6879506  36.4293122  67.6192141  17.4369478  79.7524691   0.5860368
  17.8270090  80.3506756   1.2233983  17.9821932  79.8459721  -0.1951142
  38.8897848  75.6890154  21.8615723  39.3392897  75.4263639  21.0583353
  37.9754663  75.7974577  21.5998650  44.7446299  29.5743942  12.9350913
  45.5436277  29.7038388  13.4460521  44.7051144  28.6294556  12.7875769
   3.4283546  78.9790821  42.8361082   2.9643723  79.5974636  43.4005165
   3.7276739  78.2907581  43.4301186  81.2890339   4.2017168   1.1861363
  81.0877800   5.1008570   0.9267633  82.1671963   4.2522016   1.5636557
  56.4621258  74.8458910  56.2728071  56.7761374  74.9362087  57.1725130
  55.9325933  74.0485668  56.2828445   3.4822524  53.0947733   0.6597011
   4.3702754  53.3128357   0.3766888   3.0412957  53.9407444   0.7379815
  18.3066142  78.8314629  41.0377312  18.8648510  79.4912100  41.4492416
  18.4607530  78.0358315  41.5470839  64.5229244  59.8126698  56.2397909
  64.4915724  58.8863277  56.4788198  65.2259064  60.1754332  56.7787266
  82.0401001  25.4826188  56.9987583  82.0192623  24.5457554  57.1939039
  82.7074051  25.8351278  57.5875568  69.0994787   9.3103081  27.1101403
  68.8498831   9.3690538  28.0323577  70.0310564   9.0910214  27.1276426
  50.6245899  70.5428362  70.7106113  51.0050535  69.6816254  70.5380154
  50.7619953  71.0322857  69.8995686  27.3910952  34.7211075   1.9825432
  27.4507856  35.6725430   2.0687968  26.8472958  34.5845938   1.2067347
  40.9215021  14.1460097  40.7865334  40.0751495  13.7260640  40.9400415
  41.5655613  13.4655964  40.9826374  49.3034267  47.0179701  18.4196091
  48.6450195  47.4911261  18.9283848  49.5717287  47.6369476  17.7405560
  21.7740202  16.8295705  42.3790503  22.1484256  16.3411534  41.6459036
  22.2271633  17.6725352  42.3615932  19.3665767  13.3482468  22.1518111
  18.6063814  13.0515170  22.6520967  20.1182795  12.9867017  22.6213408
  72.9565430  29.4703937   6.9096494  73.5520077  29.8176360   7.5737852
  72.3376322  28.9307261   7.4015260  62.2796869  78.2977057  32.3683786
  61.7611217  78.4488440  31.5781379  61.8976927  77.5116634  32.7588248
  49.4870758  15.3122008  35.7744932  50.4112625  15.5122781  35.6259012
  49.1760111  14.9783015  34.9330759  39.3007660  74.1150331  30.4126358
  38.5226679  73.6266375  30.6814575  39.6803308  74.4310474  31.2325716
   1.1133547   6.4500856  50.3487062   1.9220042   6.8373793  50.0135612
   1.3593018   6.0771883  51.1952829  56.6908169  71.8975878  45.8412409
  56.6560125  71.2767935  45.1134777  56.7952108  72.7519655  45.4224682
   2.2617061  23.3729243   5.5420154   1.4860103  23.3786130   6.1028141
   2.5135618  22.4508667   5.4909265   2.4774311  18.6400652  15.2217209
   2.3954517  17.9933167  14.5208442   1.6201389  18.6418128  15.6474888
  17.3018193  17.1050441  37.4774146  17.9271948  17.8221786  37.3732257
  17.4772477  16.7595351  38.3526754  49.8716116   1.3358520  32.2688961
  49.1522884   1.9298811  32.0545793  49.7184229   0.5665106  31.7203712
  69.3713617  17.3608077  43.1122828  68.4526253  17.1205926  42.9920721
  69.4854784  17.4036407  44.0616894  10.2076888   9.8835379  42.3223019
   9.6494937   9.9667680  43.0954266   9.9609375  10.6238103  41.7679167
  71.9191694   8.7649757  50.9219074  71.3017845   9.4742322  50.7429504
  72.6920605   8.9830887  50.4010487  79.5843554  26.4867258  25.0080085
  79.3507147  26.9107628  24.1822743  80.4371738  26.8575478  25.2347755
  87.0185184  28.0557990  44.4680595  86.2508392  28.4954429  44.8335886
  86.8734074  28.0675316  43.5219908  56.5460014  47.9610920  60.4935217
  56.2646627  48.7119722  61.0162544  55.9060240  47.9102468  59.7835350
   7.0062661  30.5020475  61.7647409   7.2246695  31.4339352  61.7753839
   6.5201104  30.3606892  62.5770855  85.0168610  77.3189116  51.8366289
  85.5387115  77.7868080  51.1847258  85.5691719  77.3019075  52.6182270
  78.2468367  80.2890205  23.6122131  78.8046026  79.5674467  23.3215976
  77.7809238  79.9404907  24.3722653  43.1563330  65.3220606  11.6217959
  43.3729362  64.7887230  12.3865640  43.9016438  65.9147024  11.5242290
  74.6494436  38.0317807  -0.0108552  73.7768507  37.7193117  -0.2499791
  74.5601702  38.3194900   0.8977067  67.1960878  64.8515081  61.1762857
  66.9600010  64.3199968  60.4160261  67.8063774  65.5037785  60.8323097
  16.0887718  32.1440673  18.2679594  15.5283844  32.5196719  17.5889027
  15.4863489  31.6675687  18.8391578  78.5359240   5.0000226  42.0217419
  78.9786482   5.3258651  41.2381268  79.1032648   5.2658814  42.7453947
  42.6922083  21.0907698  41.9566441  43.1397486  20.7011914  42.7077532
  41.7797422  20.8183813  42.0538187   5.2301925  70.7641935  57.1482134
   5.3429133  69.8406887  57.3732948   6.0198730  71.1901140  57.4817228
  82.4810696  32.9266047   5.6235862  81.7597866  33.0131173   5.0002921
  83.2551479  33.2052565   5.1343113  21.0622334  62.9511166   0.1608107
  20.9475398  63.6785507  -0.4506794  21.4573860  63.3499479   0.9360656
  80.9980011  28.6495328  17.2344685  80.4453564  28.3800602  17.9680884
  80.7502174  28.0629158  16.5198267  77.5621223  26.8523026  30.0089669
  77.4010611  26.2168121  29.3115115  77.8877401  26.3277459  30.7404351
  69.7377348  59.7961950  30.6981492  69.4504023  60.1347303  29.8501730
  68.9911890  59.2907047  31.0196710  53.8039303  74.6496058  27.2462988
  54.5392275  74.9877214  27.7574253  53.2498121  75.4141283  27.0891619
  79.6480703  58.0360365  33.2578516  80.0863266  58.8666868  33.0729628
  79.2875624  57.7625036  32.4143815  12.1921384  13.0365908  55.4036188
  12.2492409  13.8148403  55.9579659  11.3343310  12.6621473  55.6040907
  51.9218254  24.1067791  46.6404963  51.7381620  23.2036448  46.3819456
  52.1756315  24.0453792  47.5613880  79.1093159   9.5028925  26.6369414
  79.1892624  10.2656782  26.0642314  79.3613720   8.7620485  26.0857177
  61.2085152  66.0674286   7.6190877  60.8882523  65.1695919   7.5321943
  60.4305744  66.5787125   7.8418612  39.0182066  78.5922909  19.7988391
  38.4137344  79.2818499  20.0733495  39.2335486  78.1268358  20.6070542
  60.7668686  31.2825441  56.0990381  60.1191568  30.7017684  55.6997919
  60.3260088  32.1303153  56.1552620  72.8413963  73.9908314  58.2355022
  73.6932278  74.3948841  58.0700827  72.7307701  74.0452671  59.1847277
  31.1425066   0.2935252  47.3006868  31.8304324   0.9271725  47.5043583
  31.2578034   0.1059618  46.3691473   8.1177771  17.9484081  30.3841925
   8.6829966  17.1771204  30.3408813   7.9984820  18.2095075  29.4710517
   8.7397301   9.9240917  64.5426369   8.6284846   9.4106394  63.7424994
   9.6869600   9.9567723  64.6764946  24.7285271  80.3368759  47.4635029
  25.3262115  80.3234005  48.2110500  25.2178288  80.7851601  46.7736864
  69.2161655  64.4023418  27.2914696  68.4657526  63.8494492  27.0737028
  69.9279642  63.7847805  27.4593568  75.5028534  19.9669111  33.9145350
  74.8112631  20.1305032  33.2733107  75.0355577  19.7303629  34.7157264
   4.8634109  31.2801218  43.0438042   4.2887938  31.9512248  43.4121370
   5.2303708  30.8338499  43.8069630  65.3364801  25.9731078  64.6709585
  65.6727076  25.1629496  64.2877769  65.6722546  25.9714842  65.5673313
  65.4498911   1.3191989  43.9230680  65.2092409   0.7765054  44.6739388
  65.4905128   2.2089016  44.2737961   3.4582251  19.6325386  48.3604479
   2.7721050  19.8769414  47.7393675   3.6949992  18.7378919  48.1159544
  78.3012581   4.0789467  53.5697937  77.9128075   3.6335069  52.8168488
  78.5868835   4.9254400  53.2261372  83.8988113   1.9219315  42.5028276
  83.1414795   2.1307483  41.9559526  83.7218761   1.0400838  42.8303480
  15.9631991   2.2771662  31.0988927  15.6524301   1.3954929  31.3045764
  16.5193152   2.5143036  31.8410063  17.0167673   0.4263762  45.2026892
  16.6892791   1.3189147  45.0915241  17.0054746   0.2832396  46.1490583
  51.6114473  80.0404930  53.5262918  52.1956491  80.6334782  53.0537462
  52.1038771  79.7921944  54.3086576  31.5567088  13.3718538  49.7938442
  30.6401777  13.5891962  49.9640322  31.9946575  13.5056686  50.6343985
  11.1325288  54.6956730   7.2032076  10.2670288  54.8051643   7.5971025
  11.2836349  55.5117655   6.7263484  16.1349964  17.3718977  43.1390810
  16.9229496  17.1021318  43.6108732  16.2667394  17.0481265  42.2479916
  58.1941795   4.8970690  26.7167020  57.5556898   5.5902457  26.8842244
  57.6715565   4.0965891  26.6684723  35.5342865  73.3162785  70.1119614
  35.5224562  74.1135836  70.6414843  36.4490604  73.2176352  69.8479700
   0.5997518  21.7981076   1.4579143   0.3887118  20.8742690   1.3229463
  -0.0774790  22.2715616   0.9747647   3.7607887  13.3380640  30.0531983
   2.9670942  13.0629492  29.5942950   4.4346702  12.7282035  29.7528887
  63.2809973  11.6362226  45.4250097  64.1653156  11.2753403  45.4881096
  63.4038687  12.5834632  45.4872370   2.3439956  78.7470245  38.4922361
   2.0852107  78.5871077  37.5846624   2.5395676  79.6834898  38.5240746
  85.7127762   0.5888598  46.1480951  84.8895454   0.1743915  45.8897591
  86.3321590   0.3392037  45.4623318  54.2261839  22.9686260  21.8325305
  54.6801805  22.2201991  22.2197962  54.9268770  23.5720754  21.5853238
  69.8265839  66.7075157  19.4857740  68.9384794  66.8241310  19.8232734
  70.3459692  67.3673534  19.9452174  16.4633358  21.0493183  35.4804492
  16.1248124  20.8140135  34.6165848  17.3938727  21.2198949  35.3347254
  76.0767317  42.2341108  31.9096375  75.9341764  41.8441725  31.0471654
  77.0081091  42.4546146  31.9218159  17.4165130  18.1551111  22.1252394
  17.5701988  18.1733668  21.1806345  16.8187618  17.4191046  22.2564673
  18.8139784  18.1657469  45.5047274  18.4902298  18.7269700  46.2093210
  18.1815517  17.4486256  45.4599619   7.5581831  12.1541131  46.9103622
   6.9155133  12.8225243  47.1479177   7.4859643  11.4959896  47.6016569
  82.1450329   5.1140928  40.5062342  82.0190716   5.2514559  39.5673513
  81.8449879   4.2181638  40.6595898  57.1505594  81.5096760  48.3681583
  57.0586920  82.0168877  47.5616026  57.4784851  82.1388245  49.0107012
  73.4832573  16.9728255  46.2443686  73.7296200  16.0493183  46.2960577
  74.1475725  17.3666406  45.6788349  78.2779408  15.5724549  59.4877577
  78.4604263  14.6406078  59.3669605  79.1403723  15.9877110  59.4851828
   3.3756757  22.0065260  18.5376239   3.9850542  22.2003293  17.8253531
   2.8635004  22.8087187  18.6395800  52.3608828  79.6986389  43.1133842
  52.7868509  79.4299364  42.2993946  52.2866297  78.8915443  43.6226082
   3.7083346  10.2253532  52.9735899   4.3579113  10.5174613  52.3340940
   2.9200861  10.0605738  52.4561501   1.2808703  75.0546885  58.3522081
   2.2098094  75.1344204  58.1355381   1.2716891  74.7674656  59.2652512
  15.3092337   3.0083868  15.9822798  14.9240780   3.7872005  15.5806124
  15.7288682   2.5470358  15.2561295  57.6505089  52.6663876  61.8633890
  57.1434593  52.9766273  62.6136446  58.5608912  52.8444386  62.0994568
  11.4424932  12.9471958  31.5308166  12.1565032  12.3433328  31.3264346
  10.6555927  12.4024975  31.5128565  84.4163990   9.2039734  21.3329196
  85.1137257   9.6027249  21.8534684  84.0019035   9.9405134  20.8835506
  78.5767317  80.3211117  14.2390871  79.3973160  80.8111858  14.2910397
  78.8365030  79.4065619  14.3502402  10.1081383  14.9047256   7.8133959
  10.4292560  15.8026493   7.8961414   9.2221719  14.9984956   7.4633938
  62.3647118  70.5679846  68.7099028  62.3493385  71.4607239  68.3649206
  62.9780436  70.6053543  69.4438362  82.5970650   4.3350673  47.1433926
  83.0096817   4.0105721  46.3429642  82.0575714   3.6052400  47.4475861
  84.8720837  25.9518361  37.5887418  84.5901871  26.8409705  37.3737788
  84.0761089  25.4247713  37.5189972  58.0991840  77.7017641  69.6863699
  57.4868822  78.1709528  70.2531004  58.3066177  76.9013548  70.1685953
  71.4932108  40.5809832  55.3788519  72.3236561  40.3713703  54.9514627
  70.9621096  40.9780502  54.6885586  11.5641010  64.6879530  13.7633157
  10.6129944  64.5804596  13.7547684  11.9006991  63.8719749  13.3930302
   2.7941751  11.6083288  45.0925303   3.3732408  11.9597614  44.4162083
   1.9323644  11.5766788  44.6771860  85.1477623   6.2498826  44.5910549
  84.2799473   5.8529621  44.5163155  85.7551384   5.5362600  44.3959570
   3.0306855  63.2123184  17.4888968   3.4506029  64.0414667  17.7178419
   3.0641863  62.6964188  18.2944727   7.8048861  15.5260038  46.0383511
   7.2961664  16.1361086  46.5723991   7.1484220  14.9685609  45.6205654
  70.7886362  18.2009995  37.2603512  69.9997139  17.7526093  37.5649524
  71.2222958  18.4937871  38.0618811  71.6365480  31.2687182  67.3162222
  71.6653347  30.7078743  66.5410709  71.1256456  30.7700396  67.9538202
  35.8968115  15.5456793  25.7705975  35.9674382  15.4966021  24.8172688
  35.0866199  15.0787723  25.9750962  24.4063473  19.4373381  62.4930859
  24.1068244  20.1274967  63.0848598  25.3304935  19.3183255  62.7122211
  77.7108049  70.4800558  51.1149931  76.9872141  71.1024904  51.0427713
  78.4323931  70.9928370  51.4791346  75.1679516  76.2852287  23.4034419
  74.8838568  76.9621372  22.7891803  75.9182644  76.6714239  23.8552356
  26.5656829  18.2937276  34.0001655  26.5768528  19.0384996  33.3989835
  26.3616347  17.5409913  33.4452033  25.7706785  77.6092625  28.1852555
  25.9026861  77.3849249  27.2641253  26.3371801  77.0033264  28.6629057
  64.3417931  32.4929094  11.8293905  64.0675020  33.3845520  12.0437992
  65.2966881  32.5144482  11.8921399  71.0529947   3.5810134  50.1830626
  71.8102312   3.3536020  50.7226038  71.2080383   4.4891572  49.9233150
  20.2493787   2.6179555  47.8599882  19.9231637   2.6497126  46.9606543
  20.9866786   2.0084786  47.8259516  17.9449785  21.4239955  53.0222702
  17.4961376  21.4034390  52.1770763  17.3135483  21.0517979  53.6378956
  53.7095070  82.1741867  33.2514405  54.3535519  82.6438999  33.7813544
  54.1664076  81.3836193  32.9642534  12.3144794  18.7363470  35.7192016
  11.8119109  18.0118179  35.3467607  13.1532264  18.7076151  35.2588654
  80.4019260  17.5062847  66.7971992  80.5236530  17.3022604  67.7244473
  80.7773685  16.7564380  66.3356733  85.5342484  61.3116646  40.9765816
  86.2473011  61.7298412  41.4591885  84.7422028  61.5700626  41.4478874
  31.9263077  15.4050314  67.4402189  31.3482380  16.0072446  67.9086304
  32.4564099  14.9995029  68.1263447   1.2492016  13.6784351  28.8078737
   0.9802639  14.3660700  29.4170213   1.2707147  14.1100514  27.9537797
  76.0852575  75.9144258  49.4744062  76.3124466  76.2533331  48.6085176
  75.1281404  75.9090090  49.4859266  70.9352016  13.0270731  67.7543116
  71.1165619  13.9361811  67.9927731  71.6653442  12.7778530  67.1877337
  86.6134167  76.5055132   8.1539941  85.8334637  77.0529985   8.2442892
  86.3630104  75.8348036   7.5186402  16.4588642  25.9510112  17.3146975
  16.7219567  25.6328917  16.4510918  16.5767586  25.1978230  17.8935254
  68.7389231  10.8889902  14.2338324  67.8953266  11.0896373  13.8284755
  69.1972637  11.7288721  14.2612791  80.2259731   2.8769580  18.0212343
  80.0141621   2.5996414  18.9125609  80.8027077   2.1898645  17.6872981
  63.3205223  69.0169287  26.5447640  62.9312754  69.5378780  27.2471333
  62.7774525  69.2035723  25.7789493   3.7878606  43.5841179  59.4535017
   3.9838982  43.4005260  60.3722477   2.9095149  43.2277918  59.3201780
  54.0444660  63.6959219  55.7177687  54.1835594  63.3766174  56.6093588
  54.5280600  64.5211506  55.6807280   4.8486912  35.8414841   6.1095834
   4.4980121  35.0252676   5.7531440   4.4439754  36.5278697   5.5791944
  55.0917482  30.0671244  53.8197184  55.0295734  29.1124249  53.7894773
  54.7135448  30.3050852  54.6662188  25.7730341  35.8789897  43.6851978
  26.1738610  36.6911840  43.9948893  25.3743553  35.4955888  44.4664097
  83.4943962  43.3021259  61.3279486  83.3668995  42.3607063  61.2108898
  83.9104176  43.5903358  60.5154896  69.2695808   3.6132494  37.8534794
  69.4666481   4.4228303  37.3823380  69.6870422   2.9261416  37.3340178
  48.5720301  19.7692597   4.9132824  47.8566170  20.3799939   5.0905263
  49.0917110  20.1996589   4.2343688  30.4030013  20.0859189  14.8864937
  30.0546694  20.6495380  14.1956758  30.4837132  20.6613517  15.6471467
  14.3080139   8.3761722  30.6814742  15.1664877   8.7774509  30.8164883
  14.3865550   7.5055826  31.0715222  40.8520508  58.2809258  55.1681709
  40.9708595  57.5395870  54.5744276  41.2587690  57.9991102  55.9875536
  77.3855925  20.9078360  32.3902965  77.0603228  21.4928222  31.7060280
  76.5956497  20.5392766  32.7857590  53.7792206  23.7215257  14.5809042
  53.7067509  24.6687269  14.6983278  54.0173531  23.6118293  13.6603105
  33.7433577  66.4394283  45.3199816  34.5832276  66.4185333  45.7786942
  33.7996531  67.2079277  44.7521210  76.3762093  66.1610699  12.3446655
  76.6840458  65.4405975  11.7947721  77.1542931  66.6984653  12.4930680
   4.6221995  81.4489937  57.5122404   5.0855625  80.9518337  58.1862974
   4.0966952  80.7951927  57.0511341  23.6192966   3.0372354  23.3796525
  23.8248563   3.9718094  23.4030509  22.6969814   3.0011371  23.1261492
  61.5785170  57.7027369  25.4386640  61.6790771  57.6935101  24.4868040
  60.7900429  57.1849442  25.6012392  15.0702655   8.2913619  42.6347733
  15.8135700   8.0793154  42.0701790  15.1298440   9.2379588  42.7637577
  13.0766952  36.4690661  29.5988131  12.9679251  37.2364855  30.1604795
  12.2133934  36.0557508  29.5881748  75.9563541  55.8367300  20.6542659
  76.7437553  55.4218864  21.0065913  75.4286814  55.1088047  20.3257513
  32.3465300   4.4897112  36.2556744  32.0077395   4.5247838  37.1502280
  32.8412795   5.3029120  36.1548805   5.9905058  11.1402488  29.4220066
   5.9995288  10.7943940  30.3144956   5.9311670  10.3640985  28.8649583
  64.9456501  57.3927355   1.8254772  65.7015514  57.9762173   1.8917669
  64.5022488  57.6654959   1.0222151  44.5876598  52.9543734  67.4634218
  43.8374138  52.3830509  67.6276159  44.2460537  53.8398933  67.5874662
  21.8746614  51.4773464  29.0108991  22.7187085  51.0312653  28.9414263
  22.0971465  52.3723364  29.2672753  19.9975967  15.1536214   5.0417459
  20.4449868  14.3090045   5.0936794  19.4848251  15.1038432   4.2350122
  62.7125168  68.5893536  63.4602833  62.6001072  68.8936663  64.3608284
  63.6586618  68.4856606  63.3588457   0.2953369  81.2344456  48.9004087
   0.4722679  80.3264999  48.6543083   0.9291789  81.7465878  48.3982229
   7.3126137  34.3122530  17.9814827   8.1037486  33.8620257  17.6854527
   7.6305616  34.9822283  18.5866880   4.5848706  24.2654991  52.3078537
   4.8935699  25.1174307  52.6163101   3.6315924  24.3494487  52.2867632
  58.2474184  60.5858660  49.7542286  57.5265408  60.0201178  49.4776392
  58.4188890  61.1435795  48.9954233  63.8089514  65.9810591  40.8414030
  64.4724751  65.6354904  40.2442884  64.3100452  66.4288807  41.5230131
  85.1573372  55.7406187  23.1575060  85.0656414  54.8265839  22.8884983
  86.0261726  55.9956264  22.8471351  74.3703938  11.8371964  36.1917329
  74.9963093  11.5081704  36.8368697  74.1100740  12.6953030  36.5265727
  14.3355060  16.3387704  21.9007254  13.7840295  15.5670786  21.7718911
  15.2104104  16.0548437  21.6358519  43.1543207   5.1124901  46.6681719
  43.6634874   5.3759241  47.4347115  42.2709560   5.4361689  46.8446159
   2.8384408  65.6660080  39.0125871   2.4051516  65.2406311  38.2726216
   3.6303836  66.0510445  38.6373472  19.7735424  48.2415509  71.3573739
  19.3237180  49.0817112  71.4469129  19.2813606  47.6450408  71.9214331
   4.4558460   4.2337757  52.6134777   3.9622161   3.6268008  53.1649685
   3.8004020   4.8534366  52.2930908  14.2451429  70.2266502   7.8589398
  14.0531659  69.2889023   7.8618670  15.1841915  70.2794409   8.0367953
  17.7409041  32.5784206  39.6438622  16.9549143  32.0379591  39.5641661
  17.9347014  32.5825500  40.5812311  18.1303048  22.3337579  41.7643070
  18.6164868  23.1019950  42.0637560  17.3262203  22.3418045  42.2835493
  30.2971053   7.0921636  43.6970472  30.2381659   8.0354851  43.5457134
  29.9082971   6.9636333  44.5622301   5.2733624  64.6777630  31.7075038
   5.0571299  64.8678446  30.7946277   5.6035542  63.7794256  31.6933799
  80.2701378  55.2563524  29.8296285  80.6577492  55.7482433  29.1057253
  81.0147858  54.8347759  30.2585816  28.8417816   1.5647863  43.1008434
  29.0456986   2.1046714  42.3371840  28.1310487   0.9943946  42.8080225
   4.6786618   3.2598746  63.7997246   5.1985890   3.4548241  64.5794058
   4.1188955   2.5289482  64.0617180  68.4651995   0.7190523  31.4749956
  67.5082493   0.7050218  31.4582610  68.6898899   1.6466129  31.5483212
   5.7791197  65.1708031  42.3414660   4.9100360  64.8578358  42.0905113
   5.9129578  64.8242855  43.2236528  78.8567019  59.0180874  38.0415273
  78.1364250  59.6075726  38.2649946  79.0158892  58.5197926  38.8431478
  71.2255192  17.3456728   2.0357360  70.9139585  16.6011930   1.5210429
  72.1748972  17.2297454   2.0741569  66.8556929  70.5720901  51.6474724
  66.5172148  71.0062933  50.8644485  66.2816477  69.8158312  51.7690420
  28.1116962   4.2016271  22.8723955  28.5637069   4.1255358  22.0320821
  28.4504223   5.0114423  23.2540965  35.5917621  29.9233651  26.8052506
  36.3609457  29.6039534  27.2770190  35.0390291  29.1494823  26.6965222
  36.3288784   8.3120096  40.4633188  35.8958507   8.4722060  39.6248341
  37.0582104   7.7303284  40.2489519  80.7502747  72.3584032  19.1986728
  81.5236187  72.5275230  18.6605549  80.9057140  71.4925385  19.5759690
  37.6461959   8.2206106  10.5353701  37.7338886   7.4252331  11.0606480
  37.3375916   8.8830769  11.1535406  16.2423933  22.9575706  22.2172165
  16.2651253  22.2432017  22.8539181  17.0168173  23.4828019  22.4187922
  35.3095222   8.9965236   1.4519733  34.7203326   9.7491181   1.5038478
  35.8071494   9.0251517   2.2691503  80.3438187  75.4541302  24.5020580
  81.2741184  75.4809904  24.7257876  80.3151989  75.0225639  23.6481500
  17.9166329   9.4456500  22.4882865  17.5142968   9.3626708  23.3528519
  17.2615433   9.9043560  21.9622827   5.1729226  36.8407917  35.5485082
   4.7068739  37.5558710  35.1152730   6.0812247  37.1394420  35.5935335
  14.4638824  36.1255646  64.0390825  13.7968588  35.4500198  64.1613436
  14.3118358  36.7443419  64.7533846   2.0850022  69.6771336  31.2822247
   2.8697473  69.9082088  31.7792273   2.0507838  68.7212658  31.3193870
  65.1814079  56.2921095   7.6788437  64.9128485  56.8446016   8.4129131
  64.7625875  55.4482698   7.8484154  53.3678293  64.5633841  69.2038822
  53.5144854  64.7360992  68.2738876  52.7391243  63.8417292  69.2172337
  16.7974317  28.0949640   2.2220479  17.5110948  28.7326431   2.2388454
  16.8446863  27.7055550   1.3489164   0.8007695  63.5202551  45.0544167
   0.8366731  64.4011736  45.4271555   0.0475990  63.1106091  45.4800415
   9.7969925  15.3472865  31.7273760  10.2200389  14.4886768  31.7346001
  10.5207551  15.9713614  31.7815065  44.7072887   6.7496783  11.2494087
  44.3193865   7.3438072  10.6069314  45.3793144   7.2738010  11.6851866
  15.7266915  13.7419558  31.1323762  15.8161640  13.1943274  31.9123292
  15.3534591  14.5615506  31.4567113  87.4839592  25.0485587  17.1076500
  87.5857067  24.8719406  18.0428958  86.5428448  24.9721909  16.9504786
  -0.0367947  76.8187857  50.3759623   0.8844261  76.9981670  50.1878071
  -0.4986687  77.6037407  50.0814295  78.1025124  55.7774162  12.0605099
  78.5992908  55.3095484  12.7317357  77.2930050  55.2750635  11.9679201
  80.9241676   7.8361285  54.0248013  80.5889511   6.9974518  53.7078190
  80.3435135   8.4892058  53.6342144   4.8946458  37.3770571  58.6888075
   4.6062708  38.1885910  59.1065168   5.5872995  37.0463181  59.2607117
  79.6046352  23.5480237  70.1422310  79.4231653  24.2686796  69.5389414
  80.4217148  23.1667113  69.8209763  38.9757681  27.8622770  47.0805931
  38.8049984  27.9677653  48.0165100  38.3550429  27.1906257  46.7980766
  43.7485218   5.5546480  26.7891121  42.9552650   5.1181591  27.0996761
  43.4766865   6.0048711  25.9893394  40.3988743   7.3252839  28.3380055
  41.0598326   7.9370743  28.0138469  40.5920458   6.5031314  27.8874731
  14.8374653  21.9323111  33.4972167  14.0478945  22.4039268  33.7625265
  15.4702616  22.6207328  33.2925749  74.4016695  17.0559752  50.9119225
  74.4911671  16.1203587  51.0931540  75.1517105  17.4576962  51.3504267
  83.9743900  37.9965615  38.1838679  84.2441940  38.5137463  38.9427900
  83.1366158  38.3771634  37.9202414  41.5323353  19.5530832  10.1162601
  41.5163422  18.6248994  10.3496075  40.6103516  19.8087049  10.0873566
  15.1153421  73.5243702  12.2579253  15.0484014  72.7456617  12.8105247
  15.4641664  74.2007685  12.8384709  26.4666867   4.7630188  15.2471411
  26.7367768   5.5406457  15.7355869  25.5712914   4.5947817  15.5407298
   4.5512104  16.9290447  31.7264533   4.3036374  17.7288401  31.2624860
   5.0560397  17.2356296  32.4797034  81.8626022  45.9100533  13.5192859
  82.7060413  46.3585806  13.5797453  81.5418148  46.1203527  12.6423025
  -0.0142373   2.9390821  57.0217943  -0.3895075   3.0800098  57.8910160
   0.9224954   2.8235164  57.1811914  80.9978390  29.6611094  69.7976732
  80.1918602  29.6291184  70.3130388  80.7551956  30.1360607  69.0028286
   2.8059307  35.5900645   9.1409910   2.4187228  35.2297425   8.3432001
   2.0569414  35.8871055   9.6577251   5.2828968  16.2914085   4.7323364
   4.6613514  16.7381632   4.1575992   5.6009865  15.5528414   4.2131346
  34.5136046   4.7339433  25.5776310  34.9658871   5.4789281  25.9734488
  33.5862565   4.9676231  25.6182384  79.9522495  79.4619703  17.8066516
  79.1818810  80.0300503  17.7993631  80.6324005  79.9751472  17.3704433
  29.8013735  50.3718567  16.9525027  30.3992701  50.8230972  17.5484347
  28.9913821  50.8800745  16.9956326   6.1605686  69.5579338  11.9655967
   6.7386401  69.8411846  12.6739991   6.4956403  68.6977673  11.7124772
  78.6255074  82.3274994  34.7054720  77.8508377  81.9212341  35.0941491
  79.3633842  81.8654156  35.1032853  79.0327549  55.2794361  24.9285913
  78.6378241  54.5337439  25.3804803  78.3525562  55.9528399  24.9380302
   4.9474680  27.2897935  30.4466486   4.7443268  26.5370846  31.0019827
   4.7053310  27.0087171  29.5642662   3.6133286  77.3794460  19.2170990
   4.1748092  77.2858953  19.9866569   3.4381971  76.4808321  18.9377236
  16.4701998  39.4881392  61.0285091  17.3894608  39.4054484  60.7748270
  16.0266423  38.7849545  60.5541468  51.8412113  73.2116222  60.8161402
  51.6202736  73.9311409  60.2247763  52.7500200  72.9981995  60.6046104
   6.6448885   3.9005640  49.3500519   7.0678306   4.4467011  48.6874151
   5.7862055   3.6963543  48.9796543   6.3830662  65.5970335  33.7567878
   5.6719488  65.3022814  34.3257046   6.0438401  65.4803705  32.8693509
  56.4600420  58.4730721  71.0951948  55.5653954  58.2184458  71.3210249
  56.8418980  57.6864386  70.7058096   7.6771832  13.3580971  27.9623008
   7.0357591  14.0578890  27.8394222   7.6799273  13.1987321  28.9061379
  72.3013115   6.3370174   1.8857500  72.0833635   6.7566937   2.7179772
  72.1543264   7.0173794   1.2286846   0.2976112  26.1964583  20.5152774
  -0.1945610  26.4244080  21.3039708   0.3752785  27.0207000  20.0348330
  48.2953882  15.3757286  41.7377615  49.1002941  14.8938811  41.9279623
  48.4783459  16.2704015  42.0246744  37.5763392  27.3487496  29.2030334
  38.3449292  26.8852496  29.5357037  37.9341149  28.1158900  28.7561274
  20.3135943  27.5120211  49.8195505  20.3532100  28.4540129  49.9848223
  21.2236691  27.2206259  49.8750973  14.5155609   5.4019618  20.1428270
  13.9350152   5.7122976  19.4479227  14.2085719   5.8516937  20.9300566
   1.4984384  20.2244997  44.3190670   2.0864043  19.9540997  43.6137962
   1.5393813  19.5083368  44.9528408  22.4313021  63.2208586  37.1888113
  22.3517489  62.3404169  37.5558662  23.3414745  63.4674978  37.3530865
  71.5659809  66.5564919  29.3560505  71.3680935  65.6633759  29.0742469
  72.4732876  66.5167475  29.6584487  81.4291096  78.9988708  11.3127923
  81.2428093  78.8827181  10.3811097  80.5678272  79.0962315  11.7189431
  23.6564636  26.5685225  25.1611042  23.5905790  26.2375784  26.0568547
  22.8054547  26.3714147  24.7697449  34.4909215  32.6790857   8.3807623
  34.9386573  33.5153794   8.5087311  34.8966551  32.0903444   9.0171564
  37.3057699  18.5350215  53.0401802  37.9138851  17.8817797  52.6942015
  36.4424062  18.2299638  52.7612925   5.6735379  15.5925286  66.2256241
   5.7234174  14.8581433  65.6137228   4.7516295  15.6297803  66.4804363
  73.5363007  20.2210283  31.8778729  73.4019232  21.0999322  32.2324204
  73.5534286  20.3455830  30.9289670  18.5139632  29.1836929  47.2502804
  18.8475966  29.9550343  46.7920732  18.7495303  28.4484529  46.6844511
  29.1825771  18.0031252  46.7273808  28.7751722  17.5246859  47.4494267
  28.4723759  18.1412458  46.1006641  36.8152738  78.3159351  49.9267721
  36.5919709  78.7603569  49.1089392  35.9818983  78.2349062  50.3906155
  55.4812193  73.7972736  16.3421655  55.1093292  72.9528904  16.5970135
  55.7825184  73.6647987  15.4433310  63.0637360  18.6870646  41.7517710
  62.3390484  19.1679037  42.1515846  63.5142136  18.2758236  42.4894571
  73.5995531   8.4656453  31.6290116  73.0985689   7.8222501  31.1277270
  74.4682598   8.0742353  31.7205405  12.1137893  78.3939171  22.0786929
  12.5015903  77.8799152  22.7869630  11.9436121  77.7562428  21.3854098
   7.9701209  63.3241606  35.6922007   7.0313418  63.3070898  35.5060959
   8.2134753  64.2464256  35.6119156  54.7371817  77.3383379  42.2075939
  55.0347662  76.5859175  41.6961908  53.7822294  77.3027563  42.1525621
   8.0529279  55.1989126  22.8586316   8.3953995  54.6806812  23.5869002
   8.0234253  56.0945654  23.1950450  28.2377124  56.1821079  52.6323795
  28.7532043  56.7893362  52.1015549  27.3585296  56.5604544  52.6432896
  10.1158881  12.5076270  27.1982980  10.7734251  13.1689572  27.4139833
   9.3682528  12.7223825  27.7561092  84.6613216  63.3385086  23.4295917
  83.9967155  63.0630541  22.7981973  84.2750740  64.0963221  23.8686419
  26.9358873  15.9185052  42.2251606  26.3899708  15.1648605  42.4492645
  26.9374275  16.4569294  43.0165672  32.5996447   8.6288142  69.2357492
  32.7205253   7.7043879  69.4526720  32.9016566   8.7039006  68.3305550
  20.5081224  16.8620694  22.1644354  20.3299856  17.4175572  22.9233384
  20.6372786  17.4771285  21.4424586  33.5782123  17.3019981  41.2350607
  34.2339230  17.8524435  41.6631794  32.7739763  17.8202045  41.2650537
  56.6073418   0.9355369  50.1478386  57.4100828   1.3722876  50.4325914
  56.5327644   1.1534249  49.2187548  18.5931349  69.3975449  36.1982369
  18.8910758  68.8234234  35.4926538  17.6582432  69.5170784  36.0311317
  39.0520477  16.2572122  59.4492865  39.7596264  16.0657883  60.0648499
  38.2959318  15.7861888  59.7995090  78.4562683  62.5493526  59.5461941
  78.7403202  62.3284674  60.4331875  79.0202761  63.2786179  59.2887115
  75.3845501  19.1574466  12.3253214  75.2606869  20.1018834  12.4198222
  75.6729889  19.0431345  11.4197993  10.9779859   0.6445632  50.9262562
  10.6383717   0.9493289  50.0848246  10.8266556  -0.3005579  50.9174776
  37.2536635   7.2086769  19.8150444  37.4187899   7.5442064  20.6961703
  37.6424503   6.3339907  19.8150706  87.7815437  62.3513412  32.5031781
  86.9032001  62.5978470  32.2134089  88.2194233  62.0470858  31.7082405
  68.1672239  69.9847698  31.6110468  68.8561058  69.3507195  31.8101668
  68.1957483  70.0783110  30.6588554  75.4165268  32.7091885  49.9945641
  76.1201191  32.3122430  49.4811201  74.8064137  31.9905591  50.1605940
  34.6895719   5.1360220  39.4668388  34.1085362   4.3774652  39.4100881
  35.5628538   4.7608572  39.5802426  13.5039043  43.6868000  53.1083632
  13.7549090  42.9026461  52.6201725  12.7814615  44.0615892  52.6045370
   6.2117481  13.1225693  38.3589411   6.1784375  12.9795408  39.3048096
   6.6241133  13.9808035  38.2608581   7.2877985  71.1541319  31.7528248
   7.5050151  71.7359781  31.0244679   7.7001864  71.5604067  32.5151300
  31.6493678  10.0320363  29.2621064  32.2569513  10.7550716  29.1062427
  32.0468974   9.2846048  28.8153982   2.0544584  28.9981556  47.7952576
   2.1750247  29.2092443  46.8694401   1.2077235  28.5532045  47.8311682
  20.3969193  10.3392911   3.9845324  21.0586643  10.7147086   3.4036830
  20.1437926  11.0624731   4.5582631  36.3754869  17.0772099  37.5717330
  36.5663290  16.9579852  36.6413593  35.5255413  17.5171816  37.5874257
  83.6735439  68.9224577  47.0584106  83.4604263  69.3231773  46.2156582
  82.8236485  68.7132835  47.4459076  34.2790508  14.2659295  63.3704901
  33.5697412  14.3296230  62.7309179  34.0656519  14.9248016  64.0312338
   0.9788682   6.7107159  44.8629665   0.5211962   6.0257453  45.3503942
   0.6116297   6.6627026  43.9803219  11.6063225   1.1290569  31.5646911
  11.8089652   2.0505968  31.4036560  10.8678567   1.1490268  32.1733785
  18.0537081  81.2783623  12.0116878  17.1641636  81.2240314  12.3609602
  18.1510854  80.4881382  11.4803743  16.1004412  57.9029322  37.4043322
  15.2614224  58.2133341  37.7448177  16.7327714  58.5636902  37.6868010
   9.9532115  13.4986210  36.0238504   9.2714125  13.0627525  35.5125761
   9.4817197  14.1432881  36.5514207  87.9476833  64.0704870  57.3556995
  87.1163559  64.2230558  57.8049803  87.7539253  64.2314625  56.4322376
  30.3567410  18.9174438  25.5448985  30.3714800  19.8106527  25.2011085
  31.1643791  18.5214567  25.2175665   5.7921076   2.3025565  23.3492160
   6.3766015   3.0422273  23.1834292   5.2269989   2.2661871  22.5774908
  35.4961681  22.9679918  36.3113379  34.7474265  22.5675249  35.8694744
  35.2738810  23.8975096  36.3644171  51.7322969  18.6210895  60.3977060
  52.4825716  18.0400848  60.2722120  52.0697403  19.4944382  60.1986504
   0.5559822  51.8772602  70.0219393   0.1898570  51.6290474  69.1730738
  -0.0596906  52.5229311  70.3687668   1.3664626  21.5433192   8.7615842
   2.2418469  21.8937635   8.9262724   1.1310303  21.0953856   9.5740861
   9.4060034  44.7832680  21.0482740  10.0104284  44.0778255  21.2790394
   9.9214286  45.5833340  21.1505628  13.2620192  82.3473740  56.6791296
  14.0548360  82.8614616  56.8320370  13.4255421  81.5165138  57.1254063
   6.9758344  19.4953763  36.3001919   7.8642929  19.5603144  36.6504145
   7.0973164  19.3944800  35.3561068   4.1565225  43.3094931  16.8825448
   3.5571426  43.5849047  17.5761735   4.0639558  43.9800501  16.2057769
  13.2246244  34.9801755  24.9042797  13.6128700  34.9523807  25.7787657
  13.1471229  35.9134412  24.7061849  54.0263271  41.3004160   5.2969146
  53.8041067  42.2314596   5.2939111  54.9757147  41.2803793   5.1765132
  32.1848583  23.2313323  21.7482662  31.9570351  23.9160824  22.3771095
  33.1030726  23.3977437  21.5351439   0.1087551  44.8201656  20.8371806
   0.6067066  44.2767715  21.4479184  -0.6165905  44.2621088  20.5566692
  39.5221066   1.8674417  65.9811115  40.3668404   2.2779322  66.1659288
  38.9448857   2.5975072  65.7573891  13.0348921  81.3586712  16.1174440
  12.2502780  81.0562515  16.5747809  13.6698389  81.5235424  16.8145013
  52.0814037  71.7949581  65.5313063  51.6936922  72.0224333  64.6862221
  52.7962542  71.1967659  65.3136110  34.0780306  60.6782961  57.6141310
  33.2487440  60.5087137  57.1671867  33.9441252  61.5158510  58.0577517
  30.2701688  38.0447245  34.2258644  29.3158698  38.1029582  34.1794729
  30.5784464  38.5732412  33.4897494  70.1802015  24.7724533  22.8343463
  70.3441381  25.6167078  22.4141192  70.7577324  24.7687006  23.5976791
  29.3866897  17.4609637  43.2764816  28.8106775  17.8985167  43.9033699
  29.4856548  16.5734732  43.6211538  17.0286024  17.1176803  40.5001736
  16.1879599  17.3446059  40.1026106  17.1140337  16.1749470  40.3580952
  25.5803370  31.0220599  25.8151293  25.6695533  31.6543603  25.1020598
  25.1446414  30.2695918  25.4148936  27.7272940  40.5722952  18.1725657
  28.2840061  39.7936940  18.1635273  26.8448305  40.2376270  18.0129206
  11.4465046  70.6803560  13.5411036  12.2710454  71.1424971  13.6920619
  10.8371639  71.3631201  13.2604396  39.1838408  10.0986874  26.7874622
  38.7846994  10.3930330  25.9687567  38.4490418  10.0128376  27.3948598
  77.2319984  33.8844275  35.9986091  77.9754877  34.2858028  36.4484453
  77.5568247  33.6990452  35.1174998  58.0659389  74.7897148  61.7832708
  57.1983147  75.1649237  61.9338751  57.8963327  73.8721514  61.5698576
  39.9526167  38.7070155  65.4612112  40.8076191  38.5194969  65.8485651
  39.5917583  39.4073200  66.0048914  15.7806361  53.4335375  19.0589440
  16.7251933  53.2790041  19.0717459  15.6910288  54.3791866  19.1770554
  61.8614483  15.2653444  65.4854155  62.3466730  16.0779190  65.3422022
  61.0165167  15.5492425  65.8343124  32.7794576  25.0799799  41.3604069
  32.6057887  25.3580284  40.4610968  32.4180007  24.1951275  41.4115572
  52.6258469  80.6056118  63.4331846  53.1853342  80.5963326  64.2097902
  51.7927027  80.9612274  63.7424469  74.5744324  32.1685815  68.7706184
  75.0969458  32.4445438  69.5236540  73.8212776  31.7187858  69.1535950
  12.3911762  27.7933002   9.4086421  13.3086216  27.9033470   9.6584707
  11.8974543  28.1523299  10.1459134   7.1620142  17.0556104  42.8739262
   7.2736287  17.5416577  42.0568991   6.2370223  17.1661532  43.0939293
  23.9909220   6.1118662  50.7773018  23.1748867   6.5523303  51.0146046
  24.0676975   6.2427819  49.8322105  39.1759896  10.6568897   3.8825941
  39.2832065  11.6078317   3.8614950  38.2400227  10.5181205   3.7378842
  21.5973210  16.6216123  30.3899360  21.4837861  17.3509204  29.7804666
  21.3035703  15.8529282  29.9009919  36.1776781  32.4776459  59.0030336
  36.6757274  31.8083692  58.5337305  35.7888031  33.0148220  58.3127785
  32.0187616  22.3519635  58.1511211  31.3722801  23.0383825  57.9864311
  32.0244241  22.2516918  59.1030359  67.0828867  48.1538439  28.1023717
  66.2877846  48.3615828  27.6115656  67.7952003  48.4866953  27.5564313
  84.9412632  82.4479389  60.1660013  84.3499374  82.4514294  59.4133043
  85.8123589  82.3347378  59.7857237  37.5509453  57.6785374  41.8613148
  37.5222349  57.0966864  41.1017990  36.6371322  57.7620745  42.1337128
  38.7084770  27.8275299  39.8293281  38.3163571  28.7007284  39.8296714
  38.5603333  27.4988008  38.9426374  76.5133238  38.1913877  27.1788669
  77.0503759  37.4100590  27.3104978  77.1437502  38.8861036  26.9886971
  23.2176495   6.9767743  48.0674982  23.6872792   6.8014425  47.2520590
  22.4043608   6.4783967  47.9874134   8.8119417  35.5149579  15.0592172
   9.1308463  36.4104247  14.9466407   8.0158257  35.6082320  15.5824113
  21.2927365  37.9173207  12.5533366  20.3445840  37.8151011  12.4709582
  21.4088440  38.4480929  13.3413923  84.7586250  21.7833209  47.3338556
  85.0290871  21.7353272  48.2507992  84.9207211  22.6929045  47.0836258
  36.8103409  50.9097338   2.6703718  36.2748981  50.1192713   2.7389902
  36.2268448  51.5612507   2.2814149  78.9093161  49.0733671  34.6688652
  78.9183855  50.0207090  34.5321441  78.2770157  48.9393091  35.3748798
  16.9075298  41.2398005  44.2047453  16.5842462  41.3602400  45.0976133
  16.4238143  41.8826675  43.6861181  53.2557297  13.0879319  19.0502250
  53.4210634  12.8754222  19.9687767  53.2374430  14.0446317  19.0252614
  53.4909821  19.5620549  22.7638388  53.4666157  19.3287921  21.8358159
  54.4159794  19.7292197  22.9445791  36.2948370  16.4254284  34.8801732
  35.5406141  16.9759798  34.6697664  37.0353103  16.8627918  34.4598818
  12.5362718  10.3769755  27.8986430  11.6480553  10.6292033  28.1509995
  13.0687177  10.5712950  28.6699867   4.1984677  40.1960468  28.8455629
   3.5314465  40.5048370  28.2324052   4.2564264  40.8876944  29.5047307
  43.8445997  15.9273720  20.5960894  43.8191557  15.0181198  20.2980208
  44.6441221  16.2840176  20.2090573  35.4143786  31.7673230  11.0761547
  34.7561002  31.6586351  11.7625153  35.7065415  32.6744080  11.1659801
  46.6469288  21.9827342  14.6124661  46.0629177  21.4286542  14.0946269
  47.5262833  21.7426848  14.3203187  12.0366418  46.1047125  14.8106253
  12.7481925  46.1194229  14.1705382  12.4627602  45.8782482  15.6372857
  19.3250239  25.5585766  61.1153173  18.8700342  26.3281679  61.4572906
  19.1718721  24.8786068  61.7713785  29.2855716  61.0055685  34.4026828
  29.2248917  61.9400501  34.6009064  28.8902378  60.5739069  35.1600528
   9.4652122  51.1476898  20.8913779   8.6246443  51.4550304  20.5519366
   9.3695837  51.1910009  21.8428040  56.8750572  42.6075745  10.4172313
  55.9872913  42.5851107  10.0600100  57.0230722  41.7212152  10.7469082
  14.8033226  40.8718729   6.7123866  13.9898062  41.2661791   7.0269424
  14.6896672  39.9338508   6.8654478  72.4676085  20.6713128  12.2251987
  71.9745970  20.8157015  11.4175332  72.2770834  19.7639441  12.4631393
  80.0041771  81.3065434  50.7741785  79.7741890  81.6228390  49.9005127
  79.2000437  81.4051437  51.2839651   6.7018992  82.6508331  34.5330524
   6.6817373  81.6942596  34.5611548   7.5454199  82.8609562  34.1323590
  79.9937153  25.9304619  35.4428148  80.4235268  25.7589602  36.2807178
  79.4500971  26.7012668  35.6058264  16.2491536  15.0049055  27.8981376
  16.3156426  15.7795823  27.3398495  16.2053752  15.3542006  28.7882543
   6.3268596   1.5485224  47.4029064   6.9209391   2.1760947  46.9912577
   6.3261491   0.7959215  46.8114519  43.5093069   5.9592068  54.2024946
  43.4696627   6.3170159  53.3155680  43.8227701   6.6863358  54.7403145
  36.2866354  32.9859281  22.1018696  35.9911084  33.0825329  21.1965728
  35.4989004  33.1262493  22.6272368  25.1343060   0.4267992  40.4447031
  24.8671603   0.3203617  39.5317197  25.0595236   1.3669828  40.6080866
  68.5729933  65.1882696  30.8096027  68.0650187  65.5410194  30.0790143
  69.1341352  65.9137440  31.0835266  23.3188581  46.9006681  35.0950384
  23.5503864  46.6692257  35.9945154  23.1433964  47.8410959  35.1273036
  39.1424155  27.8117061  42.6958704  39.5415258  28.6298895  42.4000359
  38.7947369  27.4127102  41.8982792  37.5082946  35.3782320   4.4522619
  38.0907226  34.6912766   4.7764528  37.4040437  35.9737849   5.1943415
  81.4206409  20.5436611   5.5725884  82.1470547  20.1144743   5.1205361
  80.8240891  20.8064270   4.8716533  67.1507025  39.3277240  15.5471981
  68.0900955  39.4892097  15.6349063  66.7801285  39.6094632  16.3835764
  17.9789793  81.0348129  36.1445928  18.0267715  81.9826317  36.2694168
  17.7619612  80.9257984  35.2187133  23.9179468  29.9961948  45.2596140
  22.9995275  29.7581434  45.1328373  24.2405558  29.3696499  45.9073734
  29.8246670  24.3575287  63.6223936  30.5174041  25.0036478  63.4850025
  29.0476179  24.8787451  63.8242817  50.1689196   5.1827985  55.8411741
  50.3141117   5.2417547  54.8968887  50.6823301   4.4229221  56.1154604
   8.9905566  30.3106642  46.2472630   9.4950730  29.9613118  45.5126572
   8.9691406  29.5965171  46.8842649   4.8743868  80.0171947  20.9473395
   4.4172719  80.0731468  21.7864752   4.1856700  80.1266479  20.2916574
  52.4698544   3.0551344   1.7291953  52.2724915   3.9686093   1.5222073
  53.4257030   3.0069670   1.7128351  28.5388207  37.7122307  18.4551632
  28.0683303  37.2709680  19.1623831  28.4175134  37.1430802  17.6951742
  82.5504875  11.2318790  21.1017752  83.0878162  11.9873452  20.8634758
  82.5008106  11.2650907  22.0571065  24.6190143  33.9466095  15.7383108
  25.5124474  34.0746903  15.4195535  24.1237307  34.6739316  15.3615749
  54.8825645  14.5259142  55.0297642  53.9781952  14.6931326  55.2950621
  55.0524044  15.1675975  54.3401051  15.0977671  19.7413802  44.8354435
  15.5991518  19.0805042  44.3578577  15.5681324  20.5597997  44.6767664
  30.2847075  29.3630290  71.3709116  29.6383572  29.6701908  70.7352114
  30.6813455  30.1633573  71.7149830  84.2893124  78.7643003  13.5959196
  83.4916687  78.4326315  14.0082026  83.9975262  79.1073227  12.7512729
  20.2017617  30.0036764  50.9421492  19.3710506  30.4748297  50.8776236
  20.3174901  29.8495293  51.8797398   6.3944614  80.1633835  24.5502639
   5.5804116  79.6623945  24.4996452   6.2370604  80.8069515  25.2411151
  36.8302536  72.2964764  35.1140499  36.0815001  72.7081156  35.5455041
  37.0676374  72.9048443  34.4142151   4.6772319  32.3156309  29.9886274
   4.2255852  32.9742241  29.4608927   5.4224718  32.7819896  30.3672552
  12.8950715  13.3878434  35.8095026  12.9740489  14.0267611  35.1011395
  11.9517243  13.2769990  35.9279966  27.2901773  31.3683224  15.1700497
  27.9315948  31.6431046  14.5148301  27.8070998  30.9144115  15.8356225
  18.6937976   5.9543395  29.2060184  18.6334884   5.9867197  30.1607680
  19.0393555   5.0818658  29.0173101   6.9377619   3.8337192  32.4888206
   6.1800563   3.3107597  32.2268510   7.3709571   4.0571359  31.6650128
  67.3828411  12.1198058  19.0772593  66.5829325  12.5332332  19.4020021
  67.0750523  11.4453864  18.4717357  14.6550822  31.0671258  43.1879234
  14.3855488  31.8597627  43.6519384  15.5165052  30.8590293  43.5496902
  14.6088910  17.0144522  53.5076475  14.6503985  17.8015602  54.0507603
  13.7649441  17.0763850  53.0602694  32.9158974  16.3002646  51.8016243
  32.1181822  15.7737696  51.8534517  33.2155871  16.3708568  52.7079535
  59.7292376  60.5567694  53.9254570  59.0954971  61.2308550  53.6800718
  59.4893408  60.3169584  54.8205376  24.8000455  46.5860319  13.4469652
  25.6828856  46.2968397  13.2163215  24.7929907  46.5938950  14.4041061
   1.6897547  25.0460768  62.7412510   2.2537741  25.3171492  62.0169353
   1.2256216  25.8438611  62.9949236  26.8138242  55.2429295  48.8105583
  27.1400142  56.1428118  48.8035679  25.8870173  55.3223610  48.5848284
  28.8772440  26.1168909  14.1904151  28.7536454  25.1840878  14.3660104
  27.9891992  26.4690423  14.1304314  10.0042558  42.1387959  40.8848619
   9.4233823  42.3960733  41.6008425  10.8836591  42.3363400  41.2071323
  19.0486813  11.2327838  14.9314713  19.3198192  11.1497033  15.8456993
  19.7107542  11.7996955  14.5358658  10.9556162  54.2994070  40.9993982
  11.2942660  54.0594673  41.8619394  10.0045764  54.3022251  41.1077785
  55.2329493  72.8526115  40.9277725  54.6907330  72.5952244  40.1821280
  55.5397034  73.7324047  40.7084799  29.9136066  15.6407356  17.1059966
  29.4779706  16.4076066  16.7340267  30.1113367  15.8917570  18.0082846
  45.7609797  66.1777353  55.1545095  46.1019897  66.9421244  54.6901226
  45.5537844  66.5025759  56.0307407  70.7784033   8.8398206  61.9408798
  71.5035677   9.0507305  62.5289965  70.2371073   8.2268137  62.4383259
  34.8922682  37.8722334  26.1171007  34.4686604  37.2909498  26.7486882
  35.1864219  38.6189961  26.6386843   8.4821063  78.4173536   4.8616108
   8.5803562  79.3686676   4.8219121   7.7366191  78.2777214   5.4455483
  54.7445154  70.1360893  22.3200965  54.8662996  69.4657373  22.9924273
  53.9204407  70.5631113  22.5541401  67.1890879  75.9993410  69.3956470
  67.1227598  76.1129618  70.3437662  68.1012869  76.2066555  69.1928101
  53.1561708  35.0487447   8.7456357  52.9680681  35.9243178   9.0835989
  52.3043299  34.6127701   8.7226599   2.5822324  68.5431051  37.8894782
   3.2656619  67.8822279  37.7781343   1.8275045  68.1887341  37.4193287
  10.7818830   7.9293883  45.1016235  11.6577160   7.8471053  45.4789543
  10.9289110   8.3100992  44.2357874  18.2103264  77.8996325  13.2487738
  18.8533127  77.1911764  13.2188869  18.3562446  78.3898067  12.4396563
  54.6081686  36.9338322  12.4240696  54.2286396  36.2782097  11.8389642
  54.1936207  37.7562451  12.1632659  18.8624501   5.9738183  55.1223755
  18.2651031   6.1303908  54.3910122  18.4306622   5.2969861  55.6436110
  12.1927428  54.9853182  54.2729998  11.6169143  54.9584389  53.5088491
  12.2899985  54.0689659  54.5319700  25.9505177  40.5354738  25.6845784
  25.8633828  40.5456781  24.7314072  25.1763535  41.0011625  26.0008597
  71.8459415  72.0374250  19.2714512  71.3310146  72.7730036  18.9397764
  71.3987064  71.2609243  18.9349139  11.4290857  27.9370785  35.2160597
  11.9423962  27.1499228  35.0340509  11.1220443  28.2267499  34.3569636
  31.3073230  33.2692289  53.1416845  30.9749508  32.5579524  52.5941038
  31.5659928  33.9494038  52.5198460  49.0179920  21.5388370  13.4323549
  49.6022654  21.4975429  12.6752889  49.5224667  21.1480784  14.1458297
  30.6831455  39.0469027  17.3975754  29.9638462  38.5814667  17.8244352
  31.4245534  38.9402556  17.9935408  62.3882484  82.3388290  58.0591202
  62.7834606  81.4677525  58.0945301  61.9930029  82.3873138  57.1886826
  15.6706202  28.5634327  15.7029724  15.1430809  28.1556225  16.3897228
  15.7491219  27.8885818  15.0286984  22.2953796  10.4855001  13.2442296
  21.9862461  11.3172400  12.8852344  22.1803808   9.8588026  12.5299060
  72.9822588  75.8647776  37.4829626  72.4629164  75.1391029  37.1366787
  72.7621603  76.6069078  36.9199085  12.3338687  17.0632625  51.8105412
  11.6196132  16.4295483  51.8774557  11.8957937  17.9070663  51.6995573
   9.0297806  33.2888722  24.1217899   9.8371369  33.3301950  24.6343327
   8.3879757  32.9010940  24.7167230  14.2490911  31.1583805  19.9639595
  13.3911717  31.4602280  19.6654701  14.1053772  30.2488375  20.2253199
  12.7444971  47.3960543  32.7570295  12.7693176  46.6746950  33.3857250
  11.8854892  47.3219728  32.3412776   3.4579012  44.7773886  28.5287380
   3.2781059  43.9607334  28.0629301   3.2650203  45.4644537  27.8907990
  27.9788828  74.2009687  67.1178961  28.7907696  73.7300634  67.3058414
  28.2370114  75.1223278  67.0915031  87.3065567  82.5235081  58.8784981
  87.0306969  82.1038532  58.0636215  87.3803425  83.4517574  58.6568213
  31.9674110  11.9023156  38.6346364  32.6439667  11.2975299  38.9391589
  31.7163086  12.3941648  39.4164705  15.8500421  69.5760393  53.5140991
  15.7720363  68.6283112  53.6234665  15.1062286  69.8153639  52.9612017
  86.8052864  36.0211539  15.2218711  86.6597176  36.9241643  15.5040276
  87.6641750  36.0376573  14.7996545   3.6412549   4.4985276  47.9264545
   3.1114376   3.8802388  48.4296894   3.2193083   4.5321310  47.0679283
  22.8025150  12.9665244  20.7644105  22.4370193  13.1080627  21.6376877
  22.2731733  13.5203624  20.1905704  23.2101989  31.9815254  20.3947115
  23.3421898  31.1325979  20.8167672  22.3119068  31.9483805  20.0657701
  20.5248356  37.8764033  20.3581357  19.6218145  37.5928760  20.5009508
  21.0238743  37.4449468  21.0517049  19.4544864  50.4933405  15.1807225
  19.0309095  49.9148321  14.5465732  19.5370519  49.9614954  15.9722757
  45.3056526  74.2646694  58.4837961  46.0464096  74.5969725  57.9767561
  44.6595383  74.0099716  57.8250933  73.0058765  79.5466471  16.5309060
  73.2630253  80.4500675  16.3466859  72.7619791  79.1882753  15.6774902
  68.4343815  14.1841125  25.4285717  67.7496767  13.5193598  25.5028200
  68.8794374  13.9787495  24.6063852  18.4422421   1.9935566  69.4123840
  19.0605533   1.4845251  69.9366045  18.9265203   2.7829427  69.1703606
   4.4319394  58.7919331  71.0080767   5.3157842  58.4618759  71.1696720
   4.3821186  58.8874626  70.0569582   2.6322326  23.4527802   2.1179424
   2.4182831  23.4559894   3.0509201   1.9911441  22.8589892   1.7272401
  83.4959126  57.1998739  10.6815946  83.7211037  57.8247452   9.9923557
  82.5395203  57.1628666  10.6681907  25.8987617  60.1468134  32.6231217
  25.7367277  60.6596470  33.4149432  25.0371099  59.8129272  32.3735046
  62.0500612   7.5103223  17.2980464  62.6095057   7.0095569  16.7043400
  61.5455103   6.8467289  17.7684760  18.0664682  19.1573262  47.8196430
  17.7112722  20.0345659  47.9628897  17.8529119  18.6787224  48.6206198
  59.7514248  24.0080214  38.4912491  60.0473738  24.7981882  38.9432263
  59.0202808  23.6890817  39.0203357  42.5284290  76.8954134  40.0271654
  42.6954889  77.3602772  40.8470583  43.1353283  77.2893763  39.4005084
  74.5404720  38.4138250  58.5907412  73.7850428  38.8773584  58.2292223
  74.2974472  37.4890256  58.5469532  87.1602058   3.2886481   1.9359624
  86.6148663   3.7021172   1.2667209  87.2577000   2.3836100   1.6399355
  68.7085581  73.6323357  37.3056483  68.3127069  73.0697298  37.9712391
  68.9817619  74.4145823  37.7848983  18.9859259  22.3618221  39.1228342
  18.6401939  22.2996688  40.0132513  19.1179228  21.4529276  38.8531661
   4.3015370  26.2570477  27.7472520   4.0132529  26.8870378  27.0867705
   3.9611545  25.4164219  27.4411130  74.0057898  78.8941956  25.7859993
  73.1945276  78.5523081  25.4102349  74.4469595  78.1240225  26.1443782
  54.3534088  23.8717055  18.2003939  54.7367382  24.3755436  17.4824524
  55.0966215  23.6514044  18.7619412  76.1951160  74.4089603  43.0221415
  75.4982328  74.2216158  43.6510229  76.8487930  73.7275314  43.1789494
  12.4852049  15.6617093  67.9895687  12.8793824  14.8341572  68.2652712
  13.2309532  16.2254095  67.7838182  30.8950233  17.9127133  28.1038904
  30.8980083  18.6841011  28.6706209  30.4065156  18.1874788  27.3279428
  26.6891623  10.9203637  15.7138550  25.7744527  10.7898867  15.9638894
  27.1499705  11.0386550  16.5444529  59.4024420   8.4303695   2.6142049
  59.6521473   8.5635990   3.5286057  58.4483528   8.3560795   2.6348504
  13.4342504  46.1842060  23.3182740  13.9501917  45.4134703  23.0816221
  12.9705667  46.4181471  22.5142217  46.9576073   4.0680978  40.7634544
  46.5134001   3.6391440  41.4948320  47.0204544   4.9862510  41.0266638
  23.9302230  35.8392406  46.0384321  23.3815527  35.2157187  46.5142632
  23.3082128  36.4263153  45.6086922  45.0743055   8.0019426  55.4975557
  44.8897839   8.9092690  55.2547789  44.7474384   7.9225791  56.3937092
   2.8315988  76.0269785  26.1189532   3.0057964  75.1548672  25.7649684
   2.7188495  76.5808773  25.3464794  14.7501945  20.9976649  65.8043480
  14.0153635  21.0914946  65.1981688  14.5381308  21.5842438  66.5304232
  71.5351772  21.1522961   7.3813742  70.7882738  21.7355490   7.2465181
  72.2928238  21.7364860   7.4117965  24.1314697  75.9418535  49.2016268
  24.3514633  76.5951157  48.5374880  24.6903038  76.1607885  49.9472857
  21.9403243  47.6015472  15.8813739  22.0229602  47.6313257  14.9282122
  22.3291540  48.4231949  16.1812782  32.6000667  53.3527517  21.4919996
  33.1804132  54.1054058  21.3782668  33.0517745  52.7956390  22.1258879
  48.8551807  11.6204715   9.8308581  48.4820032  10.7439661   9.7375542
  48.4973955  11.9464552  10.6566656  20.3278756   2.0420067  33.8662672
  20.1171613   2.1420676  32.9379249  20.4395866   1.0989461  33.9862204
  22.6425195  39.4594598  19.4963324  23.0719399  39.9114752  20.2226329
  21.8885303  39.0260530  19.8961997  24.0425134  77.2648668   9.0633833
  24.9392319  77.2048378   9.3928164  24.0993810  76.9613552   8.1573594
  13.1089187  70.1760960  25.4845619  12.2822011  70.0546217  25.9514809
  13.7806630  69.9183273  26.1158681  16.7575169  44.0341187  58.9097357
  17.4161899  43.5892820  58.3763456  16.2169981  43.3269453  59.2618418
   9.3020833  81.7976284  61.9499016   9.1671759  82.0679569  62.8581715
   8.8998038  80.9307575  61.8957472  44.5421219  19.5736480  25.0643325
  43.7624168  19.1892457  24.6636748  45.0016308  18.8305211  25.4552865
  23.8627887   3.5735139  18.7761629  24.4425297   2.8249568  18.9168525
  24.3615723   4.3259135  19.0945041  43.3591890   2.8305167  45.0519991
  44.3144512   2.8448030  45.1111841  43.0862761   3.6888361  45.3760958
  20.6735778  42.4037361  12.7127326  21.1574268  43.1690359  12.4021912
  21.2958717  41.9371128  13.2706273  12.0225000  38.4516120  31.3973594
  11.6524363  39.1944551  31.8742967  12.2813559  37.8332520  32.0806265
  39.7539449  43.0646849  27.5999928  40.2040052  43.0018568  28.4424472
  39.4131279  43.9588451  27.5766110  40.1371336  42.1425295  15.3619146
  40.2160835  41.1978388  15.4944253  41.0319853  42.4359560  15.1905346
  65.4447126  15.1178312  18.0626297  64.5029116  15.0406277  17.9100478
  65.5304527  15.1590741  19.0150893  30.4743910  42.8670788  27.3844433
  31.1503744  42.1903706  27.4211216  29.6502137  42.3869085  27.4644375
  55.1150227  44.0596008   6.7589372  54.2442179  44.0601254   6.3615376
  55.6996202  44.3411016   6.0552073  21.4621258  62.8252554  46.0413313
  21.0429144  62.0928144  45.5896473  21.8261743  62.4387550  46.8377686
  40.1528692  36.6654325  34.6374249  40.4880857  37.4738932  35.0250459
  40.9014750  36.0689497  34.6426558  35.6668282  54.1231918  19.5905590
  35.9282565  54.6990538  18.8720393  35.0701380  53.4927082  19.1872239
   9.4241601  43.5394859  14.4371140   9.7458363  43.9267015  13.6229765
   9.1417032  42.6593494  14.1885066  16.2835753  39.2869282  22.3663902
  15.6755412  39.1245651  21.6451669  15.7384717  39.6577883  23.0603337
  20.3908706  13.3459866  14.0912437  20.1746511  14.2783916  14.1014016
  20.8446240  13.1962919  14.9206591  35.5087280   6.8460548  44.2877531
  34.8775697   7.5639528  44.3376970  35.0526142   6.1595660  43.8010025
  44.9064445   9.2166722   1.0726718  45.2368927  10.1115525   0.9937727
  45.6497431   8.6645997   0.8298577  23.6882114  66.5271568  30.4833722
  23.9230657  65.5993128  30.4698634  23.8814378  66.8360424  29.5982265
  61.5262032  30.5646443   0.2453325  61.2669611  30.0878024   1.0337784
  61.7119694  31.4520431   0.5523252  17.6093554  57.5050831  41.7936563
  18.4931481  57.2621393  41.5177584  17.5288928  58.4282827  41.5539360
  81.2864017   6.3896662  20.4733062  81.1988926   7.1929646  19.9601912
  80.9983921   5.6947756  19.8813522  69.7054720  57.9195356   0.5205790
  70.1501703  57.4507475   1.2267725  69.4568300  58.7581968   0.9092364
  47.6351070  38.3755469   7.7431035  47.2684574  37.6032066   8.1735611
  48.0761576  38.0303741   6.9668555  60.6517696  33.9423108  17.9086089
  61.2694645  34.2252254  17.2343326  60.9545898  34.3743229  18.7072921
  36.4410520  26.6853571  13.5516286  36.6915345  27.5969934  13.4019303
  37.1552539  26.1749721  13.1699824   9.6939021  78.4536791  48.1187725
   9.3315768  77.5691319  48.1689882   8.9305997  79.0187311  47.9991102
  40.5751944  55.4782629  39.6972847  40.5397272  56.4325237  39.6312714
  39.9195910  55.1703596  39.0714955  64.3415594  71.2642527  70.4753017
  64.5387983  71.9050789  69.7921658  65.1988840  70.9869146  70.7982683
  31.3759708  37.4710846  28.7140226  30.8208013  37.1264458  28.0145621
  30.8552003  38.1691527  29.1111803  21.5285182  42.6628113  31.3094354
  22.3339248  42.4244499  31.7684984  21.4831400  43.6159754  31.3845587
  31.7192984  20.5897093  22.4362683  31.7759418  21.5271640  22.2513318
  32.1212506  20.4911351  23.2993722  26.5663171  27.3513865  13.4710383
  26.6273785  28.1526279  12.9509270  26.1383319  27.6245952  14.2824674
  79.2656040  10.1715267  13.8878417  79.6794987   9.3436199  14.1317606
  78.5167265   9.9154454  13.3494794  36.9571781  34.7928500  36.0350537
  37.2460771  35.2430844  36.8288159  36.9994330  35.4616022  35.3515196
  49.4944572  44.7702408  17.0788944  49.4359303  45.5572367  17.6205993
  48.8033342  44.8773718  16.4253616  39.6160555  41.1867189  31.6596293
  38.8921785  40.7207394  32.0780730  39.2614365  41.4740515  30.8182502
  46.8144417  65.5352736  10.5181503  47.3279619  64.8573494  10.9574127
  46.6005945  66.1603069  11.2108529  57.9213905  34.5580816  18.4870613
  57.6269388  34.4426584  19.3905032  58.8669491  34.4136357  18.5230207
   8.3889848  35.5193400  42.7564383   8.2390952  35.4342699  41.8148804
   8.3652568  34.6205783  43.0849123  24.2501926  36.3746381  13.9788377
  23.4970880  36.6356874  13.4488189  24.1145730  36.8119001  14.8194575
  28.8663602  52.4857759   9.4169486  28.6308146  52.4334908  10.3432393
  28.5539722  53.3466911   9.1386014  60.6893826  64.9084568  70.5605078
  60.9638643  65.5395555  71.2257957  59.7359085  64.8772573  70.6388760
  34.4034791  47.1862411  36.8385053  34.1117692  46.4706278  37.4033403
  34.7248030  47.8539181  37.4444699  39.8682785  52.1316290  17.1291685
  39.7157311  52.6732159  17.9035366  39.0411663  52.1627665  16.6483903
  83.8045883  63.1565571  53.0681705  83.0035496  63.2071877  53.5897112
  83.7552261  62.3041487  52.6355124  66.6061926  26.2468219  13.7397540
  67.2150993  25.5087590  13.7667072  67.1172571  26.9654894  13.3675170
   9.8461264  57.6293898  36.5317917   9.1101694  58.0852413  36.1233854
  10.5953419  58.2076311  36.3884711  18.9474916  59.6544409  30.4195642
  18.1808770  59.0820694  30.4499435  18.6418796  60.4402637  29.9664402
  72.2027493  77.8135347  35.7975340  71.4334393  78.3474684  35.5992579
  72.9307604  78.2810354  35.3880477  58.4515285  53.7246895  11.3418424
  59.2177200  54.2827749  11.2086833  58.4267092  53.1631088  10.5670905
  30.5857372  53.4093094  24.1181183  31.4034605  53.0426264  23.7818074
  30.6921840  53.3994961  25.0693297  81.6488075  45.8464956   4.7096249
  81.7142487  45.7057905   5.6541628  80.7112885  45.7935286   4.5239639
  17.1106148  38.0604124  27.0269012  16.8691695  37.8776884  26.1188555
  17.9333234  38.5454917  26.9630122   2.3610267  64.4866705  59.4322395
   1.7083070  64.1509199  58.8178635   1.8495321  64.9493504  60.0959635
   1.4191449  50.4227161  45.2134657   1.7002498  50.1817989  46.0961723
   1.3208440  51.3743401  45.2447653  22.3745441  65.6139755  21.0973048
  22.6784992  66.1945343  21.7950106  21.8155837  66.1673307  20.5517817
  26.9684315  65.1396418  20.5034184  27.5216365  65.1038265  19.7230899
  27.1331167  64.3102741  20.9520388  10.1552999  73.6992741  53.6839581
  10.9366918  74.2279339  53.5221577   9.9495423  73.8519955  54.6062231
  29.8985362  33.9681172  19.6310914  30.3738856  34.5539308  19.0419424
  29.2106485  34.5156169  20.0096178  26.6096640  49.5129776   8.7589288
  26.6454697  49.3222380   9.6962488  25.6762481  49.6079254   8.5693163
  28.8303733  42.3032475  31.7148972  28.0990171  41.9023132  32.1845794
  29.6034479  41.8362379  32.0319009  12.5558352  21.4674306  38.9286137
  12.8242552  22.3655462  38.7347817  11.6576922  21.4102244  38.6025786
  75.8792496  20.5237508  38.2007170  74.9314737  20.4542017  38.0861759
  76.1026192  19.8040760  38.7909746  41.6855621  52.8607655  30.3762984
  40.8615494  53.1950665  30.0220728  42.0297241  53.5818243  30.9034181
  30.8935905  45.7600927  39.5037818  31.3290477  45.7276583  40.3555775
  29.9887753  45.5075884  39.6875787  56.0300446  57.3322201  66.2612009
  56.0741520  58.1966257  65.8524418  55.5214071  57.4707556  67.0601511
  84.0020180  36.5770316  55.1808643  84.7295094  36.1693287  54.7109938
  84.3746567  37.3769879  55.5516005  60.2398968  63.9015627  32.3150682
  61.0306644  63.3754110  32.1964073  60.5634022  64.7673559  32.5640297
  38.9801335  54.1865635  45.9172153  38.6386108  53.3405590  45.6276131
  39.1999698  54.6462011  45.1068878  40.0133419  13.4162414  16.6742265
  40.2852440  14.0802586  16.0406792  40.7132864  13.4072661  17.3270881
  78.5576153  72.8339052   0.9579577  78.0390024  73.5604668   1.3034809
  79.0994644  73.2297516   0.2753600  29.3183565  72.6813030  11.8765306
  28.7910914  72.0945263  11.3343930  28.8604617  73.5208988  11.8360174
  62.1447945   8.7393486  52.5762463  61.5012074   8.5357118  51.8975973
  61.7287970   9.4209749  53.1040382  30.4003787  73.9042234  46.4657164
  29.7968721  73.2898712  46.0478878  30.3886032  73.6596251  47.3910618
  81.8048859  50.9933186  14.3464649  81.3358498  51.8261147  14.3983555
  81.4872742  50.5894756  13.5388350  54.5167732  51.3934231   3.0127093
  54.9797583  50.6971788   2.5467497  55.2066660  51.8783617   3.4656096
  61.5082979  72.1618080  42.9208660  60.8702707  72.2149801  42.2092962
  62.1953392  72.7805948  42.6732588  45.5234480  71.5309668  25.8554816
  45.7917309  70.6248522  26.0078621  45.2970219  71.5606165  24.9259210
  52.4647141  78.0842686  58.2208490  53.1416368  77.4708271  58.5066795
  52.8346443  78.9490175  58.3985806  25.4120421  43.2134771  63.6679411
  25.7557702  43.9942312  64.1021204  26.1638498  42.8482962  63.2014084
   5.1475298  46.8296719  25.2889919   4.8965621  45.9073067  25.3389335
   4.9134150  47.0937538  24.3992257  49.1962051  58.1603384  37.1583843
  48.8242054  57.5025892  37.7459335  49.8156214  57.6731968  36.6150165
  23.5610867   9.0724516  66.7452765  23.6331630   9.9432415  67.1361208
  24.4603848   8.8372666  66.5168381  70.1659250  61.9166517  18.9117265
  69.8763466  61.5169191  19.7318423  69.5795774  62.6632261  18.7890303
  53.4497166  79.6148062  18.9197838  53.0845737  80.4519367  19.2063415
  53.2992125  79.0229750  19.6568847  36.4129400  65.1212072   6.3725388
  36.4156389  65.0711155   5.4166543  37.0724201  65.7833767   6.5795416
  53.8508558  79.3173742  38.0910611  54.5388794  79.7094011  37.5533175
  53.0373621  79.6817017  37.7421665  76.6289186  44.3369436  20.5508041
  75.9767532  45.0134420  20.3684258  76.9173098  44.0431070  19.6866715
   7.0141447  42.2846603  47.2638178   6.6755754  42.8876066  46.6019583
   7.4845994  42.8455496  47.8805113  87.2373390  35.1701140  43.9240742
  86.5776348  35.1454997  43.2309580  87.0317459  35.9610653  44.4224358
  34.2188978  65.5762911  34.3359613  34.6325994  65.7486486  33.4901643
  34.8137403  65.9651279  34.9772120  38.0408478  44.9907923  16.6939294
  37.4519825  45.4374838  17.3021543  38.4633851  44.3141890  17.2229910
  69.3753767  75.9250593  34.1297984  69.7674084  76.4879322  33.4621763
  69.9661398  75.9956741  34.8796296  35.8888316  58.5524750  48.1943226
  36.6579223  59.0319204  48.5023260  36.2269592  57.6926708  47.9440451
  43.4282732  32.7782655   1.6909781  43.3639240  33.7172604   1.8652758
  43.4767628  32.3764229   2.5583899  15.8841240  -0.1020150  66.4343882
  16.6815174   0.4134072  66.5557718  15.1878023   0.5496740  66.3527155
  48.8567305  60.2102518   6.6997385  49.4873476  60.4577351   7.3759818
  48.4719563  61.0395241   6.4160430  74.5293951   2.5672024  69.4920778
  74.3575764   3.5026383  69.3840456  75.0206375   2.3218024  68.7080574
  43.9549494  70.8209753   2.6615083  44.7282076  70.4393959   3.0770800
  44.0466213  70.5985594   1.7350319  24.7538066  59.3968773  41.8564463
  24.4895506  58.6978769  42.4546099  23.9325595  59.8177576  41.6021919
   8.4365517  58.2115412  31.6327095   8.9059496  58.7335777  32.2833848
   7.5763416  58.0585337  32.0236802  21.0942101  11.2888765  66.3754416
  20.2275777  10.9781957  66.1134148  21.5596414  11.4245892  65.5500984
  74.7695065  47.5567436  13.7766707  75.0560570  48.3158064  14.2845571
  75.5724144  47.0628357  13.6104429  51.5234470  69.6920013  33.0549240
  51.9238281  68.8607693  32.8000093  50.6050730  69.6036530  32.7999377
  16.3093007  64.9528408  39.3506169  16.8131196  65.7542181  39.4927216
  16.1241674  64.9496794  38.4114957  83.9171124  31.8430829   1.2386785
  83.3063793  31.1159921   1.3594040  84.3415260  31.6626310   0.3999029
  55.1421499  63.8146114   0.6536759  54.8655701  64.6811771   0.9516672
  56.0717773  63.7698507   0.8773250  64.8771620  27.2861838   8.8083780
  65.2569342  27.5564289   9.6444231  64.4063711  28.0596495   8.4979963
  43.1834269  46.1716986  36.8323159  43.3713007  46.7256784  36.0746622
  42.7070618  45.4244709  36.4704323  57.3486137  60.0498056  41.8499422
  57.0418262  60.4482031  41.0354567  58.2870817  59.9192286  41.7140675
  42.6511335  81.4902115  48.5002899  42.1793699  80.6641579  48.3939505
  43.2671022  81.3241005  49.2138863  67.4880552  30.3368950  47.8492641
  68.2551527  30.6580567  48.3232355  67.1202946  29.6610761  48.4186935
  75.5324411  14.1393149   2.9414937  75.4381371  13.8753247   3.8567245
  75.9546185  14.9974263   2.9820138  27.7509689   8.3465379   0.4742325
  26.8087125   8.2163757   0.5811974  28.1098413   7.4611497   0.4148126
  47.6197052  59.7309017  35.7981300  48.2968903  59.1818571  36.1933517
  47.9944563  60.6116915  35.7995272  57.1108675  61.7135000  35.9560633
  56.2235880  61.3575029  35.9088254  57.6323891  61.1309385  35.4039097
  27.6941204  66.8082476  70.9411001  27.0199800  67.4675608  70.7765627
  28.4477639  67.1036196  70.4302073  32.7591085  66.7609501  26.1178946
  32.5364780  65.8649063  25.8653688  33.6246991  66.6884089  26.5200400
   5.1023972  47.6981735  31.7013502   5.3679132  46.9905949  31.1139250
   5.1759452  47.3217106  32.5783348  24.0441608  31.0996199  15.9702289
  24.2502260  32.0342088  15.9525418  23.8042879  30.8901191  15.0675642
  59.6555710  60.7208538  23.1746626  60.5417919  61.0821104  23.1931329
  59.1105556  61.4396191  22.8544116  67.0297432  25.5372906   9.7709823
  66.6698408  24.6820879  10.0061965  66.2959146  26.0043049   9.3714482
  61.1927795   2.8235337  29.8080015  61.1498594   2.1108566  30.4455614
  60.5476189   3.4598887  30.1163125  45.2374125  59.2387533  17.2974372
  45.1642847  58.9623594  16.3839340  46.0162687  59.7948122  17.3178101
  70.7347822  49.1113424   9.4002688  70.5031395  48.2423067   9.7279119
  69.9274683  49.4417667   9.0061909  63.2532597  22.7960467  43.2337952
  63.8815880  23.0758023  43.8995028  63.6597729  23.0413461  42.4026442
  45.5619240  58.8691139  42.0879745  46.4633799  58.5666800  41.9777775
  45.4000950  59.4230556  41.3243055  32.1044540  66.7108965   1.3979562
  32.6218367  66.8093824   0.5986774  32.7316380  66.8488503   2.1077737
  83.3721828   1.1358398  38.6358643  84.0961266   1.6622528  38.2966995
  83.7555408   0.2723964  38.7899375  76.9568634  49.4960690  18.8488615
  77.7376699  48.9731121  19.0307677  77.2221851  50.3962135  19.0374827
  20.0694156  56.9521856  27.0773506  20.1835322  56.2621498  27.7308512
  19.1711628  56.8409300  26.7659116  54.7822571  37.0689654  45.2951431
  54.2261696  36.9631934  46.0670328  54.8734426  36.1837673  44.9425268
  75.6142473  65.4680490  47.1117067  74.8973179  64.8430824  47.0037270
  76.3793182  65.0194502  46.7516232   0.4750126   4.4667712   9.9990088
  -0.1867789   4.2212388   9.3524969   0.0294057   5.0896382  10.5732059
  42.2187233  81.0876179  10.9168136  42.3491573  80.5396748  11.6907465
  41.5911818  81.7535400  11.1978257  41.8569756  50.9892797   4.2019644
  40.9080076  51.0912800   4.2746335  41.9922686  50.6229210   3.3280599
  49.5272875  77.7841902  28.0308032  49.1291523  78.5785675  27.6748753
  49.2536068  77.7693415  28.9479232  74.5148611  70.1432514  27.9425144
  75.3236008  70.5114031  28.2983732  73.8563013  70.3171396  28.6150408
  35.6349301  14.9620926  43.4981585  36.1955237  15.4322982  44.1153097
  35.3059578  14.2135358  43.9958239  44.8952150  51.9446516  44.9938011
  45.6058598  51.5929747  44.4575787  44.1471291  51.9924784  44.3985605
  85.0354481  68.6422539  22.4313211  84.1783714  68.7637949  22.8398323
  84.8425007  68.5193825  21.5018559  12.8770530  74.0335274  69.7365236
  12.4661291  74.4213343  70.5091667  12.4915922  74.5051050  68.9981031
  21.5616298  56.2906313  44.9258804  20.9511375  55.7651854  44.4087362
  21.7435932  55.7553387  45.6982708  51.7028475  42.8213072  20.4267359
  52.0836163  41.9677401  20.6332898  51.7384434  43.3054161  21.2517238
  38.9832520  57.6203108  24.9402261  38.0878472  57.2836590  24.9063158
  39.5196772  56.9100285  24.5881200  73.6968851  41.1324167  10.1622617
  73.3673811  40.7831669  10.9903228  74.5258570  41.5520954  10.3922689
  75.3375435  70.4735470  47.4984169  76.0410929  70.0314045  47.9735661
  75.6559992  70.5306911  46.5975571  28.4203291  49.4099998  34.3220711
  27.8189683  49.3346643  35.0629640  28.3399630  50.3211737  34.0400481
  27.4805856  45.3375578   6.6173214  27.1986151  45.3779745   5.7034880
  27.5950909  46.2527466   6.8733448  65.2686691  21.0948849  70.4426575
  65.6237984  20.7901096  69.6076536  64.3703032  20.7647228  70.4556513
  57.5045204  49.7094679   7.9136813  58.2240057  49.7391701   7.2830540
  57.6068640  48.8658667   8.3542490  62.1087170  67.5347853  44.8464489
  62.4641180  67.1499491  45.6475878  62.3020887  66.8908215  44.1651630
  70.7328081  54.3046522  52.0054293  70.3420782  55.1784611  52.0096207
  71.3158560  54.3066359  51.2462950  44.5966434  73.9958525  31.8177748
  45.2831936  74.6455431  31.9687295  44.3815517  74.0859747  30.8894181
  58.2481670  79.6907473  39.7717309  58.2678509  79.7080564  40.7285738
  59.0686512  80.1070786  39.5077181  87.0199108  69.7464418  25.6952620
  87.3394108  70.3448963  25.0199795  87.4964714  70.0006390  26.4855170
  66.0056067  55.9072876  48.3743382  66.6843843  56.2312746  47.7822828
  66.4473438  55.8172464  49.2187309  55.4075480  34.2070341  44.9502468
  56.3455248  34.3123937  45.1094055  55.2944708  33.2689452  44.7971725
  59.7519541  31.9821239  49.0537882  59.4554806  32.7645254  48.5888338
  60.6452751  32.1902370  49.3274546  65.6246376  48.4896183  47.7452374
  65.8586502  49.3966293  47.9422045  64.8720360  48.5585880  47.1578169
  20.7218885   5.9555334  43.2319307  20.4206634   5.5537885  42.4170113
  20.3427744   6.8343759  43.2201385  73.0000639  33.3298635  66.4394760
  72.8888845  34.1934824  66.8370104  72.5186348  32.7368689  67.0163774
  58.3955050  58.3782911  31.0425186  57.4751329  58.3872223  30.7797217
  58.3712292  58.3547544  31.9991207  53.0928326  72.7816677  19.8487675
  53.8786745  72.2388792  19.7850084  53.4245872  73.6663389  20.0021482
  39.8030472  21.9795322  12.1450448  39.5280290  21.3736057  11.4569664
  39.6447682  22.8485370  11.7762458  87.4162865  66.8108940  14.5440698
  87.7941608  65.9852600  14.8470056  87.1924114  67.2808409  15.3473508
  62.7370405  69.8503447  38.2892394  62.0416594  70.5012369  38.3841586
  62.3861265  69.0626335  38.7046933  10.7923782  56.5378904  24.8549104
  10.4813981  56.7992878  25.7216263  10.0780070  56.7735672  24.2629957
  40.7173491  16.4490879  45.0396919  39.9388266  15.9723318  45.3275108
  41.1001492  15.8944809  44.3599081  55.4119205  74.6624422  11.0505080
  56.1039972  75.2577639  11.3383460  54.6083593  75.0370407  11.4113343
  62.2734261  78.1981277  63.6917734  62.5825167  77.4598360  64.2167664
  61.6339207  78.6388016  64.2512989  57.1001673  41.5118980  55.0599766
  57.8765678  41.1430693  55.4811716  56.3647223  41.1492395  55.5537701
  54.9378109  80.8037567  30.9167027  54.5399380  80.8201313  30.0462651
  55.0063944  79.8734331  31.1312366  58.8418913  79.8733711  24.3869352
  58.9175081  80.8268929  24.4230151  59.7435999  79.5647907  24.2978835
  14.2714465  74.7948742   9.8228717  13.9984453  73.9284658   9.5211458
  14.6718347  74.6356678  10.6776071  86.5342426  18.9138627  40.8204174
  87.2365284  19.4375598  40.4347134  85.8907318  19.5574415  41.1169577
  17.3038137  60.2533817  46.5648317  17.0609784  59.7004938  45.8221483
  16.8295717  61.0719872  46.4191771  77.8652906  74.3920135  30.8329105
  77.0770693  74.5219755  31.3602138  78.0457067  75.2530241  30.4556227
  43.7046194   2.1861939  17.9615843  44.6362686   2.3980229  18.0198622
  43.6839771   1.2760904  17.6657510  59.9440145  15.9346855  48.4581614
  60.8271837  15.6006992  48.6153173  59.5141077  15.8860958  49.3120050
  47.0230293   7.3692220   4.7631156  46.9189930   8.3088291   4.6129599
  47.2748518   7.0167047   3.9095646  20.0564027  14.2935133  66.0071373
  19.4966912  14.6808100  65.3341150  19.9518800  13.3491206  65.8912468
   9.9273700  18.7652206  52.0585537   9.0940642  18.4850419  51.6799593
  10.1131964  18.1151819  52.7361631  67.6472855  61.2707329  57.1648121
  67.2898054  60.5053806  57.6150036  68.1318808  60.9078264  56.4233971
  66.6656256  60.3202057  10.7253444  67.3008490  60.8815241  10.2807713
  67.1905851  59.7983646  11.3322437  63.5246801  48.9301109  33.3467984
  63.5132360  48.7049532  34.2770672  63.9910936  49.7650957  33.3081865
  41.4006138  56.0043669  36.2758493  41.5262508  56.7583799  35.6997323
  42.2717667  55.8257484  36.6299915  41.6000319  24.0174603  64.9629545
  41.6172647  23.6877728  64.0644884  41.9505358  23.2984400  65.4886866
  64.2605114  51.2410355  50.0349092  63.5996485  51.8652821  49.7352362
  64.5994043  50.8467293  49.2312193  70.2314949  56.0726213  26.2522840
  69.5654106  55.7792282  25.6306052  69.8247194  56.8085957  26.7095613
  79.3843889  71.7418242  39.1574216  79.0792513  72.6309443  39.3379354
  80.2752686  71.8568420  38.8267541  59.1363716   1.9894037  50.8922625
  59.3386221   2.7270985  50.3168201  59.9409103   1.4710668  50.9089470
  72.0977163  71.1653328  11.6683769  71.5342760  71.0744905  12.4368250
  72.9868650  71.1720562  12.0227730  59.2702866  55.4971457  49.7224140
  59.0208101  56.3519096  49.3711710  58.9902210  54.8723269  49.0535402
   8.1784999  45.7248068   3.6966351   7.5530064  45.0144148   3.8392159
   7.7974159  46.2404203   2.9858953  77.2062254  64.8117781  65.1480818
  76.5507984  65.5087090  65.1787281  77.8607607  65.0698376  65.7971001
  64.8388386  27.3969197  15.6744993  65.2605772  27.3737979  14.8155296
  64.8573685  26.4882874  15.9749579  47.6537943  48.8949776  67.5426483
  47.1437645  49.5146894  68.0642366  47.0002556  48.3107853  67.1581411
  51.3786983  71.1006975  13.6914039  50.9175539  70.3070354  13.9628255
  51.8231392  70.8539581  12.8803396  46.8469810  53.9394951  65.4495192
  47.7843380  53.7493563  65.4115105  46.5294981  53.4309483  66.1957169
  87.2392559  75.5662823  28.8830686  88.1700802  75.6880379  29.0700817
  87.1890831  75.5342388  27.9277205  76.7059422  12.8721523  63.6115837
  76.4398336  12.8806376  64.5310116  77.1721268  13.6991990  63.4895277
   1.3379881  55.1501846  22.6120043   0.9960993  54.4585133  22.0454931
   0.7216639  55.8745861  22.5042033  77.2910929   9.4389528  12.5075042
  76.6473246   8.7850142  12.7798259  77.4792767   9.2238510  11.5939677
  59.4961882  70.0625038  50.3338337  58.8091707  70.6514597  50.0217915
  59.8541117  69.6691036  49.5379925  29.5351601   7.2599643  37.1462345
  30.1360154   7.6719165  37.7671218  29.9389696   7.4042678  36.2904620
  63.0905151   5.9915751  39.4098783  63.9510775   5.6426859  39.1776228
  62.7603912   6.3752580  38.5974503  83.2783318  71.5889692   9.6591020
  83.5674953  72.3712540  10.1288390  82.9645634  70.9998894  10.3452241
  84.1380978  54.9653625  39.5245934  83.6192322  55.3329945  38.8091516
  83.7294579  55.3101206  40.3185606   2.6322961  74.7506285  48.3713007
   1.9391453  74.5859146  47.7320480   2.5214916  75.6701136  48.6131668
  65.2652502  54.9316120  35.5515003  65.2521133  55.4305935  36.3682485
  65.1317263  55.5879545  34.8676729  56.1172676  64.3668032  44.3092060
  55.5357790  63.6457825  44.5505047  55.9699345  65.0294399  44.9840641
  77.4195862  76.6898441  36.8078232  77.1419811  77.4408770  37.3323393
  76.9055462  75.9573221  37.1475387  24.5887232  26.2620330  62.3942995
  23.7032199  25.8999801  62.3621798  25.0201511  25.9091115  61.6161299
  78.0299139  66.9683266  41.9565010  78.4387064  67.5673771  42.5812101
  77.8621864  66.1729622  42.4619675  53.5070992  76.7023230  39.2496896
  52.6425076  76.7675924  39.6552229  53.5844469  77.4967718  38.7213898
  58.2513809  50.2593851  67.4380255  57.8143692  49.6215105  68.0022669
  58.8376331  50.7365847  68.0252457  22.9538536  48.9661789  41.0299873
  22.9460502  48.5234308  41.8786049  23.2611227  49.8515844  41.2245941
  83.2979870   2.6274255  60.2928829  82.8817558   1.8292585  60.6183290
  84.1809368   2.6046392  60.6618023  19.8888528  15.3377485  16.9979548
  18.9536607  15.1339161  17.0079672  20.1676345  15.2280974  17.9070699
  26.9662929   2.6589975  13.3312678  26.4379644   3.4099287  13.6018300
  27.4424267   2.4039586  14.1215110  59.7130585  34.9306083  48.0772161
  60.5753899  34.9198914  48.4925461  59.6691513  35.7801127  47.6383018
  76.5557718   0.9956283  48.3397484  77.3195124   0.7334687  48.8537550
  76.9212008   1.3242571  47.5183487  70.8666945  82.6486111   8.7314969
  71.1123323  81.9290543   9.3129855  69.9128056  82.6942730   8.7966806
  77.2469807  48.1264687  39.5108724  77.4693394  47.2016764  39.4033957
  76.8650436  48.1807280  40.3868914  61.9549227  59.4036674  53.0007124
  61.2217093  59.7989368  53.4722900  62.6851130  60.0054073  53.1454897
  77.6122141  25.3776884  32.3839450  77.0972967  24.7883868  32.9351377
  77.2911501  26.2523675  32.6032257  77.6747227  78.5543013  34.7720408
  77.5145340  77.8081608  35.3498316  78.3052444  79.0947819  35.2480173
  54.3710995  69.4158745  26.6465235  53.9246845  68.6159182  26.9240403
  53.6890221  70.0873280  26.6587210  64.5344543  76.0350227  69.0965891
  65.4350567  75.8545828  69.3660116  64.1999531  76.6334534  69.7645903
  66.9368982  81.8045521  12.8794003  66.3355637  82.1141148  13.5567486
  67.7151823  82.3523426  12.9815221  63.4219074  59.0495491  13.6861396
  62.9554987  58.2213116  13.7989104  63.8237286  58.9821434  12.8199816
  67.8705883  52.4191332  39.0166855  67.7403259  53.1957674  38.4725308
  68.8043261  52.2243738  38.9365125  41.0182953  32.0549679   0.3714502
  41.8730211  32.2760034   0.7413376  40.6027412  31.5084815   1.0384575
  56.1071014  46.0634232  22.3971963  55.7986021  45.4115677  21.7677951
  57.0332003  45.8561754  22.5221729  75.5435324  53.9819288  44.7396374
  75.3030872  54.6804571  45.3483057  74.9148846  53.2823563  44.9174881
  77.1587849   6.0483378  37.7238011  76.7731428   5.7381874  36.9044614
  76.4499807   5.9792686  38.3633780  82.0688343  67.6951838  41.8905926
  81.9794750  67.7080727  42.8435278  83.0119801  67.6334476  41.7392826
  48.8580227  62.1341658  68.1020069  49.2459106  61.3986397  67.6279068
  48.3463526  62.6016045  67.4417591   5.4499638  34.0294147  32.9187131
   5.2967173  34.2445326  33.8387513   6.4011735  34.0679169  32.8189611
  68.2513905  56.4507103  60.9503984  68.9640808  56.4729452  61.5890026
  67.5865936  57.0362329  61.3129377   2.5201339  70.9177113  57.6230717
   3.4481680  70.9637737  57.8529930   2.1955697  70.1478672  58.0902195
   4.6889567  18.7893581  45.2233696   4.5724252  17.9186988  44.8431015
   4.1785115  19.3682718  44.6572065   0.2084803  72.0939636  60.2551603
   0.3737471  71.1800861  60.4869986  -0.2168905  72.0506525  59.3987656
  77.8904867  76.7826033  24.4577456  77.9311848  77.5592136  25.0158215
  78.7154388  76.3258839  24.6223450  82.7241039  58.8974190  46.6084194
  82.2548294  59.6800852  46.8972874  83.5483646  59.2298841  46.2530375
   0.1452331  17.1631110  11.9991422  -0.4320355  16.4117217  11.8634748
   0.7074528  17.1761441  11.2245655  33.2092619  61.6327143  26.8204713
  33.4968042  62.0392466  27.6379585  33.9527678  61.0963678  26.5452266
  76.1858082  19.8801744  51.5141582  76.6859722  19.3404543  52.1263409
  76.8414497  20.4384065  51.0961437  77.5491142  57.7521944  24.8580050
  77.3890638  58.3815479  24.1547775  77.1816969  58.1667423  25.6386375
  82.8366280   7.1701962  25.5041242  82.6082039   6.2823951  25.7795596
  82.7503681   7.1549016  24.5509410  29.8988771  62.7095985   4.6023145
  30.3129649  62.9197073   3.7652856  29.7349167  63.5605860   5.0087160
  65.4763174  61.5476227  37.2152925  65.2483892  60.8427191  37.8214216
  64.6488810  61.7763233  36.7918754  66.2449551  78.9786434  17.7857006
  66.1497307  78.0768871  18.0922985  67.1807671  79.0737867  17.6084113
  58.7756252  54.4954157  16.8123472  58.3670855  53.8785791  16.2050223
  58.8294077  55.3151655  16.3210726  40.2137756  40.7559061  52.1676826
  40.6356192  40.3392315  51.4162397  40.4497957  40.2024698  52.9121494
  87.6412010  11.6118181  20.1457977  88.2444096  11.2839091  20.8127642
  87.3108387  12.4350178  20.5055666  71.3786650  69.0610218  17.4635899
  70.4788923  69.0079117  17.7858043  71.7788410  68.2343721  17.7332890
   7.1355790   4.6493757  23.3200097   6.2763488   5.0406677  23.4776354
   7.7162814   5.0882006  23.9416599  69.5856476  53.9645243  49.0316916
  70.4219341  53.6150217  49.3394327  69.4146013  53.4932470  48.2162952
  65.8508110  73.0291033  24.1775894  65.1540089  72.6189089  24.6898842
  66.3280725  73.5666513  24.8096418  19.1891205  15.8300078  12.6713324
  20.1456761  15.8495998  12.7004838  18.9576292  16.4541006  11.9834721
  21.3596010  18.4103024  28.4829235  21.4096642  18.4468913  27.5277328
  20.5299497  18.8375998  28.6958218  51.1359119  75.3413534  49.7892237
  51.0695887  74.4492483  49.4486618  50.2444124  75.5614758  50.0594139
  85.8058453  30.7095981  26.7442608  84.9570370  30.4674697  26.3739562
  85.5918121  31.2915754  27.4734545  30.9699297  44.6626520   5.6090051
  31.8839478  44.8433399   5.3895634  30.9356618  43.7137079   5.7296515
  82.7527428   1.2032731  27.8717637  82.4608135   0.5164987  28.4712243
  81.9962597   1.7833988  27.7855563  36.3830543  75.3539467  29.2894602
  36.5618134  74.4633150  29.5912004  37.2348571  75.7900095  29.3121314
  24.4256043  55.3968239  46.1922693  23.6053133  55.1992893  46.6443062
  24.7835064  54.5399475  45.9601164  35.6921530  66.6198778  36.4231205
  34.8040509  66.8358278  36.7075038  36.2164021  66.6609573  37.2229385
  51.3680506  66.0834265  14.1521239  51.4394379  65.7016897  15.0270021
  52.1781540  65.8263588  13.7118065  78.9718199  82.5996685  30.0741339
  78.4079313  81.9207764  30.4447579  79.6113348  82.7820396  30.7626081
  31.2021494   4.3302095  38.7343192  31.1478209   5.1662087  39.1973352
  31.2026238   3.6714053  39.4287324  69.2756891  10.4536343  31.4675450
  69.8833609   9.7256243  31.3372874  69.7912216  11.1167192  31.9266510
  49.2801857  63.8152456   8.8961089  48.8685322  63.4294891   8.1228244
  50.0329876  63.2511950   9.0732092   7.5560611  56.9752932  66.5262032
   8.3532077  57.5020218  66.4683628   6.9183397  57.5514364  66.9476318
  71.3119364  48.8888693  26.1735082  71.5312290  48.2867765  25.4624343
  71.8537760  48.5998487  26.9077492  65.0280237  61.2105608  61.9011784
  64.6014309  61.1255455  61.0485268  64.5646620  61.9299316  62.3301649
  59.8792601  69.2677975  44.8709059  59.8498440  69.4173241  43.9259148
  60.6179190  68.6720610  44.9962568  42.9667616  65.8552074  37.6118398
  42.0883369  66.2107992  37.4770904  43.5121155  66.6228342  37.7837801
   1.0040732   6.9759804   6.8280697   1.1402490   7.7285993   6.2525243
   1.2747201   6.2218750   6.3043261  86.5881348  62.5592756  47.5302219
  87.4028397  62.4508715  48.0208826  86.2536430  63.4124041  47.8068495
  85.0914288  48.8336754  18.2531118  85.3773403  49.2749500  17.4532604
  84.4085503  48.2292843  17.9622030  71.5381384  33.7720299  52.5618410
  71.4055729  33.8852143  51.6206455  72.4716425  33.9374948  52.6938438
  59.2131662  50.8539867  16.9816971  59.7206020  51.4319611  17.5515068
  59.7618294  50.7407951  16.2055612  71.3013554  74.6171331  67.7401018
  71.2482738  75.5600166  67.8962517  70.7086802  74.2335653  68.3865070
  62.6583672  52.9271746  35.2995777  62.3809338  53.4338808  36.0628033
  62.5237560  52.0148277  35.5559683   7.9113930   6.3301677  25.3448105
   7.1648002   6.7699021  25.7515836   8.6127883   6.9812286  25.3647280
  84.7369576  57.2806215  25.2855992  84.4326210  56.5828848  25.8659220
  84.4376945  57.0162010  24.4156814  48.0814362  62.4874687  32.3689270
  48.5571241  62.2046471  31.5879273  47.2171116  62.7402735  32.0444894
  83.8317394  42.1857643  38.9315557  83.3980274  43.0316925  38.8196039
  83.9374924  42.0942831  39.8784876   0.1953275  57.4530411   9.8536968
   0.6417998  56.8377399   9.2720664   0.9033456  57.9159975  10.3015995
  55.9857178  58.1912279  58.1548548  55.7300043  58.7757444  57.4412823
  56.8982983  58.4174633  58.3344269  37.4884224  27.0067453  60.3288126
  37.9368019  27.5971103  60.9343338  37.8392267  26.1403704  60.5351210
   3.1156021  66.4157772  14.3575048   3.4142929  66.2818241  13.4580207
   2.6135436  67.2300720  14.3244016  52.8816891  56.4742947  56.9192362
  51.9478416  56.4986658  57.1279573  53.2977247  56.9702816  57.6243210
  82.5006485  12.2116435   7.7214003  81.5679741  12.3404479   7.5488871
  82.6625443  11.2965739   7.4918956   6.8164492  58.9642143  37.1198845
   7.5970930  59.3116951  36.6885066   6.3891441  59.7330618  37.4973917
  63.5430336  58.4481621   9.1229671  62.6022625  58.2781219   9.1706091
  63.8977671  58.0576134   9.9216318  62.2256851  13.0472970  21.0610008
  62.5932455  12.9841375  20.1794434  62.2570658  13.9814925  21.2672186
   2.4971752   6.4097339  20.6486630   1.9645807   5.9886903  19.9739063
   2.8135219   5.6864935  21.1900330  60.4487610  69.4131565   3.2281405
  60.5882454  69.0552187   4.1048723  60.8344603  68.7637377   2.6401529
  15.0014877  62.0266962  45.1229095  14.4991696  61.6907215  45.8652210
  14.9349201  62.9784775  45.1997948   3.0570638  67.2962332  24.4688129
   2.9174691  67.7589130  25.2950525   2.2779155  66.7498636  24.3656588
   1.9794311  -0.1080245  55.9748554   2.1271747   0.7371058  56.3993073
   1.1016235  -0.0374506  55.5997467  16.4374828   9.8184562  31.1650205
  17.1642303   9.5231915  31.7135525  16.1048079  10.5990481  31.6080046
  33.3008933  66.9804335  54.7719383  33.8791609  67.4907827  54.2050266
  32.4504352  67.4135590  54.6987534  58.5280609  63.9562798  36.0139966
  57.8845119  63.2504654  35.9515476  58.5384178  64.1895199  36.9422889
  82.5396347  32.0468020  37.9855204  82.9823112  31.9020677  37.1492648
  83.2266140  32.3728466  38.5668945  55.4477501  78.2959509  25.5432773
  55.4421854  79.2503357  25.4701138  55.1173925  77.9890776  24.6989274
   8.2255059   3.7206241  28.6341357   8.7880546   3.5818961  29.3960595
   8.7094671   3.3324081  27.9052329  49.3677235   6.2241507  16.7224061
  48.9961243   5.3469867  16.8158448  50.1415730   6.2176949  17.2857416
  53.7890100   1.4483035  20.8749843  53.5595894   1.8863821  20.0554204
  54.5294952   1.9501361  21.2156773  54.3860197  49.0029669  37.8821516
  54.3107510  49.2865753  36.9710350  55.0578260  49.5733023  38.2558107
  75.9168959  34.2293930  10.1419580  76.0849285  34.8735833  10.8297193
  76.7760706  34.0637159   9.7538835  73.7695169  63.3137512  47.5648499
  72.9271460  63.0170250  47.2204590  73.5589075  63.6950016  48.4172153
  60.4613447  80.3074169  33.6442900  60.2053499  80.3207874  32.7220535
  61.3180113  80.7341194  33.6612701   7.4558944  46.5124178  36.2444615
   8.0634511  47.1072388  35.8048081   6.6444486  46.5843105  35.7418489
  80.5904388  68.0306578  48.8060999  80.0654984  67.5397491  49.4383001
  80.5042648  67.5384426  47.9896879  83.0180836  56.7834806  52.3107576
  83.2510185  57.7021885  52.1767950  82.2219563  56.6603994  51.7937756
   5.9946358  12.0652211   4.9915457   5.1858282  11.8190169   4.5427185
   5.7190371  12.2750878   5.8838648  27.3207307  30.2692628   2.9146227
  27.9295492  31.0040331   2.8392041  27.8214407  29.5113802   2.6127338
  76.8472290  67.3103714  32.6027083  76.5608263  66.4989328  33.0219626
  77.4082375  67.0227528  31.8824506   6.6305965  44.8358440  59.2117739
   7.2377658  44.4964981  58.5541868   5.8780849  44.2457390  59.1701174
  73.4826422  73.0722284  30.5153942  72.5429392  73.2392168  30.5882049
  73.5675192  72.1259880  30.6322551  27.6234174  20.7854152  33.0022717
  28.0093098  21.0917163  32.1816015  26.9784117  21.4555264  33.2284427
  69.8846579  69.3479729  14.7899997  70.5197716  69.5389748  14.0997994
  70.4190874  69.1403723  15.5564964  82.9641056  75.1672792  24.4594073
  83.0707550  75.1486349  25.4104662  83.7971783  74.8416328  24.1185474
  78.8759136  77.3310709  43.4242868  79.1007185  76.5135002  43.8684416
  78.4651995  77.0536804  42.6053858   4.8266745  65.0596857  28.9048982
   4.0197787  64.5565128  28.7955046   5.4416823  64.6632481  28.2877803
  64.5247650  61.7398787  11.7499924  65.2434015  61.1582804  11.5019441
  64.6769142  61.9269991  12.6763129  70.5599356  70.9235334  47.0009851
  71.3773012  70.5502796  47.3308754  69.9284267  70.2065992  47.0595312
  55.7867622  56.6249752   2.0112026  56.2528563  56.2179279   2.7414766
  54.9049473  56.7831707   2.3482570  65.3695393  49.4165087  30.3867483
  65.1606178  49.3893385  29.4530225  64.7624969  48.7935019  30.7862401
  45.5850649  43.5495138  11.3419974  45.5565500  42.9410172  12.0803392
  44.7650623  43.3954573  10.8728588  63.7218237  78.6613750  25.6767106
  64.5874786  78.9776182  25.4181385  63.5508108  77.9247379  25.0898933
  87.6120663   3.7318254  24.8500156  88.2485771   4.3019342  24.4186640
  86.7669678   4.1515738  24.6892405  24.8936868  56.1074066  24.9197483
  24.8798990  56.8576479  25.5140376  25.8056116  56.0433674  24.6359801
  57.6522350  73.6210251  33.1789112  57.9989576  72.7289057  33.1669569
  58.1678486  74.0872192  32.5208569  49.6326876  72.8114271  42.2797871
  48.9421034  73.4253836  42.5295496  50.1575756  72.7056360  43.0732203
  68.1728077  49.8966742   7.9511082  68.7136126  50.5810308   7.5568777
  67.8284883  50.2944231   8.7507778  26.7955518  14.2032945  51.4969635
  26.2631655  14.7276747  52.0951462  26.2986016  13.3934116  51.3813686
  57.4564648  62.4102306  54.0616655  57.6953125  63.1242132  53.4705544
  56.5998173  62.1179247  53.7503004  43.3367014  71.7199278  18.1369066
  43.5054302  72.5980091  17.7952480  42.5347233  71.8130064  18.6511040
  54.4011307  66.0805035  41.0433292  54.5142937  67.0292759  41.1003923
  53.6981487  65.8854437  41.6630030   2.2410004  10.4488790  25.2864671
   2.3480387   9.5265579  25.5190587   2.6861992  10.9257531  25.9869099
  28.1789064   5.6728387   1.1413228  29.0757155   5.3829539   1.3084526
  27.7085280   4.8730037   0.9062889  84.3598557  72.3526859  24.5950007
  83.9862251  71.9783020  23.7972140  83.6054230  72.5056887  25.1639009
  66.1575174  45.0198030  17.9387450  66.4776707  44.2043161  17.5531185
  65.2623844  44.8199797  18.2126820  24.8523736  40.6180811  67.4525070
  25.0533700  41.3816500  66.9114017  25.3990149  39.9192977  67.0931768
  84.3834400   0.3161414   5.7476670  84.3028069   1.1995322   5.3880131
  84.2807865   0.4318307   6.6922891  36.8485332  71.2051010  28.0900431
  36.8024468  70.8806181  27.1906996  35.9343910  71.3001204  28.3575225
  86.2521267  18.0298805  44.9172354  85.6536198  18.0365169  45.6642103
  87.0702457  18.3870995  45.2626562  13.7976933  16.6817343  18.7492704
  13.2724011  16.2802863  18.0570722  14.3999386  17.2637975  18.2858753
  38.3174920  64.9526739  35.1686096  39.2625284  64.9998236  35.3132296
  38.0571246  65.8563280  34.9901390  23.1974077  20.9988475  71.6531515
  24.1097665  20.7094765  71.6433144  22.6962495  20.2191448  71.4141226
  62.0077276  38.9851785  47.4709892  62.5860357  39.6754551  47.1464729
  61.6435099  39.3395448  48.2821608  41.7655516  36.2459588  58.8626194
  42.0940351  37.0936728  58.5631037  41.9160223  35.6561852  58.1238651
  38.0784416   5.1112300  33.4630513  37.5182796   5.6039661  34.0627694
  38.8964319   5.6076586  33.4369349  68.6287594  76.5888119  52.6427889
  69.0966749  76.3372278  51.8465519  68.5183239  75.7692289  53.1247807
  34.7735357   2.4484494   8.6828136  35.1099944   3.0256838   9.3682539
  34.9087834   1.5651181   9.0258384   3.0142048  26.8992209  17.3665917
   3.1617469  26.0332656  17.7468371   3.8547212  27.3477864  17.4590731
  26.3524437  22.1204042  46.1115789  27.2318077  22.4864030  46.0167122
  25.7675958  22.8693676  45.9965181  38.6898756  36.6904211  70.6190205
  39.3354273  36.0213709  70.8467674  39.0385032  37.0999312  69.8271894
   6.3369298  23.2672691  54.2514706   6.7293090  24.1091752  54.4826984
   5.4678953  23.4913921  53.9186382   8.5465091  71.6434860  16.7443562
   9.4616985  71.3711405  16.6773784   8.0485874  70.8288288  16.6762578
  82.6442719   3.5012299  57.9148817  83.0117035   3.2508439  58.7625456
  81.8112755   3.9210951  58.1295156  33.9157534  22.0236731  67.6971102
  33.1928730  21.5260506  67.3149490  33.8046765  22.9099679  67.3530531
  30.8662057  59.3977213  18.7845170  31.7029643  59.0097618  19.0405548
  30.2991962  59.2673492  19.5446074  79.8817873   7.1056861  24.2710209
  80.3348827   6.7080283  23.5275126  79.4947672   7.9057670  23.9156055
  27.9855227   5.2279687  33.9943695  28.6874604   4.8135436  34.4961309
  27.1803617   4.9293208  34.4171691  12.7859986   6.1528891   6.8950826
  12.3227310   6.8763310   6.4728910  12.2368836   5.3868616   6.7280316
  32.6465082  18.0886102   8.5764688  31.7473698  18.3630514   8.3962929
  33.1817722  18.8406968   8.3233118  52.5380421  74.2149973  22.4939561
  53.1940508  74.5685434  21.8932152  51.8324327  73.9082384  21.9245291
  86.1603832  76.2463427   3.5127002  85.9222317  76.5591240   2.6399556
  86.9559288  76.7313147   3.7321091  22.7071333  28.1119156  31.9055963
  22.1560240  27.6882958  32.5636673  23.2995224  27.4211669  31.6086602
  42.7821779  75.0864649  27.1338201  41.9492531  74.6197510  27.2019458
  42.5386333  75.9738731  26.8703294  58.8258171  63.4834194  26.0084987
  59.2637300  64.1228247  25.4466939  59.5116472  63.1759644  26.6012383
  29.3387389  79.8041725  10.3077888  30.2320123  80.1481056  10.3071094
  29.1771483  79.5554781   9.3976945  79.7881651  69.0695000  64.1821814
  78.9330482  69.4926596  64.2593002  79.5914078  68.1877708  63.8658428
  22.7411890  27.8390765  41.3426208  23.2673383  27.4904203  40.6230116
  22.0475960  27.1914101  41.4678812  37.8676653  60.7032871  68.9535618
  37.4524689  60.5227995  68.1101990  38.7414384  60.3199673  68.8772726
  26.1114883  20.9400725  22.9616117  26.9241405  21.2120104  23.3880830
  25.4802370  20.8616877  23.6768818  49.7045326  21.9632077   8.3304626
  50.0857973  21.1269403   8.0630237  48.9189482  21.7221999   8.8213825
  29.6906829   4.2930752  20.5939174  29.8566031   3.7610137  19.8157060
  29.9933887   5.1689458  20.3542256  59.2251587  73.9258003  36.1446571
  59.0871477  72.9805803  36.0834575  60.1514626  74.0466118  35.9358549
  60.2506876  69.6228313  59.1848993  60.3616762  69.4650555  60.1224613
  60.4779625  70.5453730  59.0687180   1.5578942   1.0120011  35.5753374
   1.9725068   1.0372359  36.4377141   1.0430697   1.8178740  35.5334258
  85.3924561   2.1113263  17.5496638  86.2036800   1.8195873  17.9656434
  84.8300266   1.3367967  17.5521541  32.0648623  43.9593172   0.4485200
  31.7088366  44.5845127  -0.1828348  31.4188933  43.2535267   0.4770057
  44.8335791  16.4231789  65.0315428  44.0188074  16.0067022  65.3124857
  45.4674101  15.7069910  64.9919987  70.8160639  38.5446429   6.6259503
  69.8796034  38.3541989   6.6807580  71.2209082  37.9354000   7.2433269
  14.8365772   2.2849911  22.5156975  15.7598901   2.0326355  22.5091648
  14.6529603   2.5450262  21.6129804  10.8369410  51.2359381  27.5272298
  10.5050600  51.9989729  27.0540905  11.1923361  51.5943670  28.3405304
  12.5617027  15.9794724  27.5874853  13.0846536  16.1345470  26.8009043
  11.8359292  16.5997589  27.5187135  26.1257648   8.8429385  51.3649893
  26.1600828   7.9352200  51.6668177  25.4669356   8.8397068  50.6706047
  75.2040339   4.8300633  66.1528349  74.5314980   5.1756096  65.5658722
  75.8968401   5.4903978  66.1383581  10.9651899  49.1057491  37.0687461
  11.1902869  48.3171177  36.5751624  11.6223967  49.1493368  37.7633047
  23.2312417  34.3367934  31.1892462  22.5473046  33.8422465  30.7377124
  22.8100657  34.6531200  31.9884825  86.2341213   7.3535621  56.3178873
  85.3803349   6.9267756  56.2462282  86.2433910   7.9919547  55.6047249
  35.2355599   5.5549914  50.0132799  36.1606359   5.7880265  49.9347925
  34.8952007   5.6218344  49.1211367  70.1387501  66.7074156  44.6075249
  70.2416992  67.1259499  43.7528515  69.1918278  66.6286898  44.7231579
  60.4599142  21.8149400  70.6078005  60.5044365  22.0501184  69.6810102
  59.8047304  22.4087334  70.9743738   7.4097288  75.1956367  23.2830286
   6.7297399  75.3929520  23.9271665   7.0371974  75.4774094  22.4475312
  19.3710756  40.0847530  11.5372026  19.8193729  40.9230804  11.4255250
  20.0453687  39.4276905  11.3644958  10.1089823  53.9935255  16.3127720
   9.7482818  54.6968222  15.7728660  10.5368507  53.4076357  15.6883550
  35.8607173   4.0420413  57.4029207  36.0499859   4.7414145  56.7773914
  36.6490626   3.9836457  57.9426718  84.5627880  22.4133658  24.1879272
  83.8634491  23.0503249  24.3343616  85.2759266  22.9244089  23.8051844
  34.6688533   0.9363977  19.7997057  34.9375010   1.7823109  19.4412494
  34.1575742   0.5309849  19.0993726  86.9204140   4.7155422  16.3511217
  86.0877228   5.1837367  16.2907457  86.7518997   4.0061253  16.9712508
  15.4963326  27.0777893  10.2289605  16.1713552  27.7307582  10.4139173
  15.9356308  26.4279389   9.6803784  34.9211383  40.7950878  23.3250403
  35.2254152  41.5967464  22.8996038  34.4528270  41.0994053  24.1024137
  17.2398639  53.6211872  60.6885386  16.6058481  53.6813402  61.4031315
  17.0701635  52.7680969  60.2889585  37.1022582  51.7972565  20.0109291
  36.5843558  52.5936413  20.1283336  37.2477865  51.7432642  19.0663981
   8.5082942   8.3545816  39.5790076   8.7334889   9.2843467  39.5465016
   9.3409491   7.9120851  39.7436714  28.8422894  38.9781523  13.1525838
  29.4468379  38.5555029  12.5425661  29.0375829  38.5773802  13.9996231
  51.1556768  69.2060804  21.4375949  52.0069170  68.7793350  21.5351248
  51.2568188  70.0469780  21.8835664  53.9004040  67.8686190  13.9643669
  54.7347689  67.4224567  13.8194287  54.0745306  68.4739542  14.6851170
  32.1024513   6.8398070  18.9247143  32.6486373   6.4545512  19.6099079
  32.7230215   7.2750282  18.3401561  62.9020262  47.0988035   9.8159802
  63.6251497  47.4021816  10.3648794  63.0717325  47.4895144   8.9587885
   7.7063012  28.5447836  25.1488757   7.6516521  28.9227271  26.0266018
   8.6077160  28.2304215  25.0791645  69.2193460  19.1299868  31.2368584
  70.0728035  18.7962878  31.5134144  68.8985348  18.4791470  30.6125832
  28.4725094   2.8488114  45.7062292  28.4227586   2.1912786  46.4000607
  28.1948256   2.3849629  44.9163103  51.9230747  76.5277576  26.8623686
  51.4773035  76.1614418  26.0986090  51.4165592  77.3093367  27.0833063
  14.8103774  58.5838413  32.4646592  15.5535018  59.0238571  32.8774357
  15.1171684  57.6905727  32.3091459  52.1473598  68.0130529  52.7762413
  52.3786020  68.4581566  53.5914946  52.9578161  67.5864124  52.4980831
  59.0436983  66.8832874  32.1486139  58.5453367  67.6324177  32.4752212
  59.8034859  67.2717619  31.7149782  64.0822411  46.9146156  31.4011574
  63.5220814  47.6641226  31.6028857  63.4910965  46.2728882  31.0074925
  34.4379306  80.2300072  17.0454884  34.4869375  80.0950432  16.0991192
  33.8802314  81.0010529  17.1488988  82.7196407  63.9538050  10.3206408
  81.8819714  63.6000347  10.0216818  83.3619595  63.6016178   9.7045052
   9.3425572   6.4956337  49.5110703   9.9843061   5.9054136  49.9060774
   9.0268779   7.0290095  50.2405167  33.6828518  11.0055947   1.3290167
  33.6126423  11.1732876   0.3892393  32.7889538  11.1030924   1.6571489
  12.9479492  19.9039161  41.5206099  12.5580394  20.6999540  41.1593246
  13.8352275  19.8876917  41.1618519  30.4496098  36.8198609   9.2374492
  29.7247505  36.7628646   9.8599958  30.8821154  35.9678721   9.2947716
  11.5523386  20.9540343   4.7740173  11.7457068  21.4506578   3.9789036
  10.7787585  21.3816857   5.1413321  48.2538590  82.4235186  27.0306635
  47.7936063  83.2391372  26.8327618  48.5268101  82.5178890  27.9432559
  55.9679174  17.1343374  23.6198854  56.0248041  17.8325558  24.2721796
  56.4398670  16.4002299  24.0130496   4.8986471  72.3548269  59.4805670
   4.1509759  72.3801470  60.0777102   4.7404757  73.0732584  58.8681364
  84.7512436   0.9197976  31.2349463  85.3703594   0.8571541  31.9622707
  84.3874168   0.0381915  31.1535025  40.9573746   2.1770981  28.4166002
  40.4492140   1.6292486  27.8183794  40.5209351   2.0766442  29.2625666
  64.4529295  48.7326241  27.6125193  63.5668135  48.9494371  27.9023790
  64.3364811  48.3772898  26.7313790  58.4534740   9.8995233  14.7802508
  58.6197042  10.1854110  13.8819933  57.7561331   9.2488325  14.6993375
   3.6067754  36.5766287  22.4284363   3.3425948  37.4878716  22.5552225
   4.3409210  36.4541316  23.0303121  47.3841619  10.3326750  15.4679573
  47.4397326   9.7119933  16.1945224  47.2513819   9.7846913  14.6944475
  26.8051815  19.8242164  36.4509678  26.1840844  19.3658853  37.0170093
  26.6275835  19.4827306  35.5745673  11.6157305  43.4867764  32.4002576
  11.1048603  44.2499828  32.6699972  11.3245070  43.3074188  31.5062499
  24.0844870   3.2474619  55.2262068  24.0060830   3.0521050  54.2924356
  23.6143255   4.0736586  55.3383541  87.0712376  63.1679964  10.0444508
  87.8312016  63.1561375   9.4626063  87.2940159  63.8123417  10.7163286
  78.2450247   4.0297315  35.5706644  77.3229885   4.1965869  35.3751016
  78.6805630   4.8653442  35.4024673  61.4182997  53.8247013  38.1405473
  61.5877771  53.4571981  39.0079880  61.3864994  54.7706699  38.2832336
  42.1530342  48.2019711   9.1845131  42.4797869  47.3178053   9.3510085
  42.9296637  48.7003994   8.9302629  12.1686804  38.9633703  58.1597090
  12.3885465  39.8857379  58.0288172  11.2940967  38.9784527  58.5484314
  75.8246756  55.2912283  42.2592688  75.8249140  54.9709320  43.1612873
  74.9007320  55.4399872  42.0581770  82.0565319  34.6258402  30.9940481
  81.7428398  35.3645730  30.4724145  82.5984287  35.0258517  31.6741705
  10.4742920  47.9468250  22.4137640  10.1690054  48.6387920  23.0004644
  11.3836801  48.1775856  22.2240376   5.7342869  12.9149818  17.1731174
   6.1295557  12.0981872  17.4778175   5.8520055  12.8983188  16.2233293
  56.3832903  80.2769089  36.8333459  56.6728306  79.4130373  37.1268082
  57.1028376  80.5990505  36.2904763  76.8508148  67.5181818  63.9088345
  76.8665648  68.4498262  63.6896801  76.1044168  67.1699858  63.4210968
  12.9820573  23.7944245  65.6704426  12.1616697  24.2854786  65.6250191
  12.8255653  23.0165744  65.1350117  76.3273907  51.3729763   5.5042315
  75.4875231  50.9877110   5.7540673  76.8351603  50.6380701   5.1602560
  81.0706329  20.3845549  27.1148801  81.7487144  20.3734398  27.7903938
  81.2772274  21.1515260  26.5807366  81.1608505  29.4899106  21.2587929
  81.5423584  30.2003407  20.7430720  80.4732895  29.1297841  20.6986117
  57.4596214  65.8064985   2.8199384  57.5169706  66.6847038   3.1963691
  57.9091692  65.8770466   1.9778191  41.9898939  69.3159914  64.0331650
  42.0803165  69.8739100  63.2606411  42.4880838  69.7676086  64.7143984
  69.9961710  42.3486900  35.9075117  70.3146839  41.7963362  36.6214371
  69.0425491  42.2939062  35.9694481  76.0371733  57.3211575  30.2306414
  75.9299517  56.9751978  29.3446136  76.9831848  57.4230385  30.3351331
  62.6675940  75.3857040  38.2402253  62.5479746  75.7542992  37.3649764
  62.0425034  75.8608580  38.7876940  46.7298841  78.0927849  47.8738451
  45.9348917  78.6123896  47.9931355  47.1518898  78.4739923  47.1038961
  51.2788486  79.3719244  48.0746698  51.5066385  80.0168514  47.4050379
  51.5479994  79.7772646  48.8989830  10.3828037  26.0394549  12.4175847
  10.0840807  25.5997443  13.2136059  11.3062143  25.7986331  12.3430789
  49.3729830  53.7619877  61.6339970  49.1105270  54.3751907  60.9474611
  50.2766037  53.5323000  61.4173365  58.3476448  61.2918711  15.7676160
  59.0168953  61.1688375  15.0944161  58.0892944  60.4036427  16.0136652
  66.9532633  39.6311498  41.5457344  66.3876390  40.3945208  41.6622210
  66.9520187  39.4739795  40.6015301  69.8204231  73.5663462  43.5696411
  69.3679094  72.7578306  43.8100052  69.4038057  74.2420769  44.1044760
  12.6495838  79.0158653  10.0064957  13.5479152  79.1593122   9.7087443
  12.1048188  79.3519402   9.2947954  75.8069658  46.9935179  19.9814296
  76.1330843  47.8798008  19.8252940  75.5214405  46.6882038  19.1203320
  64.8175859  71.5048218  39.6382046  64.7014189  70.7690859  40.2393961
  64.2044115  71.3298941  38.9243078  79.3554783  54.7566938   4.4886148
  79.2844105  55.1920176   3.6391008  79.8305845  53.9465857   4.3036112
  71.4626074  53.4898090  27.6243258  71.1144161  53.7382889  28.4806252
  71.1936903  54.1996861  27.0412469  14.6966267  42.1060324  66.9241142
  14.2115378  42.6315498  66.2879133  14.0433455  41.5097475  67.2900391
  86.0003948  50.3680944  39.0757489  85.2438354  50.2792120  38.4961319
  86.5820885  50.9756374  38.6188579  54.6657276  54.4291735   8.5239863
  54.4509363  53.4963846   8.5256010  55.3464556  54.5170498   7.8568101
  41.6088438  40.0409555   9.2210740  41.8333864  39.7258425   8.3455640
  41.4661932  40.9807014   9.1081154   6.4312291  81.7903233  29.1308808
   5.5129969  82.0015717  28.9621878   6.5502650  81.9675922  30.0639606
   2.7354828  15.4051900  34.7852969   2.1483867  14.9116492  34.2126107
   2.3763353  16.2924492  34.7891665  34.0734363   2.3609553  38.1135702
  34.8542762   2.9121426  38.1656718  34.2686987   1.6148098  38.6804652
   5.0364345   6.7168045  48.7036514   4.3870530   6.0712814  48.4246635
   5.8469933   6.4417225  48.2752180  15.0714135  80.1128387   9.4379926
  15.0129366  80.9376717   8.9558512  15.5318975  79.5202398   8.8438445
  62.5203753  48.2153320  18.0136299  63.2955980  48.7767887  18.0085576
  62.4765205  47.8756285  18.9074481  23.7388229  12.5008821  30.2678514
  23.9538431  13.0372810  31.0309219  22.8657937  12.1562481  30.4556727
  48.0068302  74.0530443  33.3386254  48.9213896  73.7705326  33.3377266
  47.5302887  73.3206320  33.7294126  73.4593916  46.0409307  26.9558454
  72.5817204  45.6595325  26.9772458  73.6069632  46.2507010  26.0336447
  15.9412706  68.8327932  11.9209039  16.7346764  68.3920717  12.2250462
  15.7633066  69.4941092  12.5896502  20.7580948  18.4621584  36.0767436
  20.8542418  18.7221849  35.1605701  20.8155870  17.5068021  36.0618663
  33.7991214  40.5144930  60.9245491  34.5415664  39.9187827  61.0252428
  33.3788681  40.2379274  60.1102209  83.4177113   9.5837551  49.8375988
  83.0154514   9.1964656  49.0601492  83.1675148  10.5069947  49.8020220
  67.8915405  69.5027208  28.8460779  67.6973677  69.8374462  27.9705858
  68.8476086  69.4872284  28.8899755  21.9249654  25.0841522  23.6564279
  22.4158692  24.3017912  23.9077377  21.7499924  24.9674439  22.7226210
  52.9564190   4.9359605  25.5794382  52.2791147   5.5476171  25.2907133
  52.5145149   4.3710065  26.2132955  18.1161547  71.0586262  26.7049170
  17.7393734  71.0295725  25.8254743  18.3065164  70.1442051  26.9142604
  12.3630631  68.6624622   3.9082056  12.5481808  69.5498419   3.6007646
  13.2251096  68.2578373   4.0050790  20.3659940  60.0908756  13.1338048
  19.9287093  59.2643881  13.3385885  19.8494196  60.4646969  12.4199128
  80.9841728  49.3151760  16.4557755  81.2931061  49.6556425  15.6162083
  80.1901722  48.8266850  16.2385809  67.5548840  47.4252272  67.4041462
  68.1272221  48.1244040  67.0882082  68.0990171  46.6383076  67.3740578
  63.9372110  77.6310825  50.2994776  64.5089293  77.7536678  51.0573339
  64.4237804  78.0117416  49.5683289  62.1259594  75.2675152  21.8014264
  62.9583359  74.7988224  21.7405939  61.9107676  75.4919910  20.8961439
  87.5074959  82.2150612  19.7696877  87.0589733  81.6120911  20.3625441
  88.3216858  82.4348450  20.2224874  68.8366699  52.5663710  35.3222466
  68.5026407  51.6808033  35.1793361  68.0824280  53.1348467  35.1667333
  39.7403884  34.9882793  66.1205196  39.8522925  35.2500153  65.2066231
  40.6230927  34.7643352  66.4153290  17.7310240  36.6316152  14.1450405
  18.2751250  37.3563457  14.4531822  17.2700572  36.3287306  14.9273455
  21.5296412  10.9531033  44.8623466  20.7829595  10.6598496  45.3845549
  21.1645722  11.6112685  44.2709303  64.0430403  58.3086252  19.3874490
  64.7952509  57.7387905  19.2271364  64.1068745  58.9849329  18.7130857
   8.0587274  26.6582489   5.1218331   8.4337705  25.9227514   5.6062078
   7.6445937  27.2007632   5.7929546  78.6717463  39.4121170   5.5744606
  79.3674421  39.2965198   4.9272573  77.9492521  38.8758779   5.2478397
  50.5319166   8.1340796   9.6419317  50.0393438   7.4812204  10.1393032
  51.1330795   8.5179728  10.2802563  53.0532694  12.3123062   7.3509926
  53.0041981  11.5921795   6.7223096  52.4787378  12.0438671   8.0679893
  58.0874968  17.8210235   7.1797693  58.0764771  18.2180560   8.0506742
  58.9571142  18.0238962   6.8350410  69.5106030  44.9828911  71.7283010
  70.0736332  45.5417871  71.1927032  68.6511946  45.4027224  71.6910172
   1.7006470   4.3448982  69.8550940   0.7716898   4.5672062  69.7930527
   1.8438578   3.7149343  69.1487885  32.1358061  37.5079989  12.7351761
  31.9742966  38.4126258  13.0031192  32.2313476  37.0279741  13.5577822
  30.1133990   5.7164884  14.1008830  30.1912904   5.5839390  15.0456560
  30.6549835   6.4850610  13.9214003  80.3829670  74.3078184  22.0918322
  80.3379631  73.3678293  21.9168162  79.8608351  74.7063541  21.3955688
  76.2991142  21.0899973  70.8052874  77.2537994  21.0268068  70.7768345
  76.1271381  21.9179606  71.2537622  54.3993378   4.1373846  32.4048829
  53.8346672   3.8008267  31.7091036  53.8309717   4.7120461  32.9176784
   6.2009847  14.3234229  19.9584234   6.2647843  13.3798349  20.1060796
   5.3858286  14.4347155  19.4691730  24.5601606  81.9938850  16.2049079
  23.9178944  81.5645218  15.6397760  24.1095090  82.7729225  16.5308654
  83.7489223  77.8451014  19.8805833  83.5303402  77.0565987  20.3772879
  83.0827904  78.4825468  20.1378036  44.9307823   7.9803091  49.5217037
  45.5442429   8.6825782  49.7378349  44.9133968   7.9635328  48.5648108
  13.5436189   7.8258252  27.3270631  13.5300064   8.7639767  27.5165844
  14.3062401   7.4964464  27.8026175  18.0196083  26.8757105  43.7907076
  18.5559762  26.8745685  44.5835114  18.2502520  27.6917124  43.3466673
  64.3545341  72.8896093  68.1608725  64.3082762  72.4641371  67.3046780
  64.9648428  73.6161232  68.0346346  10.5367100  13.4208655  18.7330067
   9.9057537  12.8367019  18.3124363  10.0573921  14.2396224  18.8599801
  17.2970545   6.1236727  33.8002801  17.9615402   6.7726237  34.0316963
  16.8904150   5.8892804  34.6345091   9.2588133  57.5822973  58.5964680
   8.6786056  58.2332706  58.2017183   9.9790549  57.4935579  57.9722834
  60.9721375  24.8036051   8.1290346  60.4148102  25.3990722   7.6279938
  61.8469906  24.9277353   7.7609992   5.2324706  77.4895334   9.5747501
   5.2352917  77.8975964  10.4406071   4.5238522  76.8472910   9.6149570
  56.3513231  14.3195570  30.3540039  56.0986471  13.8004386  31.1174870
  56.5946627  15.1723921  30.7141280  29.2304325   9.8971838  54.0180826
  30.0639033   9.4466424  53.8818121  28.5796046   9.1956127  54.0393686
  17.7475882  29.0605116  21.5437031  16.7995393  29.1925526  21.5435195
  18.1096458  29.9240613  21.7422748  13.5907340  37.6454353  23.4973550
  13.3059990  38.5307050  23.7241936  13.9917564  37.7369165  22.6330376
  24.7264218  79.3834352  17.3231733  24.6363640  78.5666037  16.8323541
  23.9589524  79.8983908  17.0740867  25.0230765  20.0759172  44.3568707
  25.3698659  20.9665108  44.4098997  24.2415500  20.0899196  44.9093676
  18.3657122  52.5464487  31.1098695  18.3810163  53.0224371  30.2795482
  18.8947952  51.7653656  30.9479690  15.9436464  26.8073750  13.4878731
  16.1436701  26.9472241  12.5623119  14.9875677  26.8233061  13.5313606
  55.8586121  64.2072964   4.3141705  56.5007591  64.7197294   3.8229495
  56.1865759  63.3090019   4.2725310  87.3476982  62.3619461  62.6028395
  86.5612316  61.9005632  62.8940916  87.4699688  63.0579853  63.2484531
  54.0285492  69.2046547  16.2723041  54.4737387  69.6245289  17.0083380
  53.7317848  68.3636856  16.6200566  16.8133140   4.5316815  18.9928615
  16.8918407   3.6551458  19.3693590  15.9914184   4.8715794  19.3466830
   8.4406990  56.9369078   5.1820147   7.9899377  57.7711201   5.3129035
   9.1623771  56.9534111   5.8106160  40.0878143  81.9700527  35.2370501
  39.7427440  81.3713455  35.8994055  40.5562210  81.4041233  34.6234083
  16.5534699  17.4589837  26.3139367  15.9204710  17.8985286  25.7461834
  17.2339094  17.1468365  25.7174492  67.3411512  16.5364480   8.4048688
  67.3989201  17.4368858   8.7244105  67.6661348  16.0034752   9.1305107
  32.6206064  23.2813406  18.6444438  32.1945739  23.9349651  19.1989744
  33.0610967  23.7932205  17.9660785  20.4058766  21.2040091   8.6862165
  21.2124777  20.7411575   8.4595138  20.5713844  22.1120191   8.4325254
  44.9001026  14.3872666  13.5624373  44.1294289  13.9238274  13.8903332
  45.2927971  13.7831175  12.9323363  44.0312433  32.2002196  15.7901537
  44.0699482  31.2439156  15.7754278  44.8332262  32.4654818  16.2403679
  28.2463670  25.9464622  49.0578032  28.3706760  26.3349509  48.1918573
  27.6132536  26.5203547  49.4891357  16.3892400  39.1306233  15.8482432
  16.4157820  38.9091921  14.9173856  16.6636240  38.3287263  16.2931097
   8.4876633  78.9552641   0.7873301   8.6138994  78.0148077   0.6614866
   9.1810775  79.2107058   1.3957363   1.3726251  78.2451534   0.9545540
   0.6125828  78.7889767   1.1614861   1.9256842  78.8041878   0.4088117
  67.3251677  55.7540941  54.4767618  67.8777742  56.1667299  53.8129902
  67.5140476  54.8190165  54.3981075  25.5453515  76.6147137  13.0253589
  25.6389570  75.6701756  12.9016268  26.4441085  76.9389009  13.0834281
  67.2861242   8.9896983  20.7736683  67.4481726   9.5597577  20.0219989
  66.4578724   8.5550302  20.5704618  29.3783927   6.7793369  18.6517906
  29.5200801   7.7257478  18.6302710  30.2539563   6.4038956  18.5587192
  36.3336706  18.9370084   0.7143706  35.4460430  18.9424491   0.3561540
  36.9014525  19.0251267  -0.0511955  74.4597960  20.4202199  24.7868800
  74.6100426  21.0078907  25.5273509  73.6769724  20.7682371  24.3599057
  11.5539074  33.2607007  14.8675931  11.1287761  34.0360284  14.5010400
  12.3392892  33.1430125  14.3332183  73.5511065  43.7784672  23.0012941
  74.0897417  43.0067873  22.8263211  73.5651922  44.2714071  22.1809030
   2.4851094   0.6471001  32.7782369   2.0404276   0.5663468  33.6220193
   1.8835700   0.2457467  32.1511030  52.0621538  30.3918481  17.2632456
  52.2762871  31.2314606  17.6699758  51.1968899  30.1721573  17.6086187
  18.1114447   4.6172994  21.5969944  17.6146245   5.0589877  20.9082890
  18.8502038   5.2005529  21.7710114  28.0001879  23.3627582  36.8038225
  27.0712543  23.1433916  36.7317390  28.2818794  22.9471970  37.6188016
  63.5701227  19.3206131  17.3093414  64.2232847  19.3346906  16.6097605
  62.7344704  19.4448245  16.8593490  57.3057222  41.2509680  65.9191990
  58.1861639  41.0674620  65.5915165  56.7443800  40.6257248  65.4607248
  12.9361463  12.6018298  17.3579395  12.6980567  13.4969079  17.1163166
  12.1718764  12.2694981  17.8287673  17.5993228  28.6110044  35.9805942
  16.9673455  28.3423924  36.6474414  17.0615017  28.8931108  35.2407312
  55.3437328  26.0088444  16.5447474  55.2653742  26.8618274  16.9719636
  55.2398491  26.1976337  15.6121182   2.7583963  45.2042532  15.1735175
   1.9497320  45.0713682  14.6789110   3.2238066  45.8884001  14.6922994
  10.0367832  37.0004320  47.2950745  10.1150990  36.2611222  47.8979969
   9.1847700  36.8786573  46.8761778  49.8540545  58.7159872  69.0771151
  50.5836582  59.1985369  69.4657755  49.0868616  59.0010834  69.5734644
  46.2207699  26.9442630  26.9489884  45.5214071  26.3751650  26.6276550
  45.8229351  27.8139997  26.9879675  67.1878576  44.4479322  51.8153048
  66.4222622  44.8783636  52.1958590  67.0234442  43.5131598  51.9393873
  32.8723025  11.6563344  22.1668530  32.0949054  11.3050985  22.6010370
  33.1200266  12.4146605  22.6958227  21.2630749  15.8557463  35.8913231
  21.5484238  15.7442212  36.7981696  20.8001637  15.0438976  35.6843305
  43.5337973  25.1201868   8.5315996  43.8419390  24.2435765   8.3017457
  44.2959547  25.6841302   8.4000236  60.9653521  67.9539347   5.4930967
  61.8946934  68.1335163   5.3505862  60.9518862  67.3060036   6.1975360
  51.9369173  35.7040977  12.0028341  51.9800949  36.3495684  12.7083373
  51.0109854  35.6740189  11.7620599  22.9847741  13.9401197  66.8279791
  23.0605459  13.6698341  65.9128666  22.0661926  14.1896999  66.9287348
  66.2414646  19.9185085  13.4403729  65.8549356  20.5169916  14.0796256
  65.4904127  19.5053065  13.0144501  36.9586229  30.1652408   5.7203192
  36.0572314  29.9684477   5.9752685  37.4957299  29.6516371   6.3236105
  24.2046428  21.9243860  48.7091494  24.8114777  22.6353216  48.5028648
  24.7247672  21.3072753  49.2238092   7.2758776  29.3622684  15.4707015
   6.5027642  29.9110579  15.3389525   7.1692288  29.0060139  16.3527107
   2.9432604  10.4654014  11.1694992   2.0420316  10.1775777  11.0239780
   3.4199944   9.6625918  11.3803399  68.9563751   8.6324435  65.3375292
  69.5961285   9.3418247  65.3985739  68.3756447   8.8944584  64.6231556
   7.4001783  64.2473030   4.3498078   8.3290523  64.0188837   4.3851516
   7.0377165  63.6726904   3.6755112  54.0653896  39.1695690   7.0169014
  53.3896351  39.2748570   7.6866037  53.9480114  39.9225831   6.4377427
   5.9269583  68.7808228  62.0430231   5.5786949  69.6642590  61.9226646
   5.2404201  68.2048416  61.7066574  59.0873337  18.2594728  20.6861973
  59.3700457  19.1633749  20.8249974  59.3070412  18.0774248  19.7725117
  41.7184305  71.9709778  68.4308577  41.4217472  72.3414421  69.2620993
  42.4264288  71.3743067  68.6736679  43.4169197  14.7284377  24.8964882
  43.6137247  15.1959133  25.7082558  42.8610420  15.3306985  24.4020057
  33.0203009  43.6905766  22.5461674  32.4029684  42.9811859  22.3675656
  33.8558722  43.3727503  22.2040582   7.4333006  52.3038340  18.5622501
   7.7295458  53.2014084  18.7133360   6.6166794  52.2346926  19.0568018
  63.4377337  26.8521023  43.0815411  63.9684677  27.6410675  43.1914902
  62.9865646  26.9812822  42.2472811  26.2066603   5.4411489  19.6135831
  26.8066263   4.9367478  19.0641725  26.0775161   6.2611639  19.1370022
  56.6446018  69.8993921  60.8094263  57.0091057  69.1993999  61.3510752
  55.7716227  69.5876551  60.5707645  87.6635075  77.4555254  13.3721292
  87.2262287  77.2875690  12.5373793  86.9508457  77.5129128  14.0085590
  74.9287367  69.3197775  41.4717293  75.6281424  69.8307323  41.0643101
  74.4492579  69.9531841  42.0057058  29.6628022  73.4220362  32.4078798
  28.9813256  72.8865290  32.8141451  29.1956902  74.1831303  32.0632434
   8.1782323  72.8166437  46.1865425   7.8122079  72.9241323  47.0644426
   8.8094950  73.5310936  46.1011124  58.3613682   2.7764142  15.9541082
  59.1875696   2.4136156  16.2734902  57.7177238   2.5260195  16.6168714
  17.3300362  10.9885275  27.5379658  17.9118812  11.6465235  27.9183984
  16.5268040  11.0515833  28.0547571  79.1511297  76.9449997  69.0257311
  78.4384060  77.1914101  68.4362078  79.5083284  76.1417389  68.6470270
  14.6860373   5.2201909  32.3966360  14.8223317   4.4694889  31.8186212
  15.5683994   5.4882824  32.6531434  48.0474281  24.5865297   7.1324319
  47.8688049  25.2909660   6.5094578  48.3566999  25.0353599   7.9192841
  42.1462727  43.2556438  13.7112439  42.6191950  44.0674067  13.8946021
  41.7143679  43.4144306  12.8719103  61.5416861  38.0385447   8.8676542
  60.9361124  38.6184812   8.4059346  61.9845676  38.6071706   9.4975376
  42.9708099   0.3697541  47.8197527  43.5960293  -0.2218187  47.4009705
  43.2800341   1.2462114  47.5907612  59.9421263  25.9986663  21.4071989
  59.9030972  26.6399908  22.1167135  60.1995230  26.5074444  20.6383538
  62.5270557  24.4677782  20.5038047  62.8866100  23.8154173  21.1049533
  61.7253971  24.7704554  20.9303761  70.9801483  18.3200729  13.7911379
  71.4857578  18.6137199  14.5490050  70.1841450  18.8511968  13.8138902
  60.6016397  64.9357367  63.4446192  60.0849342  64.4782209  62.7813482
  60.8258581  65.7728481  63.0381727  31.3129234  48.2988596  38.4652424
  31.4995885  47.4071026  38.7587619  31.1256790  48.2091951  37.5308275
  25.5657792  15.1851428  30.1537323  24.9544096  15.9084690  30.0149560
  26.3361096  15.5948198  30.5474186  58.9363718  23.4641886  21.2258649
  58.5719776  23.3053374  22.0966220  59.0232658  24.4159436  21.1725664
  24.9151373  44.2801380  18.3131301  25.8253932  44.4503164  18.5554254
  24.9072957  44.3354225  17.3575604  13.5184908  33.1302929  13.0799842
  13.7320876  32.1994615  13.1444919  14.0927184  33.4604692  12.3889863
  25.1684427  28.2581615   2.2672966  24.6810365  29.0779924   2.3481919
  26.0186195  28.4446621   2.6656070  32.9735804   8.0405807  14.3916464
  33.0310512   7.1223581  14.6558356  33.4227228   8.0753744  13.5470796
  46.3818312   2.6856712   3.4244329  46.7805624   2.5557134   4.2848724
  45.4656982   2.4357662   3.5447803  49.5274496  12.8797925  26.1242819
  48.8943481  12.2033000  25.8839178  49.6046972  13.4246683  25.3410983
  32.4346089  59.7753286  45.2033997  33.1080461  60.0924253  44.6015978
  31.6387177  59.7361183  44.6730661  73.2526541  42.4742365  14.9906409
  73.6109686  43.3434916  15.1701844  72.3392963  42.6358223  14.7542095
  61.6028452  71.9029474  31.6873050  62.1306181  71.1725712  32.0101714
  62.2113657  72.6409817  31.6520643  16.7421579  10.5782318  37.2705221
  16.7578626   9.7763515  37.7929926  15.8223236  10.6895530  37.0302224
  70.3222370  65.2107143  48.6524105  70.0099325  64.6736717  47.9242039
  71.1594629  64.8172617  48.8983440  14.4318342  41.9305754  32.0132899
  14.4049811  42.7646971  31.5445137  14.0728974  42.1300888  32.8779221
  47.8140688  38.2803178  18.8326192  48.6049414  38.7818503  18.6345768
  47.2859335  38.3417225  18.0366719  49.5996428  32.0855641  10.9627414
  48.8339663  32.6178861  11.1786127  50.3440046  32.5968289  11.2801719
  55.6450748  22.5532842  65.5913687  55.4192114  23.1182814  64.8524523
  56.5224886  22.2302175  65.3864098  72.4274826  57.4298191  54.2270517
  71.6942739  57.3338509  54.8348570  72.4886084  58.3724689  54.0724325
  32.1111107  35.2588487  24.3040109  32.0465469  34.9311066  23.4069896
  32.4717379  36.1406708  24.2114449  16.2543309  75.7928705  51.5202665
  16.4590681  75.4049826  52.3710680  16.9087291  75.4257441  50.9259510
  64.6581364  46.4172268  70.2549314  65.6029987  46.5487909  70.1764727
  64.5664120  45.5136395  70.5571699  64.5238972  55.1969481  70.8595705
  65.2915144  55.7649326  70.7933474  64.5062923  54.7203302  70.0296545
  54.2960453  27.2989750  19.4342709  54.2990685  27.9695010  18.7511778
  54.1412592  26.4793682  18.9646769  35.7109094   4.8339748  10.0143623
  36.4344764   4.6235445   9.4241059  35.5211902   5.7561135   9.8414534
   6.4142650  17.1011484  37.6186538   5.8548254  16.6580653  36.9807386
   6.4693677  18.0031860  37.3031831  35.2580667  22.8283668  23.3909154
  35.2138090  22.9335213  22.4405408  35.4612517  23.7041116  23.7195826
  23.5700154  51.7533684   0.3159737  23.4036732  51.0273457   0.9171788
  22.9372144  52.4249268   0.5705399  74.0046978  52.0310879  35.7979226
  73.2524538  52.6191807  35.8650780  73.6429882  51.1599684  35.9608531
  39.2261553  53.5008812  29.1627002  39.5145965  52.9731274  28.4180474
  38.3561301  53.8121843  28.9129448  20.1946926  24.6610832  58.6070108
  19.5504451  24.9484158  59.2540169  19.9197006  25.0814033  57.7921867
  40.9051037  13.7319136   5.9298110  41.1049414  12.8095043   6.0893631
  41.7539692  14.1315794   5.7402730  27.0780611  59.1427088   9.9383110
  26.8535852  58.5337973   9.2346990  26.7778730  59.9949455   9.6223843
  48.0787468  19.8420489   9.3029851  47.3230314  19.5148706   9.7909129
  48.6867237  19.1031063   9.2792732  73.0322504   0.2816496  66.5980625
  73.3226299   1.0422133  66.0946226  73.2837200   0.4811202  67.4998426
  15.3071809  20.2205348  20.3728485  15.6810796  20.6610346  21.1359954
  15.8154619  20.5515218  19.6323562  61.1377716  29.7018218   6.8370068
  60.6749392  30.2633929   7.4588239  60.4954481  29.0359211   6.5915990
  26.0035992   8.0869550  11.4938772  26.3847542   8.9581847  11.6030097
  26.7466903   7.4888015  11.5730035  30.2636003  65.1577616  66.6630793
  29.7870898  64.3352270  66.7753410  31.1811996  64.9240160  66.8031120
  22.2398591  18.1895030  49.3899441  22.9972124  17.7549565  49.7821426
  21.6983128  17.4735010  49.0578270  36.4267278  15.4334688   6.5150768
  37.0930791  16.0130763   6.8842143  36.6611910  15.3574300   5.5901569
  10.2865899  21.3506174  60.4433870   9.5445049  21.8025708  60.8449841
  10.1514149  21.4579988  59.5018864  54.0884352  80.9078026  70.6594133
  53.6218166  81.1763954  69.8679876  54.0616083  81.6785049  71.2264633
  49.9436331  67.6265478  69.0310144  49.8631620  66.7446232  68.6677504
  50.8818436  67.7375078  69.1849136  44.5885706  26.4328790   0.2897403
  43.8600683  25.8502150   0.0752181  45.3161001  25.8434963   0.4886392
  37.4820113  20.0211787  34.7678590  38.4013104  19.9600029  35.0274301
  37.4204516  19.4861424  33.9765453  14.1395009   3.7805411  12.2862029
  14.5921445   4.6228927  12.2438991  14.8304451   3.1306466  12.1578836
  57.2987938  65.8116817   8.2092518  58.0160522  66.3284159   8.5763454
  56.5926552  65.8927155   8.8503683  42.2597408  10.0668788  55.8750439
  42.1378326  10.6645072  56.6127491  43.1375647  10.2649891  55.5488396
  35.5848169   4.9089527   5.0818437  35.2280998   5.4222792   5.8067453
  35.3189349   4.0092638   5.2718407  47.6655722  19.3124378  49.2967510
  47.8785563  18.4956217  48.8454390  47.0417881  19.0553117  49.9757290
  51.0359621  63.5379887  12.7217948  50.6906509  63.3020592  13.5828006
  51.8940496  63.9207697  12.9045498  28.9361382  32.4268413   2.0105465
  29.7807026  32.8417277   1.8350181  28.3097911  33.1506586   2.0138021
  61.9069862   9.8851794  38.2099581  61.8426943  10.2120769  39.1073084
  61.9992304  10.6729484  37.6741028  46.4903164  30.3690791   4.5504975
  45.9230852  29.6364999   4.7909319  46.9906378  30.0483656   3.8001284
  81.6593456  48.6820555  45.1018143  82.4744606  48.6144972  44.6045685
  81.9307613  48.6133194  46.0171461  19.6552932  37.9952621  17.4537265
  19.5860827  37.0871544  17.7483153  19.9319005  38.4790945  18.2319474
   7.1636885  77.8876305  19.2369103   6.5336907  78.3878136  18.7181115
   7.9530096  78.4290886  19.2423379  40.8597898  47.5380898   1.1816312
  40.4859877  46.8234921   0.6660255  41.8062401  47.4105167   1.1169290
  14.8389232  74.1079998  40.3223372  14.3421960  74.3796396  39.5505190
  15.6745565  74.5681524  40.2435303  55.8449316  24.9431849  20.4379797
  56.5201473  24.9550700  19.7596192  55.6473160  25.8664370  20.5954194
  34.2416406  22.0621300  12.4800861  34.2756033  23.0127883  12.5865185
  34.2725635  21.9258809  11.5331376  82.0242214  73.6078167  65.8593702
  82.2658348  74.5338678  65.8425188  81.4683533  73.4912586  65.0888777
  60.1702499  14.7212243  63.2585955  60.8493423  14.7833478  63.9303112
  59.7852755  15.5969715  63.2254934  45.2284622  27.1635342   8.2557803
  44.7435379  27.9020619   7.8874660  45.7712269  27.5517321   8.9420325
  83.8132668   4.6051973  17.3070836  84.4747925   3.9142290  17.2727311
  83.9477921   5.0235021  18.1574702  66.5466833  67.9813766  23.7579179
  67.2899294  68.3285999  23.2647133  66.8617868  67.1498632  24.1122198
  58.2105780  72.5236511  12.2030830  58.8209295  72.2704792  11.5105474
  58.1863785  71.7673397  12.7892911  40.0878286  24.0140653  17.1799278
  40.8197832  23.6104226  16.7135131  39.6077633  23.2764792  17.5564075
  39.5983219  45.2375841   5.4819351  39.9580550  46.1241150   5.4521900
  40.3650761  44.6706343   5.5649292  40.6249714  33.8047981   7.6138973
  40.7245970  34.6090937   8.1232262  41.5208817  33.5437679   7.4007291
  18.6130714  26.5305352  32.3059177  18.8163948  27.1242213  33.0287099
  18.8058019  25.6586266  32.6506805  23.5480452  12.0709455  34.3122935
  23.5602546  12.2085130  35.2594781  23.9864039  11.2293196  34.1868353
  22.6919055  25.6805706   2.9405156  22.3267746  26.3523340   3.5164011
  23.5371113  25.4621220   3.3331209  48.7771654  17.1078014  47.6303291
  48.5414791  16.6494238  46.8237495  49.7188663  16.9626975  47.7218580
  85.0203800  43.5837793   6.8735200  84.4709682  44.3672514   6.8969786
  85.9158039  43.9173937   6.9296813  32.7901506  17.6466429  32.8105927
  33.2683134  18.0335474  33.5440087  32.1719408  17.0415008  33.2202888
   8.8565719  48.0770636   5.6083244   8.6218292  47.1555901   5.4987490
   8.0984306  48.5583925   5.2769989  64.9735165  10.3887403  33.7403083
  64.8767519  10.1531148  34.6629930  65.5940533  11.1175442  33.7430263
  38.3962536  31.6249633   3.9557016  37.7550697  31.2937021   4.5844978
  38.3937836  32.5729704   4.0880054  47.2060061  75.4349899   9.5211869
  47.6842690  75.0529528  10.2570856  46.4663076  75.8882618   9.9256915
  21.8422818  15.3515136  12.8556204  22.5521207  15.5111766  13.4776068
  22.0409179  14.4935429  12.4805737   5.6892347   6.1089683  33.2939219
   5.5997807   6.5567386  32.4526548   6.1834127   5.3146797  33.0911279
  40.1667643  49.3094492  17.5210798  39.2410779  49.0718889  17.4671710
  40.1849270  50.2471590  17.3297560  46.9841194  76.4107180  33.0294299
  47.5297928  75.6253624  32.9884243  47.0841408  76.8170834  32.1685600
  32.3089695  46.2963629  16.9339049  31.9619846  45.9569740  17.7589202
  31.8965840  45.7557440  16.2601829  82.6407814  53.2893229  69.1865873
  83.5760212  53.2190037  69.3779421  82.5330925  52.8383970  68.3491516
   6.8215710  36.2682366  48.2509661   6.9631279  35.3563571  48.5052633
   6.0154241  36.5201283  48.7014198  38.0797720   6.4112735  39.2858672
  38.1169367   6.5893221  38.3461070  38.9137578   5.9843493  39.4819188
  41.1716747  28.0402613  17.8676701  41.9612694  28.2150841  18.3797371
  41.4913893  27.6139760  17.0725000  58.5689592  71.7526817  31.3693762
  59.5137453  71.8748331  31.4625955  58.3458757  72.2169542  30.5625820
   0.8647006  71.3583374  33.8044143   0.3902998  70.7486010  34.3695712
   0.3049803  72.1338606  33.7656116  14.6628225  66.4357424   4.2647561
  15.5920959  66.2251711   4.3560866  14.2135668  65.6019306   4.4031808
  33.3296251  22.6540923  30.8092713  33.7491250  22.2998905  30.0251865
  32.6142859  22.0454574  30.9938908  63.5268497  21.1959839   6.3557249
  62.9067039  21.7485118   5.8799458  63.6507082  21.6416740   7.1937305
  58.8810682   3.7920308  35.7389688  58.9705801   3.0800506  35.1054835
  58.8648891   3.3546013  36.5902185  20.3722048  27.4598455  22.4959493
  19.4249260  27.5954008  22.4731302  20.5361509  27.0578718  23.3490419
  40.4620695  13.5175216  26.3204694  40.8958292  12.6866722  26.5148234
  40.5921555  13.6414409  25.3802800  16.7584431  15.8011055  35.0276113
  17.1269751  15.9866524  35.8913183  16.4884102  14.8839772  35.0744176
  21.1730528  67.8387117  25.9180570  20.7870483  67.4285650  25.1441002
  20.4228473  68.0713844  26.4651322  49.8232889  39.5019555  63.5943937
  48.8851976  39.3715572  63.4557581  50.0456333  40.2499294  63.0400229
  16.8533266  33.8495803  45.9932041  16.5194833  33.0008197  46.2836933
  16.1389470  34.4614410  46.1707354  36.8276858  16.9321394  19.1955948
  37.6610017  17.1492088  18.7776244  36.9318295  17.2215438  20.1020336
  25.6079960  44.1785097  28.6943007  26.5279818  44.3373728  28.9055419
  25.3412938  44.9482250  28.1916642  22.0206380  13.5416925  23.2727909
  22.0189381  14.3342841  23.8094735  22.5313354  12.9103661  23.7795925
  81.2300491  55.1092243  61.7609262  80.6217861  55.4300737  61.0951090
  81.6328335  54.3364620  61.3648987  86.7201805  81.9034958  64.6716642
  87.6206684  82.1848679  64.5098162  86.2337303  82.2039318  63.9039898
  54.7988558  15.3441870   5.0331593  54.9522066  14.4789183   4.6536523
  54.4847727  15.8746481   4.3009055  70.6057882   8.8011998   2.4446467
  70.9115934   8.7605202   3.3507705  69.7006655   9.1055304   2.5107625
  59.1320372  67.6454353  68.7279510  58.9336967  68.5641432  68.9092445
  60.0870895  67.5944185  68.7667465  11.3763475  60.6683922  40.0759411
  10.9029150  59.8697376  39.8430276  11.0523343  61.3267708  39.4613028
  49.5073128  43.9473343   3.7776542  49.8402834  44.1462135   2.9025480
  49.6425247  44.7542572   4.2744678  37.3595142  12.0783186  36.8095016
  37.2523832  12.8012824  37.4276257  37.3503113  12.4961185  35.9483457
  53.0085182  14.9878585   7.2402024  53.4237766  15.2514029   6.4190221
  52.9594374  14.0333319   7.1882290  17.5359046  54.2359781   4.0276575
  16.6819596  53.8044882   4.0563193  17.3564899  55.1396227   4.2874148
  85.5055237  67.3103952  65.3037882  85.6682014  67.3138809  64.3605232
  86.3689709  67.1783781  65.6952667  52.5907135  17.1078753   0.3539247
  52.3166418  17.0802343  -0.5627833  51.7788792  17.2431421   0.8426539
  49.0593719   9.8160261  21.1491561  49.1731548  10.4548323  21.8528700
  49.5541620  10.1785231  20.4143023  65.1504946  70.4183722  55.2245188
  65.8984661  71.0072041  55.1242733  65.4931927  69.5546150  54.9949169
  72.3916912  76.2575769  10.9578609  72.7851200  76.5932274  10.1523888
  72.0747375  75.3851461  10.7241213  68.1338596  59.7118473  70.5596828
  68.2764959  59.7826910  69.6158218  68.7408876  59.0281153  70.8429956
  17.3486638  32.7082133  31.2621593  17.6345360  32.2102761  30.4962826
  18.1127262  33.2300115  31.5074492  69.6753120  68.4453535  42.4760246
  70.0318098  68.8700581  41.6957903  68.7833881  68.7853670  42.5474072
  28.8991189  31.5181351  20.2511621  27.9606605  31.6499305  20.3859091
  29.2397356  32.3933053  20.0659919  31.5385795  32.9165602  40.2936602
  30.6879663  33.1371856  39.9141669  31.4341760  33.0855250  41.2300301
   5.9513474  69.9320889  16.7585206   6.1501342  69.2887449  16.0782123
   5.1684147  69.5901108  17.1901429  52.9146671  52.1177959  23.7956452
  52.6290369  52.5099897  22.9705191  52.1052694  51.9774580  24.2869782
  15.0108278  10.2836132  44.6313524  15.5605781  10.2218771  45.4125023
  14.9307597  11.2234509  44.4684839  60.9590292  52.5346947  52.0926905
  60.2817917  52.4863672  51.4179707  60.8507633  53.4038019  52.4788952
  45.6481361  17.9037833  22.7920127  45.9670973  18.1364715  21.9200301
  45.5765533  18.7401891  23.2519412  33.8181591  55.3232956  28.3233070
  34.3264985  54.8440981  28.9776707  33.8662171  54.7792625  27.5372124
  26.6518593  63.6655188  64.8786926  25.9129167  63.9384270  65.4224920
  27.1340632  64.4742537  64.7064734   9.0978670  82.3701477  11.5052068
   9.1523868  82.8458977  10.6763995   9.4724846  82.9696369  12.1505821
  36.2627172  81.4076042  34.0487456  35.4499960  81.0607338  33.6807799
  36.7575908  80.6312275  34.3106198  28.0413485  35.5863619  58.8581324
  27.9280519  36.5172982  59.0498400  28.9786434  35.4887271  58.6902714
  44.0821791   6.8054700   2.4847440  43.7886286   7.5738657   1.9952254
  45.0087738   6.7185116   2.2609343  43.1601763  33.9516735  57.2143793
  42.3872566  33.6824131  56.7180729  43.1713676  33.3699775  57.9744720
  73.8894606  43.3111334  62.7054882  74.2875099  44.1264200  62.4003696
  73.2971859  43.0545712  61.9986534  81.2237930  70.8464193  59.1241598
  81.0896492  70.8413696  58.1764221  80.7805252  70.0562572  59.4330168
  60.5345678  66.3322258  58.7023783  60.0903130  66.8997097  58.0724335
  59.9397850  65.5912590  58.8182783  36.2869811  68.8234091  13.3266997
  36.1469245  69.6711397  12.9048395  37.0770383  68.9454699  13.8531423
  12.0777082  80.4416847  61.4066982  11.3254786  80.7431030  61.9161415
  12.5908625  81.2335491  61.2458754   2.7971259  65.6853437   2.5214168
   3.4440053  66.2083673   2.0478947   2.9194710  65.9268999   3.4395209
  14.7318339  17.2269857  70.3809690  15.6767488  17.2497177  70.5321360
  14.6347535  17.4017978  69.4448900  49.6061277  17.1073079  31.7389107
  48.6581659  17.2299433  31.6883039  49.9177408  17.2799790  30.8504772
  13.2001746  42.9465532  70.9969759  13.1716466  43.7724781  71.4799452
  13.9824879  43.0159616  70.4498005  38.5136724   5.4925680  30.6608677
  39.4464922   5.3145295  30.7807994  38.1133056   5.2437639  31.4939547
  69.5741320   1.6774283  64.9507380  68.7152386   1.2775248  64.8143148
  69.6025229   2.4026349  64.3266344  46.5980673  58.3915949   0.0298694
  47.3560333  58.9395094  -0.1738585  46.9406509  57.7174664   0.6167376
  56.0655737   5.2893507  50.7789326  56.2849712   5.9490454  50.1209784
  56.0646009   4.4620168  50.2975273  55.2439404  37.6390767  19.7933352
  55.2368879  36.6899443  19.6695304  54.3199205  37.8779292  19.8666275
  31.6311526  57.2711277  21.2755227  31.8700957  57.7034664  22.0954132
  30.7381082  56.9587564  21.4208794  27.6830316  49.0479946  25.0699878
  27.7469659  48.7712002  25.9840631  26.7912292  49.3848133  24.9835443
  77.2603559  39.0957713  20.1725721  77.9594040  38.4674573  19.9914932
  77.0820284  39.5061231  19.3263805  58.7713051  45.0913858  13.7962961
  58.5886812  44.9583673  12.8661430  59.3769360  44.3862104  14.0247095
  54.1128731  13.2259572  48.1251669  55.0243378  12.9411542  48.0592012
  53.8704872  13.0448794  49.0332937  35.0543952  72.9581165   2.1381859
  34.3719196  73.5834074   2.3820466  35.0526357  72.3135662   2.8458479
  48.9231396  48.6506176  13.0896544  49.8112631  48.3733082  12.8647804
  48.9965868  49.5936632  13.2362998  33.0134368   3.9612547  53.8477755
  33.4222531   3.2457304  53.3608198  33.1448388   3.7308264  54.7674847
  37.5441074  22.6495075  71.7459869  37.4839950  23.0792665  70.8928013
  38.4544778  22.7750015  72.0137691  46.3889647  45.6623554  15.5563498
  45.5274439  45.7083893  15.1417458  46.2555885  45.1075268  16.3248587
  26.9411278  25.2982831  28.6083269  27.7194047  25.8224106  28.4190893
  27.2039318  24.7328472  29.3345833  47.7639389  35.6465316  17.1542001
  48.5477686  36.0459256  16.7769349  47.6574469  36.0809064  18.0004919
  47.0626211  78.1816769  39.1536450  47.6148748  77.5836611  39.6572590
  46.1731339  77.9982042  39.4559479  68.1086636  68.2848358  52.4027443
  67.9229116  69.1978836  52.1834898  67.3674965  67.7967978  52.0439625
  21.1174464  23.5882258   4.4382763  21.6936803  23.8052487   3.7054136
  20.4365873  24.2606211   4.4148809  41.8947840  17.9163122  16.3268793
  41.1394262  17.6157951  15.8215511  41.9985962  17.2598863  17.0157611
  71.8585062  43.0953789  10.6639493  71.4138603  43.2939386   9.8398775
  72.3779726  42.3142433  10.4736531  -0.0281226  47.9891253  37.2010946
   0.2289857  48.9080000  37.2772503   0.4133670  47.5555658  37.9313993
  67.7711344  21.0129905  26.8419027  67.4789381  21.9194865  26.9373941
  68.5884953  20.9712577  27.3382998  36.1844182   1.4719962   2.8815973
  35.7045794   1.5652131   3.7045783  36.8864369   2.1201581   2.9389200
  84.2236137  63.1810093  15.4797304  83.9579964  63.1150818  14.5624888
  84.3422413  64.1192007  15.6278908  12.3567522  80.9163189  69.7280121
  13.0941451  81.4981365  69.5437002  12.3476350  80.8359814  70.6817913
  61.4661074   3.7466782  33.9190054  62.1508312   3.9878348  33.2951236
  60.6587172   4.0835333  33.5305643  85.0965118   7.5214785   6.4955121
  85.5886173   6.9397634   5.9161448  84.4248295   6.9607639   6.8836904
  23.5979819  69.5486736  25.6223130  23.6484957  69.7599506  24.6900868
  23.0046391  68.7988424  25.6661510  57.2600460  70.2574301  21.4993834
  56.3561153  70.0754547  21.7563438  57.6170969  70.7689047  22.2254276
  39.9638796  17.8593647  12.2497654  40.1968479  18.7200105  12.5979710
  40.7598019  17.5535142  11.8148017  30.4256821  53.9927435  69.8867035
  31.0971308  54.5793486  70.2349615  30.9150553  53.3354282  69.3920517
  73.5535908  18.1000912  20.6068468  73.8093376  17.2370720  20.2812338
  74.3039227  18.6615944  20.4120326  64.5453691   7.0705712  15.5872941
  64.8889256   6.5024108  14.8978066  64.9046040   6.7084026  16.3972425
  47.8224421  19.9875259  22.8815532  48.3139610  20.1877308  22.0849586
  47.1550751  20.6720257  22.9296064  39.4644690  53.1666040  37.0855188
  39.9527788  52.5082064  37.5797844  39.4685149  52.8418589  36.1850977
  66.8905067  25.8376765   1.6402653  67.1342754  24.9121666   1.6557491
  66.5871239  26.0203600   2.5295451  82.6212215  74.5278072  70.0604391
  83.5574627  74.4564009  70.2463961  82.2848129  73.6397171  70.1802778
   0.3621097  12.2523487   1.1455041   0.9527350  11.8134487   1.7576802
   0.8557229  12.2967482   0.3265985  43.1644249  70.4283905  30.8453608
  43.7142086  70.6434679  30.0918913  42.3596144  70.9271336  30.7047558
  67.6031065  19.9582958  -0.1141601  68.0133486  19.6815515   0.7051978
  67.0693111  19.2094195  -0.3796389  65.5186224  68.6786652  62.4380875
  65.5614853  69.6135664  62.6389837  65.9901667  68.5897970  61.6098499
  28.2549810   1.4660180  18.2559109  29.0651917   1.9671498  18.1628668
  28.4810114   0.7542753  18.8547146  87.7233791  59.8585844  55.5926514
  88.4770956  59.5494223  56.0952091  87.0076525  59.8873520  56.2275839
  73.9502192  34.1646385   1.7686635  73.7980366  34.7305918   1.0118492
  73.8449192  34.7422075   2.5246781  36.7351508  23.4492373  10.7209027
  37.3173475  23.2909036   9.9777949  37.0273638  24.2870998  11.0798335
  50.9328175  33.4602571   8.5540843  50.2697229  32.7978587   8.7484288
  51.3561773  33.1479430   7.7544230  79.2384305   0.2328746  58.7021017
  79.6725192  -0.4648240  59.1930294  79.6870246   0.2456634  57.8566265
  66.6740274  40.0857687  32.1411490  67.4197674  40.3423691  32.6836014
  66.8125772  39.1545033  31.9685650  50.4053307  19.8359036   6.8026322
  49.8029137  19.9876022   6.0744047  50.8107805  18.9913774   6.6061246
  17.2934103  30.3017855  25.4607725  16.8368280  30.8814549  26.0704827
  17.2648096  30.7645607  24.6233654  52.0207548  44.2581415  17.9570305
  51.9591427  44.0385532  18.8866627  51.1252260  44.4822931  17.7040100
   3.5172412  53.7742662   9.8365104   4.3226504  53.5668564   9.3626660
   3.5734650  54.7149944  10.0041306  48.9946079  18.5892904  12.8219175
  48.4001589  18.1580997  12.2079682  48.6878014  18.3139300  13.6857915
  69.2114925  39.3880796  29.1804886  70.0150156  38.8728309  29.1090798
  69.5073318  40.2565765  29.4532990  50.1939535  21.1976957  16.2728512
  50.9787416  21.3874149  15.7587039  50.5276251  20.9273243  17.1283007
  68.2464933   4.5528474  48.5466099  68.0241156   5.1915526  47.8692341
  69.1282940   4.7980881  48.8268185  32.8774858  73.5413980   5.9083641
  33.1391716  72.7059031   6.2952775  31.9614053  73.6476135   6.1647779
  83.7055206  56.3915539  67.6676226  82.8244019  56.0584784  67.4975824
  83.6037159  57.3432541  67.6792383  71.3949251  53.3131981  35.5804801
  71.3664913  53.7951374  36.4070129  70.5596018  52.8470564  35.5461645
  35.0528741   2.6384467  30.1954174  35.1032591   1.7599115  30.5720711
  34.4548988   2.5470674  29.4535923  57.5949669  12.9723942  12.3926127
  56.9399548  12.5805199  11.8150115  57.3746538  13.9037764  12.4074721
  86.8338108  17.3727477  70.0277662  86.6013622  18.2984126  69.9546528
  86.5509129  17.1235299  70.9075880  73.4827995  12.9315770  17.8421116
  73.4059715  13.4202421  17.0226383  72.5800133  12.7223349  18.0817425
  41.2854242   2.9373011  17.2440755  40.6414604   2.5995165  17.8665292
  42.1256018   2.8402704  17.6923120  62.5075674   1.9378565  24.1965890
  61.6549444   2.1636376  24.5684624  63.1381130   2.1966761  24.8686409
  76.0385847   0.6265552  16.0987270  75.5131674   0.8382567  15.3271389
  76.4579773   1.4533079  16.3371062  66.3445950  35.9783912  66.8862915
  65.4877281  36.1634183  67.2707129  66.3532448  35.0287867  66.7662525
  31.7979360  25.4505801   0.8142999  31.4393067  26.3034272   0.5687984
  31.2451196  25.1578641   1.5388303  46.9975853  10.1632702  29.9134231
  46.1755133  10.3205383  30.3778553  47.0416451   9.2116588  29.8200107
  65.8168983  36.9060183  14.2302346  65.8248329  37.7401733  14.6996534
  66.5471506  36.4134288  14.6048236  48.5861349  18.3781958  52.4130630
  48.5456800  18.4429622  53.3672142  49.0922308  17.5826216  52.2482491
  56.9238091  37.2727489   3.4177327  56.8988657  38.1731224   3.0937958
  56.4410734  37.3019409   4.2437750  64.5097828  32.5420618  15.5672073
  65.3522062  32.1788931  15.8404636  64.7387171  33.2634234  14.9811554
  86.6526318  41.0983562  18.7943053  86.5113735  40.3407955  19.3620861
  87.5338840  40.9728575  18.4423256  34.8321819  31.0077953  24.2942357
  35.0739574  30.6395888  25.1440597  34.9151897  31.9542265  24.4109082
  72.3298454  72.5588465  49.4182158  73.1155968  73.0663013  49.2149496
  71.8121958  72.5862741  48.6135292  32.8027368  34.7297716  35.4521799
  33.0101538  34.2171741  36.2334967  31.9540477  35.1280713  35.6453657
  45.3190470   7.3173130  38.5137987  44.6547270   7.4246746  37.8330731
  45.4359531   6.3701117  38.5871100  35.6792665  32.4097753  19.4283247
  35.9279013  31.4965057  19.2856550  34.8041272  32.4820709  19.0473580
  84.2498207  76.4843082  60.7484341  83.3365917  76.3009453  60.9689474
  84.4386005  75.9058380  60.0095415   9.8416287   1.2014130   9.9065870
   9.7096300   1.0946575  10.8486128   8.9740455   1.4201033   9.5664322
  71.9166803  47.0040321  61.3153267  71.1173010  46.6282749  60.9465027
  71.8626547  46.8104887  62.2512007  60.9939575  50.0691795  14.7513545
  61.2653399  50.2227831  13.8463736  60.7742405  49.1380024  14.7807515
  69.9189615  39.6833849  16.4974785  70.5173922  39.8690629  17.2211039
  69.9267769  38.7294412  16.4189661  45.3717947   6.0671568  34.2541862
  44.5868492   6.4077890  34.6832108  45.2012062   5.1309466  34.1510224
  37.0616364  76.4567614  53.6186266  36.7256689  75.5607557  53.5954571
  37.0950150  76.7238712  52.7000618  12.5001395  36.0881972  69.6052694
  11.7687333  36.7052078  69.5812750  13.1053090  36.4589787  70.2475500
  21.5030766  82.1071625  19.9160457  20.7549620  82.0967960  20.5130768
  21.9080710  82.9633522  20.0543952  16.8609989  24.7125626   9.4931585
  17.2178912  24.5731568   8.6159897  16.8377399  23.8390517   9.8838848
  33.1804109  27.8669953  44.6228695  34.1175199  27.6774979  44.6691942
  32.9845238  28.3099532  45.4484892  49.1041899  22.2679090   1.1574460
  49.6798182  22.0086217   1.8769252  48.4069300  21.6121244   1.1603148
  46.8751049  26.5967894  33.5000300  47.6187372  26.0109949  33.6417770
  47.1656466  27.4406862  33.8459468  52.9215336  24.3136001  23.9152646
  53.0171061  24.0254402  23.0074859  53.3038235  23.6050439  24.4329834
  13.2849538  54.6073246  64.3761158  12.5355577  55.1493406  64.1294241
  12.9675972  54.0788507  65.1083946  52.2097540  10.2932429  18.1869745
  53.0017853   9.7801894  18.3472717  52.5131750  11.0534859  17.6907933
  46.5628529  52.4887228  12.0684767  46.8566084  51.8092108  12.6752734
  47.3700953  52.8373003  11.6902113  69.6456289  16.4133620  18.9476430
  69.3306875  17.1468580  19.4758713  69.2343903  15.6425595  19.3387687
  70.9398556  26.5691042   3.8699928  70.6368923  27.0385003   3.0927449
  71.8259239  26.8991590   4.0189058  15.5066359  41.6002607   3.7330291
  16.2690449  41.0285282   3.8229707  14.9602079  41.3917923   4.4907832
  25.3941822   1.4080729  19.5265460  26.2800455   1.4599642  19.1676772
  25.4641914   0.7826364  20.2477670  85.0157070  37.8254819  27.2255039
  84.6732140  38.2391214  28.0178595  85.2230072  38.5569334  26.6439223
  33.2913709  46.5922642  31.4517450  32.5893784  47.2050619  31.2328386
  34.0935564  47.1082020  31.3708806  49.5335722  32.5310373  17.4844396
  48.7703943  32.5249696  16.9067216  49.5359755  31.6627073  17.8872168
  46.7324972  13.6159134   5.8774912  46.2840986  14.4477797   5.7252705
  47.5262022  13.8556659   6.3557994  82.2920227  26.2046480  18.4017813
  82.8740025  26.0297704  17.6622283  81.8632030  27.0308995  18.1789458
  33.2087684  74.4280052   3.4086737  33.5003924  75.3387642   3.3673364
  33.2410216  74.2082119   4.3397391  39.2118025  33.8244987  10.7721150
  39.7976899  34.4537497  10.3513861  38.6330080  33.5291314  10.0692725
  42.1874619  23.9584899  20.2692008  42.0485497  24.8090696  20.6856704
  43.0134058  24.0558743  19.7953165  27.3567867  24.9921417  19.1032922
  26.5168905  25.1856709  19.5196486  27.8481126  24.5095730  19.7680914
  38.0269480  59.7019958  15.5297732  37.4573922  60.3751802  15.9021378
  37.4965191  58.9053154  15.5430567  29.6387196  26.1171865  11.3218653
  29.2021251  25.9449196  12.1560979  30.5626130  25.9343576  11.4928126
  34.6811461  23.2945538  20.8267021  34.7627974  24.2327213  20.9981823
  35.3275657  23.1189036  20.1429462  68.5360670  72.4170637  57.1108246
  68.3729124  73.3531284  57.2266006  69.4847536  72.3264265  57.2003126
  70.0363779  33.5234666  13.8185012  70.0946903  32.6479316  13.4360456
  70.7960367  33.5828471  14.3978310   9.3667275  65.7665539  70.4809713
   8.8390017  65.2160788  71.0595179  10.1920831  65.2912903  70.3853512
  23.4808755  45.1992035   1.6793153  24.1298509  45.4685688   1.0293109
  22.7600241  44.8387241   1.1629261  31.5194917  75.8717823  33.2359862
  30.8688116  75.5986643  33.8827109  31.5153861  75.1727152  32.5821376
  65.1120043  22.5563860   3.8293537  64.6737051  22.1695232   3.0714226
  64.4937181  22.4370980   4.5502713  62.4596500   0.8649091   3.0387053
  62.0524406   1.5503903   2.5090584  62.3661566   1.1717457   3.9405596
  63.0272818  26.0976958  45.7934093  63.3694410  26.1425471  44.9005795
  63.5163498  26.7675495  46.2712622  65.2768087  24.0378976  25.5986333
  65.9143543  24.0894389  24.8865128  65.7544088  23.6253262  26.3182974
  83.0233574  30.1394415   6.4081323  82.8065681  30.8637094   5.8210456
  83.7509155  30.4685211   6.9359583  36.5799952   8.0978501  17.1931028
  36.8733287   7.7189398  18.0217242  36.8731189   9.0083551  17.2290123
  66.9036627  47.2847462  19.1663015  66.3058472  47.9988956  18.9453042
  66.6879463  46.5904617  18.5436738  78.0137444  15.2088690  63.6037111
  78.4861565  15.0408030  64.4190693  78.6314821  15.7053924  63.0669641
  59.3616056  48.3334208  51.5428114  59.8709154  48.8682985  52.1516943
  59.5511961  48.7049866  50.6812859  75.6503677  73.2939100  66.3474321
  75.0799465  73.4691286  65.5990028  75.1407909  73.5741186  67.1077299
   2.8999081  69.5615005  51.9253588   2.7756000  70.3952217  51.4718342
   2.0247641  69.3218565  52.2301960  45.5186939   8.9119494  26.9924045
  45.9804249   8.0737412  26.9713902  45.5327940   9.2159826  26.0848832
  25.4410625   8.6929017  20.3561449  25.1292634   9.1532969  21.1352777
  26.3939738   8.7746978  20.3948998  54.1112757  70.8271408  30.2213335
  53.4848356  70.5011320  29.5751739  54.6093750  70.0530386  30.4838061
  53.8127613  60.7756138  68.5904646  54.6207619  60.9087753  68.0948496
  53.1238699  60.7611418  67.9260492  38.2319713  -0.1286444   2.1334839
  38.7390518   0.4019462   1.5190120  37.6252413   0.4900321   2.5401175
  61.0312319  44.5037651  17.2557139  60.1060104  44.3594074  17.0573127
  61.2741947  45.2629757  16.7258084  65.0503731  14.9862599  13.9079559
  64.6056318  14.1631615  13.7056005  65.1154137  15.4366767  13.0658603
  70.4621267  29.3844533  65.6703138  70.7606554  28.5439944  65.3228331
  69.6817255  29.1689205  66.1809492  65.6705284  28.5362792  20.4084682
  65.1210737  27.7535534  20.3675771  66.0612822  28.6004066  19.5370173
  58.0229950  80.3279972   9.3179601  58.5832644  80.9497452   8.8534641
  57.3739719  80.8748341   9.7606450  64.2359257   5.6732070  11.1979127
  64.9239349   6.1076736  11.7020130  64.5554829   4.7789663  11.0777020
  66.3520479  46.4725113   3.6486563  65.8446264  46.4771986   4.4602799
  67.2319651  46.7392731   3.9147621   7.7095830  59.1125488   7.0926279
   8.5777527  59.5006990   7.2014862   7.3343682  59.1141701   7.9732203
   5.0913405   1.4487074  32.7733135   5.5028063   1.0740452  31.9944954
   4.2739084   0.9603040  32.8707719   3.4799349  62.2266150  64.7185087
   3.0981907  63.0834007  64.5276785   3.9773312  62.0052958  63.9312029
  48.9585686   7.0623988  25.4039931  49.7915745   7.3445725  25.0262260
  48.2959843   7.3963261  24.7992516  59.7539186   6.1086833  23.2284522
  60.5667162   5.7824111  22.8422737  59.9699020   6.2603831  24.1485429
  22.5099349  34.5873952  48.1192636  23.0444908  35.0914192  48.7328100
  22.8900599  33.7090683  48.1359529   8.8492572  50.1785994  29.8191833
   8.6387563  50.2452087  28.8877940   8.0028796  50.2446938  30.2613473
  73.7169409  62.4880600   4.1148612  74.5056629  61.9629383   3.9792264
  73.0040359  61.9375563   3.7909126  77.9954863  29.1496229  16.3929367
  77.9503918  28.2133842  16.1988950  77.5375700  29.2434287  17.2282481
  82.8265095  60.3444910  10.7626462  82.0512962  59.7830439  10.7697952
  82.7683353  60.8226204   9.9354595  57.1265078  49.5801830  15.8200300
  57.5699139  50.2879524  16.2876678  57.6370335  49.4660711  15.0184202
  75.9917545  54.5609903   5.2190280  75.8743668  53.6995554   4.8185480
  76.8240976  54.8770905   4.8675811  69.3528748  27.6894927  19.8843503
  69.5725346  28.5671568  19.5718026  69.6533489  27.6766801  20.7930756
  30.8440018  13.5374904  63.9825535  30.9935021  13.1165338  64.8291206
  30.3206897  14.3118715  64.1892195  59.9443340  47.4861383  14.1975737
  59.2645741  48.0579090  13.8408768  59.5761633  46.6051817  14.1297865
  29.5130420  10.3653991  31.7703938  29.7945547  11.0975361  32.3189878
  30.2316737  10.2403736  31.1505795  68.7873936  50.3855419  22.2778678
  69.7196054  50.2222967  22.4212861  68.7604809  50.9721851  21.5219855
  77.4037695  65.0329542  25.5702448  76.5445709  64.9904633  25.1504755
  77.9688692  64.4967699  25.0140071  64.1000843  61.4980459  14.8288226
  63.9263344  60.6682062  14.3845177  65.0157690  61.6905880  14.6271253
  52.4865866  14.5090926  10.6658733  53.1652689  14.5197034   9.9909633
  52.9491329  14.7302759  11.4741790   1.2085396  51.6747379  22.4898505
   0.6813055  50.8966589  22.3086166   0.8755344  52.3362780  21.8834639
  52.2235775  70.0726557  11.4745975  52.8434610  70.5083847  10.8896875
  52.5130272  69.1604710  11.4937782  64.2979145  55.1520252  31.4215708
  63.6700869  54.9050188  32.1005797  64.6148109  54.3184757  31.0737181
   0.8224272  46.8424940  11.8858957   0.8235405  47.7186632  12.2713232
   0.0336688  46.4280033  12.2355926  59.7752619  52.3168230  45.2040863
  58.9055586  52.2401762  44.8117018  60.3799582  52.1797657  44.4748497
  28.3669686  43.9809656  14.8275256  28.6265326  43.7567043  15.7211506
  28.8896346  43.4010887  14.2736363  83.9706993  55.9194708  19.1211414
  83.2821655  55.3007174  18.8776433  84.4633198  55.4712582  19.8086464
  45.2915001  26.2446094  29.5520568  45.8829737  26.5514827  28.8648748
  45.2748156  25.2933884  29.4465375  37.7801108  29.2983413  71.7300463
  37.6705790  29.4779730  70.7962561  38.0548167  30.1353931  72.1043634
  63.5252857  54.8721600  21.1068535  64.3667316  55.3147078  20.9957147
  63.5404491  54.1636801  20.4633784  51.1741257  75.1774645  24.8424625
  51.7183685  74.8136234  24.1441417  50.3004551  75.2412415  24.4566345
  62.0923424  67.6998949  23.8654304  62.4770021  68.5134745  23.5393143
  61.1651230  67.9047871  23.9859080  68.5675240  49.4229650  26.0694003
  69.4263506  49.1400576  26.3834238  68.4025955  48.8783312  25.2997231
  70.1969099  45.3305197   6.3471937  70.3288603  46.1474466   5.8660966
  71.0268736  44.8623800   6.2564456  69.8695517  53.7888718  29.9031377
  70.4427958  53.2782602  30.4748869  69.3791628  53.1327724  29.4078851
  41.0558796  21.5711570  66.6343117  40.8665705  22.2325659  67.2998428
  40.9768534  20.7367325  67.0966101  76.1937761  15.7735527  20.4131770
  76.0547161  15.8133471  21.3593841  76.3866711  14.8525059  20.2379680
  68.9583158  41.4588499  42.1133900  68.9352465  41.4338732  43.0699873
  68.2825470  40.8379745  41.8412161  63.2338333  44.4269562  30.4366207
  62.5068331  44.0741730  30.9497023  62.8626585  44.5772696  29.5672154
  50.4040098  36.3168669   8.7764615  50.5227041  35.3734446   8.8864481
  49.9192381  36.4031911   7.9556239  61.8469858  31.5427995  10.6865788
  62.1749592  31.9021249   9.8622292  62.5743151  31.6479635  11.2999010
  83.8699722  10.2967906  13.3122849  84.3507862  10.2230871  12.4878979
  83.7339783   9.3915296  13.5920024  56.4205027  50.5823374  26.0382915
  55.8230400  49.8379564  26.1102080  55.9714556  51.2947130  26.4933848
  78.4446669  36.8717742   7.3435730  79.1574478  37.4446917   7.0608282
  77.9453087  37.4001575   7.9662162  72.3065042  59.7213936  40.1343775
  72.9942703  59.8855448  40.7795668  72.4430132  60.3902102  39.4633532
  77.3000145  50.8101368   2.8110236  77.5003624  51.2046528   3.6598170
  77.4522686  51.5123415   2.1786018  71.8747616  35.5108309  18.6637259
  72.5644922  34.8740697  18.8509166  71.9570398  35.6843209  17.7259815
  40.4919481  60.6362963  61.9970131  40.9548903  61.4072657  61.6691017
  40.8316565  60.5118704  62.8832150  58.2061052  49.5999241  13.0963981
  58.8691187  49.9254370  12.4875617  57.3758793  49.7288132  12.6377606
  44.3250942  49.9828005   7.4365348  44.6962118  49.9583673   6.5545446
  43.7748146  50.7659864   7.4432296  22.5601864  77.4495840  11.3463807
  22.0663667  76.6336727  11.2647760  23.1730795  77.4331474  10.6113124
   9.7510666  80.9662724  58.1655931   9.8544818  81.4072704  59.0088320
   9.7685814  81.6740513  57.5214100  77.3763323   9.0815961  34.8863482
  78.1538820   8.7996608  35.3681779  77.2169828   8.3787274  34.2564154
  28.2264972  14.9858463  67.9658461  28.1136870  15.5468237  68.7331867
  28.2645321  14.0980637  68.3216953  86.2465572  59.5228386   8.9547259
  86.8113899  58.7677574   9.1191757  86.8515301  60.2587938   8.8619053
  82.7016830  66.8847513  18.8684034  82.9963493  67.0346355  17.9701066
  81.7464447  66.9157076  18.8154411  43.4265566  28.8656926  19.3453956
  44.0536356  28.2155895  19.0285838  43.9688015  29.5513225  19.7354114
  83.5415554  79.8432684  64.6861362  84.2414093  79.9126816  64.0368128
  83.3026886  78.9163589  64.6826601  60.1374340  61.6465139   6.5072358
  60.8405542  61.5638494   5.8630168  59.8956394  60.7439661   6.7150271
  14.9750304   6.9607019  70.0864458  15.6879389   6.3554275  70.2904987
  15.2397394   7.7873111  70.4900312  80.4055882  74.9778891  51.3423061
  80.8123779  75.8015585  51.6112328  81.0781002  74.5369005  50.8231926
  79.6570587   1.9789194  20.4175305  80.4755974   1.8450274  20.8953333
  79.1390800   1.1962964  20.6057644  50.3370714  12.4103880  62.4471569
  51.1000586  11.8493640  62.3081160  50.2276087  12.4345756  63.3977652
  80.0043964  64.9715090  16.9699848  79.3772221  65.2614117  16.3075364
  79.8241234  65.5257511  17.7292907  73.0683327  50.9264231  13.2847095
  72.9789257  50.8406591  12.3355603  73.9988470  50.7769060  13.4521079
  54.2299223  66.4109230   8.0997348  54.5425177  65.6007862   7.6970041
  54.0649700  66.1762905   9.0129542  85.5837917  74.0621567  70.4842186
  85.7958508  74.8592472  70.9699249  86.3699055  73.8788795  69.9697638
  70.9266853  68.6766481  39.8021674  70.4431534  69.0151119  39.0485954
  71.3886547  69.4384480  40.1521349  59.3035173  56.3277006  23.2021880
  58.9835548  57.0324850  23.7653303  58.6621857  55.6253099  23.3097458
  28.6801338  71.8817568  45.0672388  28.9302230  71.2033939  45.6945419
  28.6620927  71.4319277  44.2225170  16.2797785  67.8197336   9.4435489
  17.0950460  67.3316050   9.5588744  16.1582375  68.2823086  10.2726972
  53.8246250  63.9531183  10.4193616  52.9943514  64.4117355  10.2907252
  53.6115694  63.0297136  10.2845967  71.1369896  53.4842873  17.8829050
  71.6868210  53.1017780  17.1990919  70.2567101  53.4903145  17.5069976
  77.3458529  57.4173164   8.9542747  77.2197533  56.5424252   9.3215567
  78.2936287  57.4977779   8.8471270  81.9255924  60.8955860  22.5464702
  81.6639996  59.9749327  22.5604415  81.5042591  61.2760162  23.3171725
  18.3030748  53.9026403  48.8277578  18.1725883  53.1598377  49.4172096
  18.2466841  53.5247421  47.9501247  59.2109966   5.1324898  46.9418383
  59.4579363   5.9782237  46.5676880  59.1112614   4.5555350  46.1846018
  28.7829304  17.4156415  63.0840683  29.1729784  16.9001651  63.7900257
  28.0873179  17.9168820  63.5096455  55.9233427  21.4362907   6.1890972
  56.6999578  21.6291976   6.7143470  55.9792948  20.4967284   6.0149544
  51.2078762  72.6150179  49.3671370  51.3622522  72.2537374  48.4942818
  51.9921160  72.3830271  49.8645163  13.5727131  67.4019051  68.8033915
  12.9454017  68.1248903  68.8030481  14.4294202  67.8281498  68.8278913
  25.0326157  40.2998590  18.2111108  25.1079464  41.0583401  18.7901270
  24.1855717  39.9128222  18.4323621  75.1992750  69.4031429   9.1220182
  75.6905937  68.6790133   8.7341022  74.8036242  69.0294647   9.9094552
  42.6444817  77.5657415  12.2222328  41.8646574  77.9537821  12.6191294
  42.4217129  77.4748421  11.2957644  10.7946038  45.4185963  42.1010780
   9.9688995  45.8385897  41.8601418  10.5625522  44.5019770  42.2500467
   2.9659832  27.9106212   5.8494556   3.1503347  27.6022530   6.7366731
   2.1208370  27.5182843   5.6302965  57.8472471  79.2471838  58.5791302
  58.5413408  78.5880470  58.5771656  58.2602072  80.0309467  58.2166243
  58.7198973  44.4664478  64.4522905  58.9358139  45.3327608  64.1071558
  58.9385319  44.5180130  65.3827572  64.0079117  57.8890800  64.6659136
  63.4945822  58.4871006  65.2091360  63.5107470  57.8192520  63.8509369
  79.1847277  51.4513969  31.1202955  79.9033356  50.8964586  30.8171940
  79.5322371  52.3418808  31.0702062   2.5400597  15.6610096   6.0128349
   2.1871395  14.7952819   5.8074212   3.3580628  15.7097423   5.5181354
  63.0446720   5.1457936  68.7712193  63.3125162   5.9877145  69.1395378
  62.9264116   5.3196347  67.8373957   9.2686772   5.9514731  16.5994525
   8.8252771   6.1355275  15.7713509   8.7445253   5.2597558  17.0032144
  51.4186716  17.1998835   7.2692901  51.8556976  16.3512707   7.3406798
  51.8982220  17.7677464   7.8724450   2.3736461  30.1161790  30.5648494
   3.2466206  30.4327536  30.7970715   1.8157069  30.8921957  30.6171155
  16.8173575  82.2352791  69.0365791  16.0423791  81.9188786  68.5723257
  17.4479806  82.4317646  68.3438015  87.0127392  48.5813713  40.7099438
  86.5097809  49.0086460  40.0166225  87.2696877  49.2949152  41.2939548
  40.7775831  59.1916847  64.3143940  40.7036209  58.4955072  64.9671555
  41.4471483  59.7788715  64.6652937  69.8691082  73.1906796  28.6140680
  69.6242142  72.4840355  28.0166459  70.2854729  72.7464008  29.3526411
  41.3890696  58.5433674   0.0850025  41.8452024  57.9437923   0.6754942
  42.0422697  58.7711191  -0.5765755  36.2557435  15.1201248  70.1776218
  36.7464924  15.9409559  70.2180147  36.7468667  14.5775557  69.5606518
  75.9707298  65.8813495  71.8059607  76.4702835  65.0823635  71.9741995
  76.4416828  66.3125962  71.0928945  76.8363571  51.7022705  12.8716135
  76.4344883  51.8706131  12.0193267  76.9077444  52.5661707  13.2775855
  26.7026877  55.0842953  18.4190738  26.4644933  55.1154375  17.4925077
  26.9391489  55.9860992  18.6360276  68.3638525  39.9503803  22.6270628
  68.6042023  39.5459151  21.7934752  68.9589310  39.5563030  23.2648826
  81.0398197  67.0716715  31.5841532  80.4575539  67.3666668  32.2842836
  80.4855633  66.5270185  31.0252404  69.6174192  74.6984386  23.8787246
  70.4336834  74.2249393  24.0391803  69.5604610  74.7613430  22.9252934
  34.6057343  48.0315638  25.7956386  35.1593542  48.1466103  25.0233030
  34.6812916  47.1012926  26.0080624  57.6562119   6.9319135  58.9104652
  57.4184370   6.4280051  59.6887779  58.4965563   7.3329699  59.1322899
  82.0803070  36.0083365   6.4158773  82.0459843  35.3080368   7.0675164
  82.9895878  36.0128880   6.1168385  27.2037292  78.9049292  15.3726041
  26.6440463  78.8953590  16.1490679  26.7729616  79.5154858  14.7743642
   6.4447761  63.6662626   6.7288053   5.9536809  64.4868088   6.7707312
   6.6129142  63.5351706   5.7956511  69.0912390  54.0768385  16.0856295
  68.9281034  54.9395990  16.4667606  69.7153378  54.2413807  15.3787649
  67.3821354  47.5544453  11.1373246  67.6652908  47.3822165  10.2393305
  68.1587934  47.9099703  11.5693378  86.2896347   9.6636337  44.3754101
  86.4704132   9.3238133  43.4990072  86.8275070   9.1258007  44.9564934
  82.6897717  44.5191526  38.4893584  82.9929256  44.8091507  37.6289892
  81.9509411  45.0939655  38.6892462  26.3789678  77.9003334  67.9827785
  25.7128000  78.0424500  67.3102760  26.0248208  77.1959925  68.5256529
  13.3173895  82.2148514  65.8747005  13.6458552  83.0721760  65.6039000
  14.0708601  81.7873669  66.2818527  68.8211346  47.0050287  17.1576202
  68.4297705  46.6516542  17.9564905  69.2848730  47.7913046  17.4456251
  85.8673859  71.6064739  19.1316974  85.8777809  72.4544382  19.5756388
  86.5840626  71.1163521  19.5346701  14.1847575  44.9493265  67.7580357
  14.3779957  45.2222061  66.8611383  15.0429046  44.8716497  68.1749105
  74.5687628  63.9389849  38.4874749  75.1067114  63.9766645  37.6966357
  73.8541985  64.5536232  38.3205938  82.3442173  54.0118694  30.9678578
  82.9772949  54.4337893  30.3869700  82.6923656  54.1572666  31.8475652
  31.7993951  38.4699059  55.4863882  32.4088383  38.1021857  54.8463917
  32.0305300  39.3976784  55.5316448   3.4857789  23.3587766  34.8386383
   2.7446187  22.8928542  35.2257156   4.1657597  23.3282757  35.5116367
  83.4306049  51.6840839  19.6465623  84.2237568  51.7148924  19.1115916
  82.8597260  51.0639143  19.1930079  30.1638579  53.3612585  20.2787852
  30.1877952  54.0863276  19.6543372  31.0174727  53.3891058  20.7109833
  82.7792740  27.6524282  11.9261098  83.2182503  27.0313096  12.5072658
  82.1781445  27.1145320  11.4108002  60.0981855  81.8531799  11.5508807
  60.0053883  82.2535229  10.6863880  59.2424726  81.4619637  11.7267656
  62.0614100  24.2426872  34.3654466  61.8647575  24.4282579  33.4472299
  61.6183567  24.9387312  34.8506832  60.8004379  51.9059658   4.9742797
  60.2156115  52.4273157   4.4243693  60.2813053  51.1389923   5.2161330
  71.5320015  59.3985224  58.3767986  72.2872543  58.8113165  58.4087420
  71.7933655  60.0921679  57.7711821  36.1169553  37.6783895  18.1810963
  35.7229614  36.8999147  17.7874255  35.4900742  38.3797312  18.0039728
  24.2345023   6.7643571  41.3803005  23.9860725   6.3180947  42.1898460
  23.9153409   7.6597476  41.4927483  79.1464520  62.3502874  21.2654972
  78.4089899  62.0050430  20.7623172  79.8884678  62.3085690  20.6622505
  15.7218337  56.9722986  69.9979115  16.1989582  57.3972654  69.2851830
  15.7540727  57.6030016  70.7172203  57.6165867  40.9550428  41.1275673
  58.2518530  40.5223751  40.5570698  57.7537775  41.8897200  40.9733343
  72.5359249  47.1246147   8.1746280  72.2349072  46.3929510   7.6358396
  72.0727682  47.0167732   9.0053439  53.7387133   7.5496441  71.2674809
  53.2094193   8.0481577  71.8900299  53.1026793   7.0353931  70.7702541
  72.9893875  20.4038191  38.6810422  72.6689386  19.9361563  39.4522977
  72.6112509  21.2798023  38.7578392  79.7901630  56.7790508  14.3970692
  80.4581928  56.8689394  13.7174499  80.2841949  56.7523241  15.2164865
  34.5115042   5.6390905  62.6312923  34.1278982   4.8941606  63.0940628
  34.9515939   6.1447120  63.3145952   1.9867486  12.1788049  18.0314255
   2.0448413  11.9067383  17.1155453   1.0766932  12.4540246  18.1422639
   0.3257227  11.7863345  14.3212247  -0.4152050  11.7013931  14.9212611
   0.5611230  10.8847570  14.1021931  62.4225140  56.7946386   6.1252946
  62.4239206  55.8460999   5.9968412  63.2419395  56.9751740   6.5859222
  83.9608192  59.9499512  43.8962030  83.3624268  60.5675316  43.4757853
  84.4357681  60.4765797  44.5391083  42.7983332  14.2962563  47.8303814
  42.4609709  15.0967228  48.2324648  42.0256567  13.7439275  47.7114773
  19.2711937  48.1606340   6.3766390  19.2662942  48.6489725   5.5533910
  19.4210172  47.2520781   6.1152905  54.8336077  11.4876819  36.6359878
  54.2233324  10.9764421  36.1045504  54.9521828  12.3023045  36.1475587
  63.9251900  39.8069096  31.3174033  64.8404837  39.8840237  31.5867066
  63.4617519  40.4465675  31.8580413  75.7158947  76.9322300  10.2625787
  76.3827133  77.3213673  10.8284056  75.5469179  76.0724306  10.6478441
   8.7786591   9.2040372   0.2229277   9.0436304  10.0061953   0.6730003
   9.2195451   9.2486417  -0.6255189  84.1886044  41.2660599  16.9870043
  85.1043510  41.0389853  17.1485293  84.1125107  42.1750927  17.2770119
  71.6908216  42.1185112  20.1201892  72.4282360  41.6424274  20.5020237
  71.6206312  41.7765284  19.2289257   5.7627559  41.5891552  18.4725165
   5.0911570  41.8990660  17.8649449   6.3886333  42.3113775  18.5264134
  11.3252938  68.7222576  18.9460874  12.2130370  68.4137774  19.1276979
  11.0928190  69.2473030  19.7119284   5.3999680   2.3593594   5.4827058
   5.3667593   1.6910177   4.7982728   4.9971321   1.9424158   6.2443572
  -0.1684004  28.1470776   1.7644204  -0.2509839  28.6260009   0.9397735
   0.5090460  27.4925447   1.5944606  10.8065152  74.2296028  37.3792458
  11.3420117  74.7504520  37.9777384  10.7160878  74.7779369  36.5998960
   8.5768205  65.0346613  30.4228282   7.7102035  64.6841955  30.6286931
   9.0083492  65.1210642  31.2728572  52.5522375  75.5866194  10.8015776
  52.0765448  74.8880243  11.2509227  53.1204605  75.9609127  11.4748240
  84.6369648  58.2440758  31.0679126  83.9954185  58.0420256  31.7489696
  85.1403618  57.4363613  30.9658599  68.3381510  53.1548071  54.8500681
  68.0803823  52.7832747  55.6937218  68.4489107  52.3955488  54.2777967
   8.0472195  15.8012450  34.3364334   7.4739414  15.6862354  35.0942969
   8.1661546  14.9170136  33.9897060  43.6376953  45.7835627  15.1950347
  42.9119396  46.1476517  15.7019329  43.4665918  46.0643578  14.2960870
  34.8127532  19.6463382  58.5863638  33.9908075  19.1739368  58.7185574
  34.5921946  20.3421164  57.9671049   1.7039159  69.5711470  10.9301567
   0.7940947  69.2842102  10.8519077   1.9278276  69.4101954  11.8467760
   7.4519169  67.6591158  63.8075352   7.4364269  66.7688799  63.4561539
   6.7882186  68.1278944  63.3015871  64.5771122  17.2550225   8.6019707
  63.8245201  16.7620218   8.9287597  65.2524137  16.5925038   8.4561372
  12.4226987  69.3673134   0.3794962  12.5563669  70.1447153  -0.1627333
  11.7009926  69.6030760   0.9624095  67.5765514  59.5425224   7.1775115
  66.7981958  59.8184299   7.6615226  68.3072567  59.7532082   7.7588165
  60.3875923  79.7978067   2.3521245  59.9220228  79.1187859   1.8638536
  60.3920650  80.5541897   1.7655279  71.4933348  71.8321848  39.5009613
  71.2828207  72.4781275  40.1752567  70.9207821  72.0564318  38.7673855
  48.7654495  55.6012440  19.7202814  48.8004541  55.7539606  20.6645727
  48.5156345  56.4477730  19.3498540  20.6430054   4.0095565  60.0145912
  21.3043690   3.6723083  59.4103622  20.7233667   3.4556815  60.7911205
  11.1973286   0.5433736  24.5622492  11.0081875   1.4089888  24.2000794
  12.1036923   0.3701241  24.3078446  37.9996443  53.8808060  71.0426664
  37.9997826  52.9785490  71.3622952  38.7693548  53.9343405  70.4761744
  51.8488550  57.0448637  34.6304893  52.2154474  56.7719555  33.7894416
  51.1003447  57.5945282  34.3984652  55.3418922  78.5387325  17.2529256
  54.5764256  78.8778210  17.7169478  55.5634165  77.7302885  17.7150702
  84.8451614  44.3044043  30.0766420  83.9610481  43.9441299  30.1457572
  85.0139236  44.6914244  30.9356952   8.1288981  40.2690601  15.2095127
   7.7413911  39.4267845  14.9715233   8.6762333  40.5013895  14.4593930
  50.8895350  74.5397472  30.7393217  50.9524393  74.5709085  31.6939449
  51.2273121  75.3870916  30.4492474  35.6319380  74.3122053  37.7873349
  36.4746666  74.6734333  37.5124621  34.9909711  74.9725962  37.5241232
  53.1820488  63.0810547  30.2552748  54.0304232  62.6378202  30.2496076
  52.5407076  62.3711157  30.2251410  83.7109280  49.7590160  41.2605381
  84.5796490  50.0754070  41.0126543  83.1198406  50.1563072  40.6210041
  14.6412492  52.1346188  49.2890787  14.1039324  51.3990164  48.9951277
  14.0098655  52.8197241  49.5086622  68.6639404  59.0830278  12.2028339
  69.0069818  58.1894350  12.1958590  69.4414282  59.6375418  12.2681236
   4.8275742  57.8241873  24.9431276   5.1571411  58.7113190  24.7995639
   3.8761973  57.9244566  24.9756765   2.4878052  81.2735176  19.1774869
   2.0025739  80.5015087  19.4686627   2.6023731  81.7974949  19.9703014
  35.8665466  64.6370888  24.4634843  36.4693785  63.9327765  24.7017384
  35.3270841  64.7648287  25.2437997  35.2498198  53.8391447  29.8515534
  34.7509646  53.2657862  30.4334784  36.1418128  53.4931803  29.8813701
  62.9374743  52.4049044  27.1451092  62.8148890  51.5056944  27.4494576
  62.2503948  52.5321102  26.4909172  25.9423232  10.0865793  42.4716043
  26.7481899  10.5883706  42.3490572  25.2918053  10.5443871  41.9391870
  12.7195930  15.3733754  16.5082526  12.1830881  15.3908765  15.7157326
  13.6213171  15.3864467  16.1873901  77.0859957  34.6844387  55.2148867
  77.7783966  34.7080970  55.8753824  76.8230534  35.5988955  55.1106739
  71.4066076  81.6574001  11.3145995  71.2708330  80.7284832  11.5014338
  70.6997204  82.1016884  11.7827404  29.7880793  28.0130529  67.6008320
  30.0637841  28.9193797  67.4637651  28.9374876  28.0843568  68.0340099
  63.9621067  63.1217241  21.3329244  63.8710260  62.1834373  21.1669302
  63.0912304  63.4806967  21.1628032  56.8769455  57.8276730  52.9934740
  56.9873333  57.3047209  53.7875557  57.6539421  57.6338673  52.4691153
  75.6154871   3.5889801  37.4144721  76.3132095   2.9337174  37.4076557
  74.9624491   3.2498744  36.8022776  46.0064793  70.8486319  45.1343727
  46.7936659  71.2796879  45.4671764  45.9295273  70.0519609  45.6593752
   7.5601518  66.9848633  12.8699064   8.1788212  67.6950598  13.0404985
   8.0734062  66.1859608  12.9905534  64.8906469  58.6786461  44.6857786
  65.7017040  58.1747484  44.7529030  64.4163322  58.4776497  45.4925346
  59.9625731  58.9547110  41.1862850  59.6112442  58.3813095  40.5050993
  60.1830578  59.7650623  40.7270002  71.0809088  64.6227598  11.7244506
  71.9724131  64.2742682  11.7264366  70.8010340  64.5698643  12.6382911
  66.6855383  57.0025206  43.6489105  67.5154734  57.3672867  43.9561319
  66.9395494  56.3062382  43.0431843  45.5779696  66.0510206  47.2151995
  45.0715780  65.2888012  46.9344425  44.9301815  66.6391945  47.6033449
  58.1368589   4.6949384   2.6362589  58.5782671   4.8620737   3.4689990
  57.8254318   5.5547458   2.3534603  54.2478371  71.0491323   9.5596027
  54.1900492  70.3970528   8.8612568  54.9696112  71.6196537   9.2954445
  14.2905605  46.0612679  35.5823874  14.0149689  45.3752613  36.1904001
  14.8522830  45.6107998  34.9516869  59.2908287  34.2215323  12.4444723
  58.5219193  34.7886825  12.3865998  58.9323044  33.3346438  12.4779248
  75.8624268  57.7234173  40.2839375  76.7793083  57.5821590  40.5197573
  75.3682089  57.2249889  40.9347439  77.0239115  30.0039458  60.6314802
  77.2502708  30.8367538  61.0455179  76.1031580  29.8678422  60.8549023
  49.9159002  61.7159081  25.4509616  49.3902922  62.3883390  25.0176001
  49.3851471  61.4422083  26.1990380  49.4686985  76.2545681  12.5005138
  49.9870777  76.5760279  11.7628264  50.0995874  76.1623812  13.2144535
  78.4437561  43.2478380  32.0957565  78.6681175  44.1080952  32.4505115
  78.8508701  43.2323503  31.2295866  64.9170923  64.7166538  15.9065962
  64.5947361  63.9176130  15.4896402  64.9596024  65.3570127  15.1964116
  60.3491116  78.7464905  13.6547601  60.9834385  78.3993340  13.0275917
  60.6741381  78.4592581  14.5080400  58.5726357  63.7153149  12.8929543
  59.5063066  63.7085581  13.1037605  58.1517410  64.0597868  13.6806226
   2.0945840  32.9575014  27.9675269   1.6088548  32.7103233  28.7544203
   1.7974818  32.3403144  27.2989154  19.3070292  56.0218954  50.2126741
  18.9959896  55.2574730  49.7277546  19.6536100  56.6077089  49.5396709
  79.7459936  72.0985413  52.1080780  79.7964048  72.9117489  51.6057014
  80.6588364  71.8544245  52.2608757  45.0384092  71.5755844  28.8019848
  45.0685358  71.7038488  27.8538966  45.9527206  71.4497566  29.0558290
  16.5091264  46.0471106   8.3227205  15.9340107  45.9008694   7.5716621
  16.7413795  46.9741869   8.2696146  60.6331301  81.4798737  21.4085889
  59.8126268  80.9930420  21.3311243  61.3077450  80.8567524  21.1386800
  62.9871130  52.8995943  19.3495512  62.1466160  53.0330658  18.9113939
  63.1819057  51.9719124  19.2165434  72.7687550  62.8624058  23.6284447
  72.3814106  63.4695959  24.2589355  72.0257235  62.3638439  23.2884812
  25.4640603  78.9866257  11.8051219  25.7222128  78.9216566  10.8856821
  25.1744866  78.1038523  12.0355451   0.0599200  40.7274914  43.7527466
   0.3206153  39.8064780  43.7511492   0.8529831  41.2004566  44.0049171
  19.0962315  71.7554760  62.4294281  18.7964141  71.2839937  61.6522264
  19.3483365  72.6193047  62.1031237  61.2178135  79.3605709  18.8532913
  60.5261469  79.2606688  18.1991923  61.9113207  78.7692022  18.5607743
  79.2225885  64.3516016  30.4614258  78.5253477  63.8277006  30.8559060
  78.7664557  65.0834227  30.0459647  73.7135458  68.0666304   4.9777433
  72.8056908  68.0732203   5.2810335  74.0913153  67.2793102   5.3697360
  70.5570793  77.5939512   3.8173720  70.6055021  78.4326172   4.2762026
  69.9770594  77.7605677   3.0743748  76.4357662  63.3947802  40.6241465
  76.7625618  62.5001144  40.5292225  75.8130836  63.4999037  39.9048042
  40.1816082  11.6351032  34.8595333  40.4195499  11.8442464  35.7627916
  40.1831055  12.4800122  34.4096923  53.6904716   7.8275555  35.4415488
  53.7794781   8.1278151  36.3460660  53.0037975   8.3823293  35.0714970
  82.7876282  33.6681819  25.3778768  82.6605415  32.8385830  25.8381510
  83.4050274  34.1535640  25.9250975  73.7119579  74.3179893  27.0346117
  73.1809330  73.5960293  26.6984272  74.3421602  73.8990593  27.6207638
  72.7644300  59.6183348  36.3998604  73.0862427  60.1891661  37.0975852
  72.6912069  60.1911068  35.6364441  84.0874481  47.2526646  23.4022737
  84.1597652  47.3112202  22.4496078  84.2251873  48.1490469  23.7084770
  38.2577300  66.9042349  23.9227843  37.3821163  67.2904253  23.9426780
  38.3729577  66.5269184  24.7949004  55.9674406  79.0783024  71.1418390
  56.0507965  79.1755867  72.0904303  55.5634117  79.8961449  70.8517838
  71.7106771  34.5317984  49.7699928  71.6672230  34.2393947  48.8595819
  70.9451437  35.0963664  49.8770237  85.5769253  60.6847620  29.9066782
  86.4808559  60.9457397  30.0828338  85.4030704  59.9841595  30.5353022
  78.9218283   1.2921943  61.6693258  79.3889380   1.2553829  60.8346462
  78.4898043   0.4409459  61.7397642  71.8511343  41.5526819  44.4429064
  71.7363644  41.8178368  45.3554583  70.9649134  41.3616896  44.1357136
  79.8175716  57.8936672   8.2374758  80.2321625  57.7089405   7.3947287
  80.2999592  57.3552084   8.8648528  34.7515893  25.3431964  69.2086554
  34.8223472  26.0219455  69.8798656  34.0615320  24.7616887  69.5278740
  62.9581404  63.7617970  28.4786367  63.8769913  63.8953066  28.7112761
  62.7298594  64.5293856  27.9542971  85.1533699  21.8542361  36.6656494
  84.2002583  21.7713690  36.6351056  85.4702759  20.9531283  36.7273521
  80.0745296  25.4974341  28.5551786  80.1791573  24.5480776  28.4919000
  79.4366264  25.7139444  27.8751469  24.7040129   4.8476043  68.0353308
  25.3210974   4.4615012  67.4137497  25.2562261   5.2019441  68.7322760
  74.3779469  43.1645393   4.1429129  74.2659807  44.0862560   4.3755892
  75.1717710  42.8955364   4.6052015  25.1120138  10.6232750  22.5346565
  25.6587982  10.3489351  23.2708597  25.2873516  11.5597045  22.4419737
  87.2683048  63.4075785  38.1893039  87.3191166  62.6995707  38.8314676
  86.3676834  63.3742523  37.8668094  85.7184696  34.7060609  41.7026663
  85.7433414  33.9273548  41.1465836  84.9270535  35.1701427  41.4296770
  63.0459690  61.7935848  23.9834332  63.0519152  62.6650333  23.5874867
  63.6922359  61.2977028  23.4807682  56.5238380  15.6598711   7.2384316
  56.0303259  15.6102788   6.4197630  56.9931507  16.4924169   7.1851259
  66.7006922  68.7721395  60.0259686  66.6008520  68.9449644  59.0898085
  67.4979019  69.2411232  60.2724218  64.4414616  70.4545498  45.8120060
  64.4929552  69.6586609  46.3412905  64.3519974  70.1388311  44.9128103
  66.4318609  79.7257566  34.4268703  66.4553785  78.7808037  34.2760420
  66.0786295  80.0891876  33.6148524  74.6111774  65.5873013  35.6112051
  74.0804338  65.0379705  35.0343323  74.2632580  66.4704418  35.4877448
  28.3972216  72.3997307   8.9926577  27.5884843  72.4665880   9.5003062
  28.8498235  73.2277775   9.1530341  78.9925480  45.8546543   4.1596761
  78.6817932  44.9875498   4.4200528  78.1971979  46.3350391   3.9297262
  42.8079796  21.9173002  22.1814442  42.3961592  22.4863291  21.5311837
  42.1819305  21.2040806  22.3063803  34.5695829  56.2384081  32.9683471
  34.8644352  56.1068630  33.8694501  35.1672435  56.8970728  32.6145148
  67.9733944  52.1818018  41.8260098  67.7460861  52.2294474  40.8974123
  67.8849077  51.2546730  42.0469952  67.8535986  82.3383904   1.5224467
  67.8102827  81.4187527   1.2604569  67.8325033  82.8236485   0.6976417
  71.1147499  70.9456205  35.5616522  70.3853559  70.4387093  35.9183884
  71.8459558  70.7604837  36.1509705  65.5942345  61.7134762   1.2193753
  65.9722900  62.5476217   0.9409848  64.8580313  61.5735388   0.6238424
  13.8799107   7.2178698  39.5317006  13.8548529   8.1511134  39.3203688
  14.7934163   7.0489758  39.7623849  58.1855583  64.4063044  56.0374022
  57.7894735  64.0543604  55.2402306  58.3042192  65.3383541  55.8545494
  15.4946184  61.8611479  12.6401150  16.2323630  61.9510841  13.2433367
  15.4907799  62.6790142  12.1428084  70.4268742  53.8714075  65.4795218
  70.4215002  53.0023575  65.8807135  70.1168966  54.4563103  66.1709166
  36.1984706  49.1959810  69.3672037  36.7873812  49.4791079  70.0666714
  36.5982890  49.5341349  68.5659409  75.9408855  60.4207945  36.3686228
  76.3516092  59.8647833  35.7065129  76.1875534  61.3115788  36.1198521
  74.8368502  79.5240021  39.5803905  74.6507883  78.6037731  39.3938589
  74.7246122  79.6038198  40.5276299  74.2422915  67.1093464  21.1972356
  74.6546555  67.3911762  22.0137906  74.1234732  66.1653757  21.3022828
   1.4673230  32.9570675   6.8060380   0.5556130  32.6656079   6.7978007
   1.4218490  33.8916159   6.6040862  25.9738803  53.2169676  34.8766899
  25.0575137  53.3378363  35.1254725  26.4670634  53.4269857  35.6697202
  18.4632480  16.3268757  24.4293666  18.7052286  16.1385965  23.5225987
  19.2657948  16.1739361  24.9281240  35.3988147   5.1515222  66.4333820
  35.6473804   4.9045315  67.3241329  34.7904801   4.4665903  66.1558390
  83.6003113  69.5862150  67.3891973  84.3801785  69.7680235  66.8648052
  82.9507542  69.2825365  66.7550993  22.7564263  56.3280821  38.5041428
  22.3758006  55.6521177  37.9434037  22.2695112  57.1226883  38.2856274
  79.5932674  52.8953075  28.2132316  80.0428867  53.5863256  28.6996198
  78.6627054  53.0864143  28.3305788  70.2541113  72.1235323  31.0733581
  69.4402599  72.2378492  31.5640807  70.9230566  71.9942904  31.7456985
  83.1018639  35.4200315  20.0359297  82.8834248  34.9540329  19.2288589
  82.6818562  36.2748122  19.9401224   6.8072301   1.9673704  11.4373791
   6.9197839   2.3204100  12.3199463   6.0258842   1.4176802  11.4971423
  78.5537434  55.7646322   2.0952639  78.1117868  55.3392267   1.3604604
  78.5427237  56.6960096   1.8746862  54.1696024  11.5754366  29.9703884
  54.0294600  10.6717384  30.2530885  54.4664526  12.0297527  30.7588720
  60.0410080  72.0205259   3.6527014  60.3178120  71.1808634   3.2858482
  59.7454786  71.8092251   4.5382786  49.0237379  60.5843592  49.5773315
  49.9580526  60.5515718  49.7827864  48.7119102  61.3810444  50.0066185
  26.0827470  17.2209489  69.6490145  25.7365036  18.0594182  69.3435335
  25.3107524  16.6628408  69.7426462  65.5487442  66.5241623  13.9812672
  65.8119631  66.4326000  13.0655360  66.3156843  66.8986320  14.4146335
  69.6320772  45.2356720  54.2868185  70.1976013  44.5339251  53.9643860
  68.7905025  45.0813437  53.8576746  26.2836790   0.3106336  62.9115438
  26.2915087  -0.1139390  62.0536900  26.8563819   1.0705692  62.8079081
  80.3821182  68.7269640  23.1899977  80.5246067  68.5280132  24.1153884
  80.6877327  67.9466629  22.7274370  62.9572439  42.3884869  13.0878198
  63.0563450  43.1172323  13.7004685  63.4782648  41.6820765  13.4696031
  86.4810658  77.7895308  20.1372337  85.6147194  78.1163883  20.3798342
  86.3918114  76.8367100  20.1572537  76.6009426  62.9349899  69.7913742
  77.3912477  62.6264858  69.3481159  76.6677237  63.8894463  69.7633648
   6.2067205  56.4271736  55.8286333   5.9514642  56.3817644  56.7500544
   5.4024452  56.6680145  55.3688860  59.4971323  81.5740490  58.9594841
  59.7609425  81.8515587  58.0822039  60.3091717  81.2793827  59.3717909
  35.1035357  21.5339112  70.1424360  34.2906308  21.4277148  70.6365395
  34.8177600  21.7048120  69.2450190  53.7959623  62.6338911  44.8712826
  53.2227373  62.9228115  45.5813313  53.2488155  62.6814890  44.0873194
   2.4020326   8.5831773  39.5134377   1.6203763   8.6176050  38.9620233
   2.8940579   7.8307718  39.1847610  56.9180965  50.7705116  22.3718071
  56.9812632  50.6870174  21.4203501  56.6158772  51.6675520  22.5139832
  52.2258282  71.1238813  23.0924487  51.9440556  72.0385933  23.1042242
  51.9798279  70.7863760  23.9537311  85.8150959  65.5426693   4.0968671
  86.3366508  65.3548527   4.8772144  86.3626575  66.1329412   3.5791838
  47.0112467  73.6085415   3.5007083  47.2888041  73.0537033   2.7717716
  46.9052315  74.4774675   3.1134614  27.6714945  21.6809368  25.5923271
  28.1030607  21.1587596  26.2685800  26.7496872  21.4289165  25.6469822
  59.1080570  35.3642368  62.0187855  59.6500492  35.4784894  61.2381315
  58.5791588  36.1608815  62.0618534  62.6037598  38.9323592  44.0682220
  62.7650785  38.2033539  44.6671867  62.8466082  39.7115231  44.5683813
  48.1454119  82.5458355  71.1025429  47.9384408  83.4730120  70.9853315
  47.4491200  82.0840847  70.6354284  67.0286942  36.1884403  17.2576261
  67.8372812  36.5647483  17.6052105  66.3603783  36.4192748  17.9028392
  87.2603130  68.2849264   6.1127740  88.0350494  68.8407707   6.1967766
  87.2192669  68.0705261   5.1807970  17.2432768  50.8524084  42.9365158
  17.7080154  51.6891479  42.9257679  17.6188338  50.3793621  43.6790895
  28.6862922  37.8486109  30.9390044  28.1740117  37.1248102  30.5785704
  28.0711508  38.3216667  31.4994049   1.9103292  14.9179482  26.2937713
   2.7205402  14.5581782  25.9327221   1.7544900  15.7140863  25.7857251
  -0.1161404  44.9941778   4.8360091  -0.0629540  44.0454865   4.9517137
   0.2949982  45.1553154   3.9867559  53.0100584  55.9117842  39.6097660
  53.7030411  55.2556419  39.6838689  52.8198719  55.9544849  38.6726236
  51.5770102   7.1801198  27.8019190  50.7752562   6.7479062  28.0962157
  51.3116264   8.0827171  27.6255059  28.8906741  14.4449890  13.4410226
  29.7795343  14.6079552  13.7566233  28.9812255  13.7035787  12.8424060
  67.3200083  73.2180119  30.1870584  67.6488256  73.1540108  31.0837269
  67.7558279  73.9903021  29.8266840  76.0553026  64.8335409  59.7529268
  76.3774443  64.5584106  60.6112719  76.2061834  64.0767288  59.1866207
  52.9189157  67.3705244  32.6412177  52.7029276  66.4533663  32.8097415
  53.7644768  67.3391342  32.1936989   2.3550712  74.2282057  35.6663132
   2.0430182  74.5364904  34.8155403   1.9853084  73.3495808  35.7530332
  65.2480078  68.7491751  17.4073422  64.5823669  68.0704403  17.2956359
  65.3166437  69.1613674  16.5461707  14.1678262  57.4576283   6.2125874
  14.9284184  57.0871782   6.6603589  14.4982719  58.2551670   5.7990998
  15.0609851  26.7377567   6.1516005  15.4654217  26.4265013   5.3417957
  15.7928598  27.0655394   6.6742373   2.0912267  13.7090492  23.1179380
   2.3998354  13.1785607  22.3833799   1.7976375  14.5267415  22.7161717
  28.7937307   3.8352954  11.7097056  29.6179461   3.6647913  12.1655858
  28.1913280   3.1728965  12.0481884  84.9999714  66.6810560  40.8401537
  85.0892639  66.9064617  39.9141693  85.5539036  65.9086370  40.9531307
  60.2795362  58.1228256   7.3581958  60.4270411  58.3998632   8.2624769
  61.1093044  57.7279282   7.0902979  84.1411114  44.4127417  10.8436358
  84.0293884  45.3162527  11.1392999  84.9477386  44.4273186  10.3284979
  13.6083794  67.7515411   8.9225602  13.2764101  67.1333885   9.5736510
  14.5604241  67.6687860   8.9772892  32.0881629  51.9056940  71.5428257
  31.7544198  51.0232067  71.3813877  32.2143555  52.2774601  70.6698465
  45.5383587   6.5825635  17.4015522  44.7051144   6.8095005  16.9887173
  45.8246469   5.7918245  16.9443834  16.2191236  12.1640134  51.8957138
  15.9919012  11.8245661  52.7613831  16.2556553  13.1133330  52.0127153
  73.6403990  68.2761192  35.6604123  74.0541315  69.0341091  35.2474904
  73.6328220  68.4864712  36.5941811  41.4684296  78.8703728  45.5855322
  41.8406677  79.7328854  45.4018307  41.3613796  78.4672737  44.7239733
  55.9700918  68.2447720  18.9044142  56.3314772  68.1348610  19.7839332
  55.6654644  69.1519308  18.8822806  76.0884714  82.1703815  27.1587873
  76.8192291  81.8104458  26.6561198  75.9381104  81.5304089  27.8545332
  73.4675837  63.1368923   8.1315964  73.1247091  62.7505827   8.9374709
  73.6024857  62.3910666   7.5469828  60.4345989  64.0614462  10.2815616
  60.2417803  64.8052597  10.8523464  59.6834373  64.0121984   9.6903241
  18.3593631  66.8561077   1.0470291  19.2783332  66.8496323   1.3147640
  18.1555331  67.7816629   0.9127419  25.1615667  20.2189064  25.8766437
  24.7032547  19.4432533  25.5533123  24.4711256  20.7668972  26.2497830
   4.9079862   6.0294789  23.1543636   4.2644304   6.4376378  23.7335658
   5.3262591   6.7642093  22.7055311  67.4070311  72.3403263  17.0768952
  67.3844337  72.1867752  18.0214286  66.8803930  73.1294680  16.9498587
  81.6699409  12.1189058  59.8679686  81.7758083  11.1695194  59.9287128
  80.8515358  12.2987330  60.3306866  11.1371469  74.7548866  67.4703312
  11.7187715  75.3504419  66.9978285  10.3484869  74.7111797  66.9296503
  64.0054846  41.4755392  40.0371456  64.6679783  41.7463684  39.4015503
  64.4195509  41.6149044  40.8888245   4.0241522  10.0515842  40.9650469
   4.7703943   9.4716537  40.8132744   3.2718775   9.5683330  40.6233120
  37.8098512  53.1624746   0.8581521  37.2326827  52.8542471   1.5567958
  37.9317760  52.3989582   0.2938768  53.0019474  20.4263687   4.6106967
  52.9989767  19.5509195   4.9977532  53.6568165  20.3781056   3.9142403
  84.6046734  72.3022461  63.4038496  85.0413704  71.5397692  63.7835312
  83.8994789  71.9339848  62.8715706  20.7791352   8.8432127  47.2703171
  20.8910036   9.0947634  48.1870699  21.4481354   8.1748790  47.1219873
  40.5527067   2.2033139  23.5027170  40.4871941   2.7573532  22.7249122
  41.3508987   1.6928241  23.3666110  79.8329592  75.4068565  37.1654677
  79.1100407  75.9576654  36.8650699  79.7796249  75.4415131  38.1205511
  84.9636173  53.0219793   8.1923300  84.5856190  52.7092361   7.3704183
  84.9451828  53.9760113   8.1167293   5.1806575  11.0553038  19.4124103
   4.7077516  11.4083755  18.6587965   5.1129764  10.1055694  19.3141413
  11.1467528  54.8162174  13.2884169  10.6874108  55.4739046  13.8106096
  12.0498586  55.1308012  13.2475805  46.6346502  21.3078809  62.1555805
  46.2424850  21.4124513  63.0224705  47.5359678  21.0378218  62.3314333
  45.0938177  28.0900073  67.3762798  44.7476149  27.4258471  67.9723215
  44.3639708  28.2894540  66.7899561  80.6509590  45.5806065  10.8025014
  80.8902836  44.8642969  10.2144098  79.6974039  45.5285645  10.8676732
  51.5997362  73.0056715  28.4912562  51.7351913  73.1098366  29.4330812
  52.2293234  73.6053467  28.0909610  57.2570896  21.2588191  46.4172697
  56.4975691  21.8216205  46.5676594  57.8737020  21.4987731  47.1089649
  39.6266103  10.9794796  15.2280128  38.7856531  10.7811511  14.8160791
  39.4914079  11.8265688  15.6527388  83.4694767  32.0446658  30.1848149
  82.7897072  32.4661303  30.7106638  83.8924694  31.4321327  30.7865739
  18.4055650  63.8272810  46.0641909  17.9951334  63.9804935  46.9152498
  19.3443954  63.9060307  46.2333918  73.9340782  54.4410944  19.2272282
  73.0534649  54.7669506  19.4131541  74.1116905  54.7285128  18.3316410
  26.7032027  26.9986868   0.0400955  26.8489480  27.8243923  -0.4216400
  26.2310505  27.2485328   0.8343748  31.7506075  12.6223183  61.6551542
  31.2978339  13.0728567  60.9422445  31.2647104  12.8699231  62.4418116
  34.6100473   7.0101577  20.7176709  35.5459642   6.9781643  20.5195022
  34.5448709   7.5954765  21.4722466  79.8235750  34.5904708   5.8269489
  80.6570148  34.9938202   5.5842119  79.4165230  35.2208185   6.4212602
  75.0090790  66.5822124  42.5330973  75.2356100  67.4084234  42.1061420
  75.7696104  66.0200071  42.3856354   6.0141468  48.8324833  13.2682621
   6.0394919  49.0460777  14.2009819   5.0849646  48.7051010  13.0768847
  53.5023689  12.6881564  27.6909471  52.7513981  13.2558703  27.8640842
  53.8629341  12.4972093  28.5568357  31.0266328  24.8968363   4.4772008
  31.7330599  24.4854450   4.9751446  30.2380681  24.4256425   4.7462228
  14.2381787  63.9826584  21.8937445  13.9680862  63.1749058  22.3305774
  14.9122775  64.3502045  22.4653459  25.7058311  73.9683771  12.1366596
  24.9297237  73.7464809  12.6511025  25.6436181  73.4146833  11.3583350
  21.1994076  77.2010565   0.4427898  21.1983442  76.9298410  -0.4751826
  21.8029904  76.5940857   0.8711671  77.1579266  38.8659739  70.0877237
  77.9204941  38.9421630  69.5142031  76.4354992  39.2286325  69.5750809
  40.6662178   2.5949383  60.2326441  41.4173937   2.8440872  59.6942377
  40.9078693   2.8624049  61.1193800  83.4254551  62.0766115  38.5222769
  83.0261707  61.8199301  39.3534946  82.8316879  61.7325115  37.8549886
  55.7793236  20.8030272  15.8824110  54.9431372  20.7622004  16.3464761
  56.4198256  21.0157299  16.5611959  32.7668595  30.1175666   2.9635817
  33.7034273  30.0913978   2.7676558  32.5554156  29.2264962   3.2419980
  26.8320870  81.2261486  11.2480664  26.2796783  80.4869938  11.5024662
  27.7145362  80.8589649  11.1961961   3.8851047  57.7015066  54.6281195
   3.0372363  57.3613358  54.3423986   4.4537801  57.5990105  53.8650084
  66.4002943  82.4223995  68.3138323  66.2075853  83.3495617  68.4533596
  66.6517115  82.0972919  69.1783094  53.9051723  26.1875558   4.0896893
  53.3315802  25.5777621   4.5537770  54.7625446  25.7619905   4.0961793
   3.0523598  38.9115763  70.5391598   2.2530629  39.4244075  70.4193354
   3.5749215  39.4232750  71.1566782  10.8124423  61.8917990  68.9924526
  10.0936925  62.5005388  68.8219738  11.2844729  62.2789812  69.7296858
  53.9090872  19.0214753  17.0234942  54.1391420  18.1194007  17.2461271
  53.0033684  18.9692986  16.7182302  82.1724510  59.0145302  60.3411627
  81.2475204  58.9683676  60.5832386  82.4054146  59.9353361  60.4598093
  69.7036695  39.2118859  58.2630825  69.3412256  40.0828266  58.4253311
  69.3480587  38.6695170  58.9670753   8.4466934  54.1362906  69.5693684
   8.9971715  54.0558147  70.3482962   7.6695555  53.6148643  69.7703791
  85.6033707  11.1150348  11.0711968  85.9579468  11.1981773  10.1859891
  84.8058510  11.6442704  11.0604465  38.4862804   6.1622536   1.4005728
  39.0676761   6.8830502   1.1583694  38.2629108   6.3318807   2.3157582
   2.9939133   4.3899822   7.1244216   3.5898533   4.8376244   7.7250075
   3.2610479   3.4715879   7.1621430  68.2748938  12.1165764  -0.0053810
  68.2951021  11.1687744  -0.1376455  69.1673231  12.3406792   0.2584028
  54.5405388   9.2787969  19.3574250  55.3427458   8.7806892  19.5142186
  54.3126297   9.6414655  20.2134395  44.0627956  78.4385204  38.1461692
  44.6896553  78.7354422  37.4865365  44.1334152  79.0825796  38.8507509
  84.8587322  12.8171492  14.4486928  84.7113514  12.1561778  13.7722099
  85.2858257  12.3403764  15.1603878  72.5121164   8.3507961  22.6529431
  73.0660915   7.7899414  22.1100020  71.6404009   8.2740360  22.2650599
  25.7282162   5.3215760  53.3691263  26.5365267   5.0315338  53.7919044
  25.7690620   4.9446815  52.4901962  41.0993385  35.8224630   9.3632847
  41.6465282  36.3169003   8.7530816  40.6722593  36.4915776   9.8981887
   6.3234144  74.8873138   2.1272264   6.4333469  73.9796829   2.4106823
   5.9704697  75.3369427   2.8950149  79.8760843  40.0812101  57.8781939
  79.0996742  39.9580789  57.3320627  80.2087975  40.9438658  57.6304865
  23.1163526  37.4349213   7.0198029  22.2379732  37.7627683   6.8269432
  22.9727173  36.5535784   7.3645240  37.4648333  52.2867870  15.8210433
  36.7478585  51.6736031  15.9828603  37.5194287  52.3451138  14.8671830
  23.0129457  60.0597811  19.4199181  22.4912572  60.6674767  18.8957214
  22.4149704  59.7596407  20.1044440   4.1605568  41.4746809  57.3760557
   4.3763304  42.3666096  57.6483393   4.6636686  41.3411570  56.5727615
  46.6215897  11.5083182   0.7823522  46.9089651  11.4846838   1.6950889
  47.2648191  12.0646501   0.3430565   5.4780895  61.7439175  22.7472782
   5.5766386  61.0330343  22.1139002   4.5727098  61.6716862  23.0494404
   6.5116543  15.5633712  17.2460532   6.2589961  14.6403098  17.2272420
   7.0031279  15.6605947  18.0616713  34.0278816  58.3586311  16.7970300
  33.4918022  57.9515028  17.4775434  33.7827969  57.9006100  15.9930515
  40.0573349   8.2370484   1.1666765  40.9434795   8.4200197   0.8544265
  40.0633335   8.5170352   2.0819923  51.5076256  23.3574581  21.4349771
  51.1099529  22.7181268  22.0260310  52.4434471  23.3159208  21.6318059
  45.5288935   0.8069699  14.4788837  45.1306868   1.6452748  14.2445600
  46.2705946   1.0416929  15.0365770  17.6788962  41.1612368  35.9359169
  17.0696950  41.6161394  36.5174413  17.1336973  40.8518553  35.2125406
  82.2098160  41.8246078  64.3837261  82.8099346  41.1822987  64.7625780
  81.6479015  42.0866776  65.1129770  50.6183529   5.1856947   7.9300314
  50.5309439   4.3050385   8.2947719  51.1334801   5.0645477   7.1324116
  47.5506449  49.2421103  45.7345247  47.1502733  49.9153042  45.1843071
  48.3369541  49.6580791  46.0879707  22.8158832  11.0467708  71.2605047
  21.9142532  10.8143187  71.4824486  22.7423739  11.5354717  70.4407501
  12.1933031  53.3029556  38.9717817  11.8361330  53.8525867  39.6693254
  12.7330923  53.8975954  38.4509563  68.5630989  36.9773793  69.4523191
  68.0904436  37.7508450  69.1447830  67.8754997  36.3608742  69.7040319
  71.0857439  19.7879755   0.3593846  70.4660082  19.8780787   1.0832909
  71.2025928  18.8431132   0.2603230  31.2976122  81.6516399  15.5365646
  30.4218507  81.6118431  15.1522601  31.8237853  82.1164608  14.8859370
  56.1836338   1.3584056  14.4510698  56.2805939   1.5765564  13.5241175
  57.0135641   0.9443798  14.6877730  83.0440044  14.1311598  20.0373459
  82.1757126  14.1093421  20.4396152  83.3679390  15.0142872  20.2145147
   1.3100578  59.1334391  61.8107939   1.4729697  60.0763130  61.7847252
   1.7532420  58.8356829  62.6052475  63.2243872   7.3586738   6.5252042
  63.4785652   6.8866920   5.7321990  63.2713699   8.2825983   6.2794662
  30.1615024  65.8493710  55.0316858  29.4035983  65.9205055  55.6119871
  30.8529520  65.4850817  55.5843353  54.2583847  34.8706055   1.3956361
  54.0192032  35.7936430   1.3118157  54.1101170  34.6676826   2.3192550
  15.3666413  73.3455706  24.7321677  14.4191098  73.3952284  24.8584533
  15.6070340  74.2037773  24.3829870  26.6309619  76.6060305  10.0811684
  27.4118233  76.9933701  10.4767120  26.4226460  75.8599186  10.6434405
  63.5101080   4.4383121  18.1345439  62.8112459   4.2122102  18.7483037
  64.0384483   3.6427861  18.0695474   2.3132190  12.6129293  12.4796236
   2.5524542  11.7360127  12.1796000   1.7245115  12.4608314  13.2188940
  42.5722504  65.6044388   8.5933518  43.0516863  65.6384706   7.7655733
  43.1533718  65.1293707   9.1873550  48.0586052  25.8762288  21.8697309
  48.9122009  26.1622691  21.5444875  47.8175116  26.5348625  22.5211215
   9.6386510  68.8748121   7.2999394   9.1305882  68.0636883   7.2863150
   9.8661739  69.0303421   6.3832736  41.8728828  12.8841352  18.8043296
  42.7349663  12.5400591  19.0381229  41.2866116  12.5391102  19.4777369
  70.9943438   2.3467351  29.7890544  70.4049826   2.6808763  30.4652452
  70.7262516   2.8024665  28.9911389   7.6876056   4.0088895   9.8864263
   7.5040054   3.2443845  10.4323697   7.7232528   3.6632800   8.9945096
  48.7014437  82.5023174  29.7354674  48.6526728  83.1966305  30.3925657
  48.8784027  81.7078400  30.2391744  33.5593963  74.7037935  18.3663416
  33.3338428  74.3080378  17.5244772  34.5027685  74.5655060  18.4509254
  63.6854982  11.8728030   7.9876453  62.8157568  11.8806279   7.5879937
  63.5196304  11.7298162   8.9194584  83.0514050  44.7029781  63.9037657
  82.8819275  43.9598799  63.3246994  82.8767204  44.3664455  64.7826672
  74.5690441  30.9589934  12.7643442  74.3560028  30.6922340  13.6585963
  75.5198002  31.0697985  12.7675259  61.6019535  21.1325097  25.1732373
  62.5517702  21.2444854  25.2125001  61.4781094  20.2030683  24.9807978
   2.3870212  80.8393955  69.9068594   2.1853992  80.1173115  69.3117285
   1.5321314  81.1923790  70.1534319  45.7254887  21.4356017  19.1039717
  45.2230263  20.7349038  18.6882913  46.3421345  21.7206430  18.4296358
  80.0310898  27.7032781  10.4551578  80.4909420  28.5019302  10.1964569
  79.7209549  27.3278522   9.6310800  61.5266705   8.3629417  27.0236802
  61.1314583   7.6685482  26.4965606  60.9565639   8.4365785  27.7890491
  41.3541174  15.3394628  61.1004305  41.3678694  14.4630802  61.4851332
  41.5133858  15.9276092  61.8386412  51.5832186  36.3023114  17.4491835
  51.4342928  35.6729507  16.7435217  52.1960115  36.9373202  17.0783985
   2.9527867  67.7854681  66.2029123   3.8214934  68.0770540  65.9262228
   3.1108460  66.9558668  66.6534805  41.6959858  72.3046255   5.6680512
  41.5789938  71.6396713   4.9895382  42.6369667  72.3047924   5.8435249
   1.4555036  13.2453501  33.3555150   2.3124096  12.8191113  33.3717775
   1.2618755  13.3584440  32.4249506  56.1688948  19.2311800  25.8110857
  56.5848255  19.3237185  26.6682148  55.3465223  19.7145355  25.8904886
  44.6162701  28.3746815   2.3341590  44.5030355  27.6689053   1.6975364
  44.8429585  29.1398740   1.8056461  53.4129667  26.0657358  10.8771932
  53.3220625  27.0060873  11.0311675  52.7430296  25.8641362  10.2239180
  84.2909241  35.5055642   2.5191736  85.1710033  35.4131508   2.8840676
  84.4312572  35.6048608   1.5775388  62.2668266   2.0146498  14.6044147
  61.6770315   2.0667405  15.3565204  62.5199986   1.0925134  14.5619917
  80.9499264  33.8487935  34.6791601  81.5012932  33.2933283  35.2302361
  80.8794975  34.6716762  35.1630378  55.6755686  30.1970935  18.0418372
  56.5135956  29.7358322  18.0074441  55.9115410  31.1109638  18.2011700
  47.8357840  17.1486294  69.4381428  47.3979568  16.8322921  68.6479092
  48.7569189  16.9231224  69.3081808  74.2644262  60.4715729   6.5591514
  74.6883583  60.0754642   5.7978308  74.9886656  60.7908154   7.0974731
  55.9265137  20.1495504  37.4724650  55.2835655  20.5860567  38.0313134
  55.4402781  19.9231577  36.6796517  63.5562897  25.3735757  37.6661181
  63.0509472  26.1014771  38.0280900  62.9015923  24.7060966  37.4609971
  19.6903217   3.4286755  36.2107348  18.8621306   2.9830927  36.3890266
  19.9490905   3.1154394  35.3440452   7.7446532  72.8161478  68.1184673
   8.2366681  72.0161915  68.3034801   7.0078343  72.5252819  67.5811338
  60.8257341  42.3386097  11.0663819  60.2611160  42.4958324  11.8231642
  61.4427996  43.0703449  11.0718012  86.0538387  57.2948360  68.9128590
  85.2672958  57.0531416  68.4238148  85.7246494  57.6163387  69.7522068
  29.1003275  50.3063822  27.9666543  28.7646079  49.4219446  27.8207231
  30.0454307  50.1906681  28.0647302  46.7190361  58.6720133  50.8558512
  47.5611925  58.9191580  50.4738474  46.1145210  58.6573887  50.1138449
  65.7289982  70.9930611  13.6702657  66.4488602  71.3079166  14.2169785
  66.1020041  70.9400177  12.7903295  59.3034077  22.6624870  25.5908465
  58.8573599  22.0835519  26.2089944  60.1363516  22.2259974  25.4122066
  82.9348660  80.6649208  51.6511488  82.0223236  80.8796787  51.8444586
  82.9321098  80.4181004  50.7263231  58.8419437  54.1528988   7.8909993
  58.0551767  54.3761635   7.3936236  58.6730909  53.2712412   8.2232690
  10.7512057  44.0697575  54.4108629  11.4530873  44.5253992  54.8755980
  10.6987345  44.5117521  53.5634422  50.6881952  26.4788651  71.4663601
  51.3415718  25.8144736  71.2474728  49.9367380  26.2674332  70.9124279
  52.3724747   9.3814325   4.5760670  52.5908375  10.2988720   4.4121963
  52.4785757   9.2751420   5.5214119  25.9490776  76.8873692  59.7758722
  26.5311551  76.8056107  60.5313396  25.9775448  77.8173733  59.5511150
  83.6988449  22.9072762  12.7723849  83.7129307  22.2911310  12.0399928
  84.6199322  23.1171799  12.9265475  19.7719491  34.1151404  59.9464369
  18.8279104  34.1778255  59.8012018  19.8806465  34.2691135  60.8849001
  30.0996661  77.0096207  57.3557711  29.6742463  76.4361620  57.9932642
  31.0307479  76.9590712  57.5720167  28.3569813   7.4721920  28.1023192
  28.1195664   7.0599651  28.9329410  28.5111570   8.3900553  28.3258986
  56.5540934   8.0776995   6.9455016  56.4994478   7.2743547   7.4630761
  56.2603426   8.7669027   7.5412726  45.1518536  79.0277386  42.9162979
  45.7669544  78.8255882  43.6212873  44.3031406  79.1014719  43.3527374
  27.0895743  21.4553404   2.8525582  27.9627132  21.1081266   3.0350497
  27.1711755  21.8692350   1.9933350  47.5321150  23.6009741  20.3696537
  47.9018736  24.2647529  20.9518099  46.6517353  23.9200258  20.1712322
  32.8171730  78.2496166  30.3379226  33.1571221  77.5311327  29.8045897
  32.9403901  79.0291119  29.7962236  21.8768692  55.8663034   4.8977309
  22.0434690  56.5513849   4.2503187  22.2760391  55.0809145   4.5234853
  74.1431475  14.2156374  13.1521308  73.7200642  14.9287558  12.6739109
  73.8453674  13.4207761  12.7096915  49.0709114  13.8647771  14.9505091
  48.1847382  14.1507614  15.1721859  49.3415356  13.3256412  15.6936955
  59.7833157  18.5429204  11.6154993  59.7387409  19.0833890  12.4042559
  60.3730297  19.0197361  11.0314441  39.3948483  26.2905240  18.9154088
  39.9679661  27.0048904  18.6371171  39.4992757  25.6220412  18.2383120
  44.2703962  22.4934292  69.6323395  44.0547085  21.9072819  68.9069796
  44.8465586  23.1522250  69.2447186  33.5946941  18.9852023  27.4373031
  33.4828615  18.2062984  27.9823089  33.0156517  19.6379876  27.8307676
  36.5505385  12.8234339  28.2913756  36.6926670  13.5798919  27.7223372
  36.8147135  13.1246603  29.1606879   1.2147200  57.7424288  70.1912069
   1.9030972  57.9066467  69.5466900   0.5130934  58.3479404  69.9518251
  57.1876526  18.7809908   2.5666329  57.4220371  19.6115899   2.1526274
  56.7473269  18.2851601   1.8763474  76.2219286  32.8332043   1.1774884
  75.9885025  31.9190168   1.3387485  75.6059313  33.3353782   1.7109671
   7.7114981  71.0740471  49.9416780   8.4004259  70.7825518  49.3444824
   8.0439031  71.8929291  50.3093338   8.0720520  64.8157454  50.1186371
   7.8995562  63.8799191  50.2220869   7.2129440  65.2287292  50.2058840
  59.1086149  10.3815842  12.1804714  58.5936642   9.9548066  11.4956963
  58.9855909  11.3178992  12.0242357  75.5637503   5.5577308  19.5597970
  74.9586868   5.5699503  20.3014040  76.2429571   4.9334443  19.8150945
  61.0362959   1.9782484  17.1000707  61.8443394   1.5315710  17.3525989
  60.6754732   2.3047762  17.9243398  66.5774250  33.0129933  13.3114517
  66.9183350  33.8666463  13.5784423  67.2330379  32.3866582  13.6182189
   1.5461147  68.6956358  71.0753345   1.7451321  69.6150255  70.8982754
   0.9441212  68.4418583  70.3757381  33.4810829  62.5876617  17.4828804
  32.5668335  62.4406290  17.7252901  33.4755087  63.4289932  17.0264101
  50.5792093  69.7854471  55.8515882  51.3240623  69.1860723  55.8049059
  50.0474882  69.4509172  56.5738058   9.1353250  44.9270296  32.9924393
   9.3593472  44.9624825  33.9223790   9.3762237  45.7897711  32.6549840
  79.0407228  54.5334911  58.1161356  79.9679613  54.3053246  58.0497885
  78.6292982  54.0803099  57.3802042  87.4287605  16.1948526  34.1964984
  87.8884125  15.6587732  33.5503030  87.0687389  15.5632567  34.8191524
  41.0052490  70.0410652  35.7313681  40.4021358  70.0296211  36.4745736
  40.8138943  70.8633327  35.2802658  19.7785830  76.7660427   9.2649966
  20.5386496  76.1845684   9.2855030  19.0253592  76.1754417   9.2563587
  74.6194649  10.3721356   9.3746442  74.8068476   9.8481500  10.1534641
  75.3324223  11.0097575   9.3377286  43.9464045  20.7500911   5.0705028
  44.8074436  21.1674452   5.0962400  43.9464426  20.2510715   4.2536730
   8.8615692  77.3318148  33.9424872   8.0419672  77.7694368  33.7123346
   9.5450842  77.9091740  33.6023450  70.2143431  39.2224979  10.2153778
  69.6572638  39.6309447  10.8779979  69.9653006  39.6504688   9.3962020
  12.7806687   0.2660097  69.2165327  13.2924354   0.7553746  68.5724449
  12.5161123   0.9224320  69.8610115  75.9983873  13.0820751  18.8361466
  75.0733328  12.9627335  18.6210716  76.4145565  13.2864273  17.9987240
  84.2403984  58.2277441  62.0435238  84.4634438  57.2992659  61.9771862
  83.3394051  58.2809973  61.7247581   5.5587214   0.3178099   3.7983841
   5.7312274  -0.6079783   3.9698184   6.3135350   0.6116477   3.2883376
  64.9534941  16.2223601  11.5829992  64.1402531  15.8818650  11.2102568
  65.6250858  15.9959662  10.9396136  82.3830223  75.5120325  54.7280693
  82.6631927  74.7507095  54.2200041  82.7441692  76.2617350  54.2550516
  62.1949053  15.8667076  33.6939907  62.8655672  16.0016596  33.0244875
  61.3658619  15.9672213  33.2262135  43.7124014   3.4033766  14.5283127
  43.7897778   3.3165294  13.5782051  42.7776623   3.2946411  14.7034287
  86.3944721  67.2573757  59.3125439  86.0539055  66.7029285  58.6105251
  85.6918335  67.2799158  59.9621773  46.7937613   6.6719419   1.0906913
  46.4815712   6.1631817   0.3424045  46.9570780   6.0199606   1.7722185
  62.4804974  13.6835468  13.8399184  62.0406628  13.2562470  13.1049418
  61.7967081  14.2086458  14.2557704   1.4295317  50.2618408   0.9577806
   1.3727354  51.2169170   0.9867544   1.4573136  49.9955702   1.8767795
  46.4302015  27.1187449  19.9378479  45.9845018  26.3757610  19.5309579
  46.9131660  26.7363667  20.6704903  73.6339092  35.8693099  11.5339971
  72.7973938  35.8352351  11.0699749  73.6912251  35.0277925  11.9865382
  75.9257030  51.7381191  40.1726580  75.1021004  52.2246075  40.1374674
  76.2478733  51.7470884  39.2713499  33.5957241   5.9951645  69.9987364
  34.3753028   5.4927284  70.2354765  32.9600930   5.7880002  70.6837845
  49.4490194  82.1980858  21.1894250  49.3733597  81.4838314  21.8221498
  49.2737293  81.7875481  20.3426862  12.8488719  55.3943348  61.7376900
  12.8784549  54.7202730  61.0587263  13.1176448  54.9412489  62.5368786
  12.3526847   8.1859887  54.1644096  12.6415265   8.2992274  55.0699377
  11.5782917   7.6269859  54.2281485  12.2754538  15.2138007  64.5877934
  12.7816033  14.7851336  63.8976574  12.6843488  16.0737073  64.6857595
  79.1174316  39.5438147  23.0495214  78.2080936  39.8422408  23.0661964
  79.5727587  40.1929665  22.5133204  23.4004164  69.0015984  15.6629395
  23.7197495  68.7025166  14.8115826  24.1280913  69.5047331  16.0284185
  16.2590396  66.0983944  65.1846790  16.6606379  66.1375380  66.0526752
  16.2155890  65.1637363  64.9828005  25.7611871  21.0143614  18.1622648
  26.6059422  21.3302135  17.8415453  25.8183646  20.0616479  18.0894423
  12.4423957  77.9514980  26.2535262  11.5234160  78.1866360  26.3816547
  12.4714828  77.5677490  25.3770995   3.6562127  74.3404198  39.6355414
   3.3637756  75.1427078  40.0680256   4.5479536  74.2065954  39.9566674
  39.5362425  80.7631588  22.1592474  38.7947869  81.0897064  22.6689959
  39.4645905  79.8103142  22.2156644  44.0331221  19.2660224   2.7768481
  43.1395817  19.4117236   2.4660560  44.3793774  18.5852611   2.1998714
  51.7518139  10.0107706  32.2763348  52.6920271   9.8760456  32.1576643
  51.6353464  10.9585071  32.2095370  32.1914339  77.6810551   7.1086031
  32.0655799  77.5197411   6.1735255  32.1600389  76.8117189   7.5079799
  12.2550631  81.7564011   4.1555977  11.9386673  81.6077328   5.0466782
  13.0451941  81.2201691   4.0894017  26.6984367  29.6462989  62.5443697
  27.1419787  29.8267555  61.7155504  27.3133969  29.9438024  63.2148504
  45.2222157  77.9869699  64.6132660  46.0612059  78.0423880  64.1558170
  45.1879978  77.0889664  64.9428892  55.2630997  72.5251675  66.6353655
  56.0821438  72.5330734  67.1306753  54.7788715  73.2838774  66.9611168
  24.4364405  59.7858620  65.8164215  23.6604142  60.2464151  66.1356401
  24.5113468  60.0498867  64.8994064  83.6106014  50.4636431  55.7605171
  84.0608120  49.6191406  55.7793427  84.2612934  51.0742855  55.4141808
  27.4303508  80.5359745  27.9112673  27.5237179  79.9450302  27.1640730
  27.9782534  80.1478863  28.5934877  41.6821051  70.1864004  13.7673032
  42.4121571  69.9266481  14.3292499  41.5491581  69.4376755  13.1859517
  52.5748920  59.3724012  60.5401182  52.3902082  58.4815788  60.8377171
  52.8440475  59.2690372  59.6273756  58.0735636  23.9768934   7.1368939
  57.2311640  23.8728333   7.5793493  58.7231112  23.7472677   7.8014183
  75.2094698  14.2220378   6.1084241  74.9910498  13.3350039   5.8225995
  74.7833920  14.3107033   6.9609642  86.5789413  77.7519417  69.4373465
  86.0602188  78.5558510  69.4074965  86.2421703  77.2776890  70.1975489
  60.4421139  39.9817586   2.2130808  59.7095966  39.7209954   1.6548187
  60.1544476  39.7685599   3.1007895  38.7085056  21.2724948   6.8599474
  39.6456790  21.3681293   6.6902763  38.4957218  20.3952861   6.5414220
  60.4163742  20.4971933  40.0430107  60.9207058  19.7641885  39.6900439
  60.8576965  20.7187581  40.8629942  17.1609843  49.7288847  67.9044533
  17.0039582  48.9722872  67.3395300  18.0558479  49.6088362  68.2223225
  66.1017323  37.1846104  10.7883918  66.3966799  36.8519258  11.6360700
  65.9142208  36.3989162  10.2748215  19.4046295   1.0165185  64.4289207
  20.3147435   1.0842697  64.7175980  18.8935578   1.0530177  65.2374411
  71.9992495  11.6630101   9.2693168  72.8874302  11.3665795   9.0705854
  71.4321184  11.0557246   8.7941319  49.8190022  37.6551747   5.9656823
  50.0729609  36.8479776   5.5182755  50.4849052  38.2921886   5.7068074
  78.5414743  65.9964275  67.2261381  79.1578913  66.7117071  67.0691776
  78.5863638  65.8443689  68.1701183  45.4377127  65.5862808  30.8098578
  45.6476116  66.3795853  30.3170729  44.5038557  65.6652975  31.0045266
  55.8945465  43.6576939  17.5825608  56.1190510  42.8251266  17.1670437
  56.5385962  44.2775726  17.2402442  62.7584362  41.7800045   5.6320268
  63.3870029  41.1930609   5.2117532  63.1008339  41.9033670   6.5173388
  31.5707374  63.6300850  68.5795736  31.4990973  62.7650356  68.9830446
  31.2416363  64.2332125  69.2460299  69.6778584  22.0076585  14.9626625
  69.3726540  21.1577201  14.6453488  69.9337053  21.8464684  15.8708417
  86.2927914  56.2203979   2.5138560  86.0197639  55.9973240   1.6239551
  86.9813442  56.8748236   2.3961774  51.4062166  11.9722009   9.2033231
  50.5319309  11.6939139   9.4761020  51.6572666  12.6364553   9.8451740
  82.0487690  29.5818591   0.7871023  82.2701454  29.6133041  -0.1436152
  81.4062691  28.8757610   0.8567503  19.8905313  25.9469795  13.2363331
  19.4439352  26.1106324  12.4056685  19.4862664  26.5599108  13.8504326
  70.1776123  44.3790674  19.1109228  70.0118637  45.1500845  19.6534121
  70.7547188  43.8313532  19.6430790  50.1863623  15.1149321  12.0320714
  51.0325766  15.1823318  11.5897989  50.3974104  15.1767218  12.9636669
  47.9249907  23.1324100  26.5896320  47.1019840  22.7209163  26.3258791
  47.9919195  22.9543924  27.5277495   4.9213198  23.4667516   4.1308582
   4.8749211  24.4056129   3.9502493   4.1860634  23.2996607   4.7205272
  12.3460746  11.5776420  63.6321449  12.2291315  11.2597489  64.5274115
  13.0530834  12.2197020  63.6964035  72.6882792   8.8189900  25.3508139
  72.6325655   8.7207234  24.4003034  73.6165190   8.9790475  25.5210543
  64.9168015  67.8676891  31.2989187  64.8297548  68.7379026  31.6880012
  65.6176376  67.4503803  31.7998242  66.1580896  17.8494394  20.4149222
  66.9064569  17.7736735  21.0068989  65.7047796  17.0100319  20.4932714
   4.0534574  16.6314507  24.8421478   4.5751664  15.8309186  24.8987126
   4.5804787  17.2233725  24.3053889  68.1083012  39.7479510   8.3556348
  67.8691053  38.9660788   7.8579468  67.3117208  39.9814844   8.8322455
  15.9430492   0.6354045  69.6475649  15.4797065   1.1985881  69.0275908
  16.7887688   1.0650547  69.7755957  78.4932661   2.7518472  14.3523979
  78.4904575   3.6647904  14.0647185  78.2080364   2.7875486  15.2654159
   7.8458583   3.4429869  46.4045238   8.7698150   3.6433291  46.5541887
   7.3735541   4.1570756  46.8325853  83.4769535  12.9821134  10.2099454
  82.5263500  13.0861175  10.2518952  83.6597252  12.8217149   9.2841488
  17.8593028  23.5656214  29.7596622  17.8705692  23.7265182  28.8161469
  17.1538782  24.1224241  30.0891757  11.9675934  78.2154322  65.2794647
  11.6375470  78.6008024  66.0911226  12.5120509  77.4823380  65.5664682
  60.7038307  59.0274000   9.9856836  60.8451986  59.9209070  10.2985620
  60.4029274  58.5480976  10.7576680   5.3809398  26.1989975   4.2539611
   5.2165079  26.4920783   5.1502299   6.3349873  26.1641860   4.1845816
  83.4582710  68.8300991  34.7596574  83.6950397  67.9451180  35.0371122
  82.5128078  68.8803291  34.9003935  42.8022337  62.7808619   1.1134236
  43.6581326  63.1215334   1.3734385  42.9526424  62.3852968   0.2548563
  42.5229836  50.3435278   1.6175099  42.4505615  49.5070457   1.1578491
  43.4410763  50.5942917   1.5152854  24.3647218  28.8305855  63.3364964
  24.1611481  27.9305673  63.0820227  25.2867842  28.9422011  63.1050301
  47.8136396  61.3597536   9.8072070  47.9462242  61.7723751  10.6606674
  48.6970329  61.2442207   9.4572020  51.3324213  18.6441934  36.4891315
  51.3669252  17.7496517  36.1502576  50.5258703  19.0077889  36.1237478
  31.8219686  77.8153419  45.3893805  31.4223289  77.0802498  45.8543062
  32.1880007  78.3659840  46.0815144  63.6762190  72.1557617  10.5043936
  63.3383751  71.3062429  10.7879615  64.5369196  71.9597769  10.1342261
  79.2944574  14.8798561  12.4247718  79.9912691  14.2952418  12.7229476
  79.6082449  15.2183199  11.5861952  71.9585180  13.9911389   3.0089822
  72.5827742  14.4982040   3.5280398  72.1300077  13.0808675   3.2502878
  29.1052318  82.1050549  70.8484697  29.5161557  82.9695415  70.8544683
  29.6585751  81.5808582  70.2694559  59.3270826  64.3918467  22.7555084
  58.8731241  65.0997877  23.2126474  60.2368975  64.4652987  23.0437374
  44.7709131  10.5611074  54.9485636  44.9909687  11.4595973  55.1945829
  44.5283842  10.6183994  54.0243769  41.0131168  57.9814291  22.2658563
  40.6370735  57.2993469  22.8222632  41.9187450  57.7045774  22.1264958
  30.8005071   4.8056144   1.3768390  31.3598871   5.4916263   1.7411393
  30.7045197   4.1720745   2.0879261  58.0356073  56.1134577   0.2666974
  58.2326365  55.3258276   0.7737027  57.4270296  56.6064978   0.8169450
  60.7894659   6.9763601  57.1761942  60.1675272   7.0153201  56.4496231
  61.0569239   7.8854150  57.3115349  48.6723518  79.3977642  19.8011982
  48.8145924  78.6810255  19.1829109  49.4935131  79.4596767  20.2891445
  61.5981388   4.6391386   5.1742291  61.0928059   5.1634145   4.5529374
  62.4992752   4.9436855   5.0672787  14.8727632  10.3722942  23.2053900
  14.0848458  10.5865216  23.7049150  15.3262269   9.7212684  23.7408972
  58.5259867  12.3711002   0.6424333  59.1545534  13.0871201   0.5505021
  58.1746531  12.4729061   1.5269840  11.5962136  53.1276321  50.3184271
  11.5103757  53.8707399  50.9156322  11.9153440  52.4130487  50.8695650
  11.3425279  78.7199068  57.8802872  12.1885097  79.1662121  57.9171324
  10.7029927  79.4260931  57.7879477  45.3705025  59.7694063  70.4019547
  44.8795891  58.9813566  70.1691246  44.7559977  60.4876661  70.2512407
   1.3106412   9.2169911  13.6755097   1.1089331   8.3858168  13.2457483
   2.0887750   9.0320766  14.2013860  19.8094189  60.7571650  56.5061712
  19.7644377  60.9764719  55.5755186  20.5313873  60.1319599  56.5702915
  19.8320627  79.3203402  56.0812140  19.5968318  80.2481079  56.0933733
  20.5710912  79.2685509  55.4750919  19.6229291  12.6309741  10.9723806
  19.3379045  13.1506193  11.7240191  20.4385900  13.0450141  10.6904209
  41.5172005  79.3824387  59.6613503  41.4066315  78.9035511  58.8399649
  41.8229866  78.7227774  60.2839041  38.1952453  38.7388492   8.6547107
  37.2385621  38.7149405   8.6751074  38.4094501  39.6656466   8.5479599
   0.2230922  79.3378305  41.8038130   0.5375476  79.5527458  42.6819706
   0.3777445  80.1323700  41.2929153  80.4758835  11.6363049   9.8272437
  81.0381413  10.9070599   9.5658833  79.6368265  11.4556432   9.4034839
   8.3011955   7.2003657  45.5357027   9.2063349   7.4605894  45.3647137
   7.8504986   7.3397440  44.7028303  41.8490744  58.0102873  25.9754682
  41.0757399  57.9205942  25.4185653  42.4269915  58.5988426  25.4898286
  41.2095308  14.8722053  28.6482859  40.7276678  14.3957043  27.9722762
  42.0998001  14.9420094  28.3036375   8.2731587  46.2877941  11.4986837
   7.5276917  46.1743450  12.0882940   8.9464474  46.6995287  12.0403373
  70.9236050  68.2178307   6.9233578  71.1750460  69.0686035   7.2827858
  71.1090565  67.5961924   7.6272088  86.1540318  39.0382528  24.7556758
  86.9602585  39.5029163  24.9799681  86.4399910  38.3229065  24.1875768
  85.8039665  77.7674627   0.4906892  85.6251335  77.9787731  -0.4256073
  85.8373737  78.6170864   0.9303029  71.2817860  49.8745871  50.0084257
  72.1893930  49.7769642  50.2964258  71.3337898  49.8870277  49.0527201
  74.9854374  25.7754612  26.8407393  74.5757723  26.4855385  27.3349047
  75.9254313  25.9314775  26.9318771   5.8646631   9.5146257  12.3694324
   5.2464515   8.9454275  11.9111097   5.9871125  10.2589166  11.7801356
  84.9737644  29.2479086  39.0410733  85.6396484  29.1683674  38.3580613
  84.2310143  28.7419844  38.7115288  80.5939579  41.6315126  11.8892121
  80.2369213  41.3844395  12.7422714  81.2968826  42.2483349  12.0933139
  71.4968777  46.7673302  23.7606406  72.4292326  46.5668964  23.6783624
  71.0565996  45.9362888  23.5824323  72.6644325  49.5477009  42.4890184
  73.4436941  49.3565607  43.0109882  73.0011892  49.7176361  41.6092777
  72.3162746  39.6946096  57.7696228  72.2829103  40.2143145  56.9664907
  71.4007759  39.4918132  57.9618835  41.1851120  65.4392910  69.6700811
  40.4524326  66.0534811  69.7168303  41.6894293  65.7255888  68.9085531
  71.4524221  15.5349994   8.7331080  71.4135170  14.9823904   9.5137107
  71.2427711  16.4132917   9.0507275  32.8935480  37.9887104   4.6165285
  32.5621510  37.1455884   4.3074122  33.8459063  37.8980541   4.5844579
  18.6488414  59.4846106   0.3817392  18.9225090  59.9834108   1.1515027
  17.8665972  59.9383593   0.0679870   1.2699619  23.6978507  12.5580823
   1.9542953  24.0202498  11.9715858   1.5973462  23.8902450  13.4367371
   7.7417427  73.7402153  10.7031810   8.6062318  73.4104204  10.9483838
   7.8993106  74.2647266   9.9181366  51.8812990  30.8878422   3.6189803
  52.4618864  31.0745478   2.8812215  52.3081350  30.1679039   4.0834451
   1.8622802   8.2536864  29.3235230   1.2853813   8.3480519  28.5655546
   2.4175942   7.5038481  29.1099811  18.2036781  70.8272886  52.9334974
  18.8052523  70.6901979  53.6653090  17.3699689  70.4693270  53.2385015
   1.8571670  19.2910373  30.3823686   1.4224094  20.0225520  29.9440718
   2.7664900  19.5746589  30.4768229  80.6544495  52.2977877  17.0743203
  80.6617737  52.6502323  16.1843991  80.9788227  51.4021873  16.9799125
  69.2542934  64.2081499   0.9658749  70.0527620  64.3291807   0.4520337
  69.1751909  65.0125599   1.4786062  70.1829863  22.0117164  17.6256371
  69.4405174  22.5860047  17.8131688  70.8501101  22.2669125  18.2628608
  19.8772991   6.6396272  70.6736755  19.9770117   7.4007422  70.1018429
  19.7022545   7.0109886  71.5383577  37.9229641  80.7745552  17.4989653
  37.9360080  81.6818905  17.8036022  37.5945735  80.2754974  18.2468522
   8.7268841  28.1837940   8.5951132   8.8963640  29.0273571   9.0145278
   9.3228406  28.1645823   7.8463155  72.4475241  12.2293568  53.1114483
  72.6929235  11.3317907  53.3359241  72.0528316  12.5768936  53.9112377
  57.4358082  30.9633231  20.8697748  57.5515127  30.0800872  21.2201095
  58.3253098  31.3077927  20.7900405   2.4449846  27.5656080  38.8515329
   2.6546285  27.4450469  39.7776794   2.6328361  26.7167878  38.4509730
  52.5550318  58.7503529   1.2141716  51.9431734  59.4429970   1.4633796
  52.0146894  58.1071234   0.7553459  78.2893562  51.6082573   7.5763786
  78.7829351  52.4104261   7.4056941  77.5127649  51.6822767   7.0217144
  44.2913008  10.3747904   5.0129205  43.8061428  10.3261077   5.8366227
  45.1786518  10.6233096   5.2719229  40.3512669  76.2553215  67.7494431
  40.9060192  76.1700058  68.5248137  40.9237099  76.6417646  67.0867205
  79.2867851  16.8130910  14.8117638  79.2247200  16.0948241  14.1821027
  78.3806467  16.9876397  15.0660753   7.2941977  35.7249784  55.4306841
   7.6587713  35.2293086  54.6974516   6.3976210  35.9254837  55.1620197
  82.8970146  17.5493646   1.2244675  83.0790424  16.9583380   1.9550732
  83.0293274  18.4255314   1.5864849  80.0577259  33.7059784  28.9599776
  80.9195137  34.1209936  28.9237237  80.2134800  32.8682113  29.3959999
  38.4094477  37.4037600  58.1222248  38.7585831  37.4947619  59.0088177
  38.3909655  36.4592695  57.9678631  34.9561691  78.8011885  70.9500599
  35.6782174  79.4245291  70.8705378  34.5091867  79.0542030  71.7577839
  85.3949356  54.2873335  68.2526779  84.9555969  55.0606394  67.8988361
  85.5161190  54.4846869  69.1814423  87.0455074   3.1607273   5.3751445
  87.3570251   2.2691566   5.2192932  87.1039200   3.2724133   6.3240105
  70.3114748  31.0353899  12.7728379  70.6392956  30.5788016  11.9980514
  70.7646561  30.6189108  13.5059190  70.1517868  52.1910667  46.8656254
  70.3182125  51.2575579  46.7348909  69.8429775  52.5008392  46.0142088
  56.1455822  67.6055717   5.6186163  56.7617464  67.8888702   4.9431050
  56.6945314  67.1942234   6.2862110  78.1643248  15.8330989  25.3236675
  77.8869247  16.7443395  25.2292109  78.7801886  15.8449364  26.0563374
  71.9498444  58.1519842  29.9404931  71.8998528  58.6325645  29.1141915
  71.2153482  58.4850216  30.4560804  27.3451662  66.3712645  31.4788628
  28.2617593  66.2191534  31.2487578  26.8972945  65.5644560  31.2245035
  14.9725139   2.4768317  65.1650286  14.7273016   3.2500687  64.6568871
  15.7068563   2.0964766  64.6830511   8.6550480   4.6952489   3.4351888
   9.2803544   3.9705926   3.4253496   8.7797177   5.1075923   4.2899767
  60.0274897  37.3784852  17.2963059  59.8273134  37.5323057  16.3729966
  59.1833067  37.1603775  17.6912951  21.6711736  46.7830563  62.7644348
  21.3131309  47.4045277  63.3983231  21.0740614  46.0356951  62.7982092
  39.5909071  50.3376913  69.7631359  39.8429370  50.7557583  68.9397717
  40.3479052  49.8026037  70.0015974  79.7841930   5.9600407   5.0193518
  79.7504091   5.0290996   5.2394402  79.3373871   6.0229450   4.1751719
  75.6751871  35.4049659   6.1732537  76.4942265  35.8451366   6.4005339
  75.1971149  35.3465605   7.0004588  16.3879561  66.1714411  36.6803312
  16.1321163  67.0381594  36.9958806  17.3425186  66.1630249  36.7508292
  85.4013252  16.3129151  20.9374428  86.1144161  16.9398820  20.8164430
  84.6704197  16.6830266  20.4424429   1.3707599  45.4820633  30.7643104
   1.5631272  45.2289438  31.6671705   2.1669182  45.2641630  30.2796602
  44.7893286  82.8441715  12.1519184  45.5237150  82.6907063  11.5574765
  44.2751980  82.0378208  12.1105909  80.5886078  33.6119223  41.6841125
  81.4051151  34.0795612  41.5084267  80.8006096  33.0238366  42.4089861
  47.9562807  69.5372677  60.0475693  47.7773619  69.3862772  60.9756994
  48.4926319  70.3299427  60.0329018  71.3960457  28.0967212   8.7819403
  71.4153957  27.2932267   8.2620829  70.6368685  27.9926324   9.3555671
  49.2133999  57.1709061  15.3032517  48.9336443  56.8603230  14.4421446
  48.4514618  57.0342970  15.8662999  82.7321911  25.4863906   9.6806300
  82.4728870  24.6096206   9.3973088  82.0245552  26.0551572   9.3773371
  51.7049313  49.6514225   6.6521984  51.0958958  49.0089035   7.0161694
  52.3966932  49.1252995   6.2510830  77.8034067  72.4402666   9.2552626
  77.1020746  71.8215799   9.0513223  78.4922409  71.9016314   9.6446294
   3.9548501  62.1060610  36.4332056   3.1748721  61.5901279  36.6373610
   4.1819841  61.8529892  35.5384469  23.8652492  23.7990975  66.4370775
  23.8954854  22.9988790  66.9614506  24.1716051  24.4855118  67.0297050
  79.4266796  28.0997586  19.2389488  78.5371399  28.4504151  19.2836010
  79.3779230  27.2633219  19.7017932  74.1736794  30.2742195  19.0936601
  73.4300804  30.6148624  18.5964143  74.0773487  30.6611514  19.9638522
  68.4678364  35.5069828  32.9849720  68.9507961  34.7440600  33.3026624
  67.5508499  35.2327991  32.9989004  48.2015467  10.2228034  54.0959215
  48.1751919   9.2688107  54.0222025  47.9061365  10.5373085  53.2414913
   0.7302238  49.9392033   3.6652952  -0.1387686  49.5634985   3.8064748
   1.0559375  50.1268482   4.5455974  79.2295361  19.1271424   3.9416313
  79.7998095  19.7896421   3.5516158  79.3424320  18.3564150   3.3853349
  26.8570137  25.5567527  43.6305618  27.3236489  24.7337532  43.4851170
  26.3389802  25.6821108  42.8354788  67.4202776  16.6262186   1.7461383
  67.5899315  16.5294206   0.8090791  68.1350231  16.1505377   2.1693388
  51.7342949   4.7851533  42.3639917  52.1169949   5.2758962  41.6367054
  51.1182880   5.3965741  42.7676344  53.5853863  52.4971056  12.8199446
  54.0087986  52.5693226  11.9645274  54.0800476  53.0924511  13.3830655
  21.6629100  65.9444237   6.5807408  22.1571207  65.4147005   5.9551334
  21.5683556  65.3815174   7.3491353   8.2372677  15.2014971  38.0728507
   9.0638745  15.6810641  38.0183625   7.5634140  15.8726072  37.9643917
   1.3486956  12.0964205   8.2073998   1.9595098  12.5544584   8.7847555
   0.7802051  11.6057944   8.8009793  59.6725845  50.4639673  20.9726834
  60.5484724  50.1458025  21.1913753  59.0800238  49.8211384  21.3623977
  84.8191166  12.1062744  44.2357016  84.1714096  12.2238290  43.5407972
  85.0238037  11.1714101  44.2166805  63.1098413  43.0075455  46.7992687
  63.1703901  43.9491558  46.6382265  63.8946295  42.8003788  47.3066330
  68.8956213  80.9179878  23.5115433  69.0435076  81.6347790  24.1284585
  69.6416712  80.9591484  22.9132581  75.7671595  61.8611050  11.6333938
  75.8945465  61.0745239  11.1030245  75.5903769  61.5301752  12.5139987
  67.8764725  72.7037001  20.6475711  68.6176443  72.3163652  21.1132646
  67.1364832  72.1348524  20.8598614  74.7052145  63.8896036  21.2846947
  75.2731800  64.0867138  22.0295405  74.6793556  62.9333973  21.2496567
  70.8966398  54.9461699  14.3740106  71.7112780  55.0896549  14.8556852
  71.1640787  54.4710112  13.5872865  51.0913038   7.9342151  65.5066156
  50.8209896   8.0872285  64.6012163  50.5742931   7.1788490  65.7865334
  23.8566995  40.1844931  10.8409786  24.5043659  39.8630786  10.2137220
  23.9819789  41.1334229  10.8495891  39.4762588   1.5828936  54.1244125
  39.6185756   0.9600209  54.8371553  40.3102636   1.6045624  53.6551619
  77.6456070  45.1323223  13.6930931  77.6672935  44.1765976  13.6446476
  77.3277235  45.3202295  14.5761979  67.1605778  38.4672284   4.0419647
  66.3329983  38.3939433   3.5665962  67.8314877  38.2824612   3.3847228
  63.9520121  34.6946359  70.8839560  63.0697441  35.0513768  70.9867764
  63.8389540  33.7479305  70.9688044  15.2538264  51.5500689  31.8491626
  15.1952398  50.7681084  32.3981023  16.1846602  51.6263199  31.6394830
  56.8877363  17.4016666  37.2535753  56.8640661  16.8980968  38.0672646
  56.2456560  18.0993199  37.3849010  39.3553233  62.0844555  58.1816673
  40.2568102  62.3015404  58.4192133  38.9644074  61.7627811  58.9940357
  45.3551054  49.9074650   9.8403239  45.0839663  49.9381161   8.9228410
  45.3549623  50.8226442  10.1208222  73.4064579   0.7101166  50.8625841
  73.8060808   0.7787268  51.7296648  73.8311481   1.3965614  50.3481293
  13.8939798  77.5355244  71.2431240  13.3486235  77.8335476  71.9711351
  13.2839930  77.4352789  70.5123043   0.7717138  73.5562658   5.0990778
   0.1268819  72.8966284   4.8435250   0.6496848  73.6573982   6.0430652
  17.2770071  33.3221006  14.6869779  16.5594375  33.3424687  15.3201520
  16.8844163  33.6299610  13.8700759  32.6976585  78.7487841  68.9891005
  33.3842683  78.8908958  69.6407175  32.8395891  77.8529930  68.6830807
  10.9433448  59.7902536  17.2947860  10.1159954  60.1334810  17.6323044
  11.0383487  58.9363527  17.7167630  10.5564046  44.0397835  24.4181800
  10.6235135  43.0910730  24.5262599  10.8730400  44.2026138  23.5296655
  57.6434994  76.7158413  14.6596861  58.0541945  76.8469858  15.5142975
  58.2843018  76.2086725  14.1613030  65.8309174  60.0556326  17.7546549
  65.8821535  60.9412432  17.3950708  66.0408497  60.1613665  18.6825454
  67.8592396  21.3976693  51.7298794  68.4534693  21.6444516  51.0211992
  68.4365320  21.1123633  52.4380922  66.4344406  44.1669369  21.3795710
  66.3991547  43.4005404  21.9519520  65.5580854  44.2218113  20.9984827
  68.8975859  43.8954401  -0.0927513  68.6448288  43.3569193   0.6571446
  68.3533335  44.6793890  -0.0189417  63.4939575  32.7356648  57.6807117
  63.2920313  33.4253716  58.3129787  64.4465876  32.6493812  57.7164698
  60.0244665  22.9696727  68.2685614  59.8076963  23.9019108  68.2819223
  60.9647369  22.9449296  68.0910683  48.1652927  11.8665600  39.0447235
  47.5047207  12.1509433  38.4130549  48.9808702  12.2568369  38.7304783
  69.1201115  37.5037646  13.4117830  68.4040403  37.1640134  13.9484787
  69.6506166  36.7342472  13.2052839  28.3751917   8.6433196  62.6601839
  29.3242216   8.7518340  62.7218056  28.0522799   9.5047688  62.3958588
  67.9867887  37.6916623   6.5813249  67.2754526  37.1404958   6.9075936
  67.7931261  37.8068542   5.6510246  54.1680813  15.0023293  45.9287262
  54.3808126  14.3651140  46.6105890  53.2176161  15.1022124  45.9823751
  14.0289640  68.1752968  19.2007709  13.8669825  67.2837830  18.8922203
  14.7526312  68.4887266  18.6582780  50.0219488  51.6626692  19.4525313
  49.0933943  51.6429281  19.6841121  50.0640440  51.2389898  18.5952353
  67.3539257  52.3421717  24.5731831  66.5680885  52.3119354  25.1188779
  67.9106331  51.6430473  24.9160194  66.0429716  35.8773828   7.6217890
  66.0608530  35.0230789   7.1904248  66.3162231  35.6972694   8.5213029
  20.9155631  16.9560528  65.8495283  21.4974284  16.9127870  65.0907183
  20.6646943  16.0465610  66.0111475  75.8893299  66.2824297  17.1207333
  74.9346876  66.3519907  17.1278405  76.1241007  66.1152887  18.0335188
  59.4487381  37.4614120  10.8892047  60.1050425  36.9899678  10.3761411
  59.8521948  37.5724912  11.7500842  39.5964289  62.7281427  47.3223209
  39.7080541  62.7561331  46.3720655  40.3546810  62.2367001  47.6381779
  72.2247791  49.4704819  29.4567895  71.8087435  49.7310543  30.2785230
  72.4326468  48.5438728  29.5768666  75.2187490  48.5973978  23.2492232
  75.4487085  48.6831999  22.3240256  75.1193190  49.4986725  23.5558891
  82.3684025  43.1197214   9.1980815  82.6473808  42.2143078   9.0615767
  83.1270409  43.5466814   9.5960838  38.7368035  14.2943919  52.7183104
  38.2066274  13.7625837  53.3118820  38.5757804  13.9195502  51.8524027
  70.0231123  65.2702475   4.0040740  70.6530476  65.1699829   4.7177702
  69.7343969  64.3779945   3.8123271  80.7394886  53.2855177  23.3245635
  81.0456753  53.4578133  22.4341702  80.1388741  54.0061045  23.5149407
  13.8823664  29.1014385  63.8888788  13.8355815  28.4838605  63.1590557
  13.0493414  29.5719314  63.8582802   5.3188610  36.9018888  41.2651587
   5.2766663  36.0271215  41.6514683   4.6941608  36.8740630  40.5404472
  59.3623209  53.3588552  13.9775622  58.8615990  53.4916687  13.1726575
  58.8215351  52.7676439  14.5012522   9.7150058  19.6597242  58.0860281
   9.1854060  19.1020846  57.5161219   9.9605942  19.0914750  58.8161039
  57.3543787   9.7421491  32.9617453  56.8215752   9.0006691  33.2490802
  57.8364086  10.0083721  33.7446904  61.2607002  78.8839960   9.7425801
  60.5755997  79.3501759   9.2634696  60.9022856  78.0072117   9.8804879
  69.7508335  29.9443150   3.5494652  69.1819477  30.6597447   3.2652822
  69.5088959  29.2082334   2.9874337  68.7603235  56.5381718  52.4329948
  68.9783907  57.4430943  52.2098494  68.4471941  56.1578989  51.6122770
   3.5466450  70.7588100  69.4998312   4.1334248  70.1431847  69.9390650
   3.3105507  71.3907099  70.1789427  73.2344389  17.2167826  23.3874297
  73.0938911  17.7772057  22.6242781  74.1846466  17.2019482  23.5019517
  77.0105886  13.8561106  16.4850962  76.6983318  13.0097854  16.1650002
  76.5966272  14.4979560  15.9081185  74.4893980  37.6079464  48.9126778
  75.3131104  38.0112290  48.6386585  74.6725178  36.6684365  48.9171076
  15.5187452  74.7267866  45.1599407  16.1134887  75.4675293  45.2774715
  14.7588789  74.9415398  45.7009745  14.4767082  58.8987684  22.0468140
  13.9396226  58.1632710  22.3414636  15.3771794  58.5828543  22.1215391
  39.5061851  15.0443280   8.5255051  40.4480791  15.1073432   8.3670884
  39.1331458  15.7866025   8.0500019   0.7533247  71.4007950  52.7308750
   1.0232797  70.8283329  53.4489584  -0.0233648  71.8512249  53.0626822
  62.4246740  15.9677374  21.0783339  62.6726437  16.6189587  20.4220939
  62.3848391  16.4582121  21.8993592  80.7584381  81.8448639  15.0330973
  80.8385277  82.0130062  14.0941906  81.6614342  81.7601871  15.3391349
  50.3707600  55.0529718  53.7351036  49.8531580  55.1356506  52.9341745
  49.8492861  54.4821501  54.2994261  61.6728020  44.3790674  20.1995754
  61.5892124  44.2961359  19.2496443  60.9607172  43.8441181  20.5502796
  41.3380527  82.6225376  62.1326208  40.8976460  82.1723557  62.8534603
  41.7361116  81.9197845  61.6188908  64.2986917  38.4877086   2.5379348
  63.5663080  38.2487583   1.9698238  64.3095779  39.4447589   2.5249091
  84.2155838  16.9063568  15.2822232  84.3491268  17.7328253  14.8181689
  84.8117542  16.2921011  14.8538518  11.4212251  31.5486407   1.5639479
  11.4001834  30.6910205   1.9885358  12.1777380  31.9890952   1.9511446
  75.4789543  49.9899340  28.6429596  74.9568939  50.7519913  28.8938642
  76.0767221  49.8564148  29.3785405  44.1076088  29.7275162   8.1224835
  43.1587934  29.6535683   8.0199313  44.2227745  30.3218865   8.8638955
  18.1415737  77.9385138  24.5731640  18.4233427  78.8002014  24.2660213
  17.7093840  78.1118727  25.4094601  38.1262136  42.9218388  11.7825699
  37.8697491  42.3694992  12.5210655  37.4934292  42.7122641  11.0956252
  55.3299236  73.6833954  50.2610826  55.2688122  74.5657158  50.6271458
  55.7913637  73.8000727  49.4306087  39.3165565   9.7234982  32.9141426
  39.8169017  10.3425038  33.4458566  39.7819352   9.6950424  32.0781732
  31.5111661  69.9554682  63.0592823  31.3337731  70.5269861  62.3122025
  30.6492424  69.7807407  63.4371567  64.7495937  74.8384380  48.1396055
  65.3749275  75.4258537  48.5640335  64.5202780  74.2025805  48.8173437
  20.6840777   9.8329455  49.8390770  21.2843013  10.5329192  50.0959826
  19.8170769  10.1616085  50.0768232   0.5385585  56.6117477  61.0684299
   1.2882289  56.3957977  60.5138206   0.6431371  57.5436735  61.2602949
  84.9035931  79.0442419  62.2201824  85.6328392  78.8608980  62.8124762
  84.6592712  78.1880140  61.8688822  70.5200481  30.9678960   6.3290894
  70.4304981  30.9346962   5.3766656  71.2612247  30.3931069   6.5201527
  77.3504162  70.8453226  40.8765030  77.4365044  71.4370537  41.6239452
  78.1241655  71.0214424  40.3412247  31.6905499  68.2820749  35.8784747
  31.9019508  69.1844034  35.6389999  31.0889935  68.3653021  36.6183639
  62.4481010  75.2027559  27.0109463  62.5644779  76.0314989  27.4755645
  63.2739449  75.0712681  26.5451932  49.2316198  49.0833664   4.6580231
  49.7938490  49.1860247   5.4258704  48.4165430  49.5245504   4.8972759
  42.5938034  77.4055624  56.1456680  43.3960009  77.7140808  56.5670013
  42.4126434  78.0577660  55.4688835  64.4217443  55.2098083   3.7567917
  64.6513700  55.7787514   4.4915074  64.5659828  55.7510185   2.9805723
  80.1499557  38.6621571  70.1262617  80.2572250  37.7986479  70.5251074
  79.4781113  39.0895557  70.6574774  75.9115696  59.0055704  52.8943968
  76.3073158  58.9936352  53.7658787  74.9778271  58.8674974  53.0534554
  68.5056067  25.2419901  67.6711607  68.2726002  24.8607922  68.5176992
  68.9606524  24.5382261  67.2086811  87.3465443  69.0467978  57.4230051
  86.7803383  68.2750177  57.4245787  87.5507641  69.1959095  58.3462048
   7.5949341  79.0811348  57.9414225   7.9669040  79.6483660  57.2660589
   8.1923652  79.1694021  58.6840677  59.1671944  31.0674071  69.1333389
  58.2788467  31.3711596  68.9467669  59.1812468  30.9360576  70.0813818
  86.0700226  82.2695255  28.0485964  85.5625153  81.4785957  27.8666854
  85.4635429  82.8399086  28.5208964  14.7844386  63.6045313  36.1772275
  15.2229977  64.3379784  36.6084552  14.9112844  63.7658072  35.2422786
   7.1173882  76.8513250  38.9693332   6.6182595  76.1500788  39.3880916
   7.0545495  76.6637230  38.0328035  17.4988663   7.5018775  61.9181681
  18.2650328   7.7116597  62.4522209  17.5264764   6.5497941  61.8232632
  19.5622659  50.1124668  60.4689503  20.1298833  50.8646727  60.6369591
  19.0411890  50.0226736  61.2668514  29.0148830   7.1759742  46.1008024
  28.5542536   6.5124118  45.5872488  28.4002948   7.4097586  46.7964029
   0.5855548  25.9285378  56.5085459   0.0146266  25.9001851  57.2763157
   0.0001079  25.7672501  55.7686377  28.7373686  76.2962246  41.9162750
  29.6459556  76.2465048  41.6192389  28.4586573  75.3833437  41.9883776
   2.3180190  68.3795452  58.4307528   2.6777411  67.9995012  57.6292562
   2.6925325  67.8510332  59.1354847  36.5521264   7.2990257  53.2949638
  35.8453321   6.7611432  52.9380941  36.5840149   8.0642670  52.7208376
  14.2943311   0.1821601  49.6935225  14.2973948   1.1342975  49.7917938
  13.9051211  -0.1412319  50.5060244  52.2639465  27.2012186   1.8503520
  52.3902607  27.2868609   2.7953082  52.6480579  27.9978466   1.4841929
  26.9764280  15.0819111  58.3213377  27.3203397  15.4945195  59.1136217
  26.0277772  15.0725543  58.4486294  30.9079671  13.6817992  36.4107704
  31.8101668  13.9607036  36.2543058  30.9820986  12.9869974  37.0649767
  68.5621262  44.1012430  33.4531927  69.2380953  44.5975113  32.9916596
  68.6744165  44.3416452  34.3728828  53.1956100   6.8421739  29.9423504
  53.9568758   6.3740873  29.5994163  52.6203251   6.9511330  29.1851139
  75.3002071  70.2292395  34.4911790  76.0711241  70.2740479  35.0567865
  75.1008320  71.1425161  34.2852402  49.3942690   7.4880946  52.2849989
  48.4621716   7.5749618  52.4846983  49.6893167   6.7594045  52.8310680
  27.8123641  70.8180189  56.1366272  26.9543338  71.1264277  56.4279985
  27.8944731  71.1483097  55.2419758  87.4740982  63.6120892  53.9949560
  88.3801460  63.4287691  54.2433500  87.0939636  62.7506399  53.8227987
  37.6545191  37.8762221   0.4003132  37.6460338  36.9634557   0.1121877
  38.4908128  38.2190871   0.0852094  42.4575472   9.2758173  37.8088474
  42.6780653   8.4236813  37.4327230  41.5727329   9.1626477  38.1560183
   1.5036522  81.9879818  56.4163017   0.9559196  81.6270828  55.7191849
   1.5368192  81.2963295  57.0771790  15.4383326  71.3693047  55.7200670
  15.3850687  70.6296206  55.1148748  14.7956657  71.1688042  56.4005136
  21.3172507  63.6712170  61.9021988  22.2537541  63.6114645  62.0909405
  21.1996627  64.5535851  61.5503025   1.1421750  66.0941029  55.4091263
   1.0689899  66.4239550  56.3047123   1.6912618  65.3137732  55.4854059
  74.2292595  81.1954403  37.5980210  73.3175182  80.9986782  37.3829889
  74.4363880  80.6072235  38.3241987  53.9906263  12.7993631  71.0209608
  53.7630367  13.6126161  70.5703449  53.1818914  12.2873747  71.0141802
  66.2807512  55.9953117  33.3611298  67.1373081  55.6142426  33.1679225
  65.7580185  55.8185053  32.5790048   9.6624160  42.0015526  34.4354606
   9.0122044  41.5140200  34.9411988   9.4106966  42.9188061  34.5427442
  57.9482412  56.7099428  39.2309165  56.9971752  56.8152285  39.2557716
  58.2501602  57.3993540  38.6394835  65.9910393  22.8764749   9.2024082
  65.8656359  22.1163416   8.6343402  65.4830885  23.5729027   8.7862289
   3.3630231  42.4323606  64.2180300   3.8081867  42.5931931  65.0500154
   2.4419326  42.6195097  64.3991375  77.6481533  40.5417919  18.0122745
  78.5610199  40.2921820  17.8687465  77.6047897  41.4583588  17.7397621
   6.3367873  72.4446535  37.7515078   5.7024097  72.9381895  37.2316790
   7.1757138  72.6022673  37.3183870  25.6647229   3.3909115  57.7001953
  25.2165961   3.2499656  56.8662024  25.1170731   2.9431412  58.3450317
   8.8722962  62.5091600  41.3176250   9.6212858  62.8622103  41.7978334
   8.4429079  63.2787895  40.9440947  26.2530303  55.2252960  55.3830385
  26.0146236  54.7596264  56.1846304  27.1966100  55.0885582  55.2982330
  23.4747219  75.6243992  63.3673334  23.3849430  75.2987671  64.2629528
  22.5746632  75.7506704  63.0670404  17.7461505  45.0172091  55.4071760
  17.9768240  44.5103312  56.1856985  17.5588036  44.3579388  54.7389698
  87.1208572  70.0597143  43.5465479  87.6176262  69.4916630  44.1354275
  87.7853584  70.5958700  43.1138706  66.6537094  74.9817848  50.6545734
  67.0234585  74.2934895  51.2075329  66.1803293  75.5492973  51.2629128
  22.7650166  12.7859342  54.1592360  23.3580661  13.0607581  54.8585176
  23.1838059  13.0935085  53.3553410  10.8998930  49.0163708  52.8821468
   9.9752975  49.1066074  52.6514673  10.9157598  49.0795994  53.8371229
  83.7728691  55.5847788  54.6024704  83.4594917  54.7039127  54.3972826
  83.4985638  56.1166573  53.8554144  85.8332920  50.6158018  58.5642910
  85.6511307  50.3941679  57.6510954  85.2797794  50.0208616  59.0701532
  83.4181786  39.9755883  24.6784592  84.2875576  39.5856786  24.5869613
  82.9754734  39.7696900  23.8551402  21.5047240  14.1820276  70.2567625
  20.8472586  14.5882213  69.6919823  21.5026331  13.2594621  70.0016117
  71.3078213  36.8587589  69.9854088  71.5678549  36.4186954  70.7947063
  70.3741598  36.6668534  69.8977661  21.3339925  27.4338555  27.8499675
  20.7979226  27.1059752  28.5720158  21.8069577  28.1784058  28.2216954
  73.4349966  50.5802011  46.3593435  72.6526594  50.2934456  46.8304634
  73.8301277  51.2392998  46.9300365  83.1990528  56.2360620  35.2945113
  82.4338055  56.6514778  35.6920624  83.7887573  56.0672522  36.0293484
   5.6543165  49.2501736  42.2287464   5.4055953  50.1562262  42.4116182
   6.2268418  49.3086815  41.4638758  33.4164834   8.9844424  42.9175282
  34.0590715   9.3535829  42.3116827  32.5706697   9.2730004  42.5746536
  11.1059701  33.2898021  25.8334255  11.4437747  34.1203856  26.1684656
  11.8880820  32.7903986  25.5986333  23.7980533  57.4438381  27.1588302
  24.6866274  57.1804667  27.3982143  23.3838606  56.6374969  26.8514299
   5.8181047  60.3512955  47.5858212   5.1228654  60.8558464  48.0080843
   6.5767550  60.9349060  47.5946331  79.9184990  48.7617397  49.1207743
  79.7586966  49.1140079  49.9963331  80.8382416  48.9615011  48.9464283
  54.9250650  16.2399566   9.7070569  55.6999826  16.8001354   9.7510058
  55.0530195  15.7157159   8.9164686   5.4327804  44.1021633  45.6883049
   5.8989477  44.7408772  45.1488924   4.5736507  44.4967508  45.8380747
  12.8841805  56.7295408  23.2666683  13.3827484  55.9797621  23.5914636
  12.1428716  56.8027735  23.8677764  78.7876129  23.7764263  62.4500656
  79.2272997  23.0506039  62.0072460  79.2450619  24.5582151  62.1405840
  77.7107334  25.9511447  27.1888661  77.4941349  26.8578959  26.9717956
  78.1093788  25.6026387  26.3914609  79.5105267  10.8649516  42.4772453
  80.0932217  11.6098201  42.3293734  80.0740337  10.1922321  42.8595257
  86.8230438  50.3096962  27.6171374  86.1774158  50.4847574  26.9324827
  86.8291664  49.3563223  27.7024531  15.3467822  41.9994545  60.0691843
  15.9809375  41.2961006  60.2083445  14.6918344  41.8706417  60.7552433
   5.1509297  61.7799616  13.2326066   4.9539039  62.5104141  13.8189960
   5.4404342  61.0771465  13.8143897  11.7760789  81.4082146   6.9065434
  12.6402318  81.5046883   7.3067492  11.4681745  80.5523777   7.2048348
  51.4848709  73.5631800  12.4062884  52.0348740  73.8969517  13.1150377
  51.1523962  72.7276516  12.7342963  84.7255230  79.3927717   5.6938994
  84.4003010  80.0868511   5.1205552  84.0985203  78.6779118   5.5840367
  32.8535795  25.2800989  45.9379196  33.0917025  26.0737252  45.4586601
  33.6361170  24.7305298  45.8950377  10.1438022  40.5610132  65.8806181
  10.5320597  39.7641897  66.2419462   9.2378086  40.5472088  66.1891890
  82.0196819  48.7646341  52.2050953  82.0180511  48.7074614  53.1605864
  82.9050636  49.0534830  51.9839525   9.4958454  57.2819042  70.7552624
   9.8594701  58.0656719  70.3432941   9.5194888  56.6168022  70.0672817
  79.5995235  44.6142054  58.7788105  78.8776827  44.8569345  59.3586874
  79.4911814  43.6729670  58.6425734   0.8866456  39.6333194  47.1632195
   1.2783477  39.9952459  46.3683558   1.0880384  38.6983204  47.1251583
  73.5067368  60.9898615  20.7182670  72.7032232  60.9126139  21.2326884
  73.6102867  60.1324177  20.3055882  74.1160440  44.9480820  18.0323887
  74.0109015  44.9924326  17.0820153  73.6143064  44.1757298  18.2930875
  65.0318432  53.3724546  42.7197313  64.8454905  54.3107796  42.7521086
  65.6186438  53.2705212  41.9703960  19.9845088  35.5434322  47.1515417
  20.7637119  35.4200196  47.6936150  19.8668170  36.4926219  47.1138859
  78.0900955  19.4686842  59.1122675  78.5108566  20.2788353  59.4001055
  77.4774027  19.2540002  59.8156500  83.3271313  67.1884871  37.7396226
  83.3606529  66.5750408  37.0056009  82.4978542  66.9942474  38.1764197
  81.3712215  40.7743216  39.9470448  82.2592831  40.7363844  39.5918632
  81.3941288  40.1984358  40.7112837   6.8712515  63.0536938  48.0576706
   7.5000072  63.0012703  47.3378468   7.3836869  62.8456354  48.8389206
  85.8339024  16.7559361   3.5143667  85.2441216  16.1084270   3.1282064
  86.2581158  17.1713686   2.7635717   5.3126204  61.6850185  26.6117430
   4.8984939  61.5545273  25.7586884   5.6462157  62.5816917  26.5813851
  60.2086115  20.1198030   6.1930233  59.9580669  21.0173678   5.9743100
  60.6873655  19.8106194   5.4239792  44.4299078  77.9647112   7.0405734
  44.8343039  78.1669903   7.8842419  45.0824833  77.4344778   6.5831596
  18.1387210  16.7800117  29.7295260  18.0740130  16.4483821  30.6251073
  17.3057795  17.2269285  29.5788455  39.3086362  69.8771000   5.3350651
  38.7850404  70.6508064   5.1266128  40.1146603  69.9905491   4.8313951
  71.9484138  24.1530848  20.0991011  71.4790058  24.3824315  19.2970455
  72.3969841  24.9596381  20.3530478  28.8246894  36.8853617  45.4880047
  28.0998850  37.3839498  45.1107836  29.3149853  36.5653634  44.7307444
  84.6301079  20.5367231  20.2261257  85.3620243  21.0142899  20.6166029
  84.6366310  19.6867609  20.6663013  71.0039997  28.3309698  59.1468716
  71.0653543  28.6774468  58.2566929  71.6180134  27.5967908  59.1609764
  24.0036273  36.2905335  29.3945765  23.5569692  35.5811667  29.8566699
  23.3758378  37.0130801  29.4008183  60.1538706  32.2597504  20.4602194
  60.5346537  31.5667558  19.9207819  60.8224916  32.9445028  20.4775095
  78.1769657  33.3861423  20.7449150  78.0694866  32.6402593  20.1547098
  78.8099575  33.9520192  20.3029513  12.1340609  76.8217039  14.6554792
  11.4412308  76.4022255  14.1453242  12.6106215  77.3549128  14.0192342
  76.7157221  48.8932991  50.1874208  76.7416096  49.3381929  49.3402910
  77.4982834  49.2019939  50.6440830  80.9258461  30.2787185   9.8659515
  80.2179718  30.6174326  10.4140651  81.7172909  30.6858349  10.2182257
  26.4415717  57.3989725  32.0589781  26.8082309  56.8676710  31.3522148
  26.5435290  58.3017492  31.7576003  77.1373940  51.5608025  44.5944452
  76.8310308  52.4654961  44.5319223  78.0163288  51.6307831  44.9670076
  73.8097048   1.5127765  40.2617931  73.4743118   2.3079309  39.8477030
  73.6170292   1.6277745  41.1923218  86.3767529  23.1381416   9.1843355
  86.8147469  22.7894783   8.4079134  85.7500744  22.4581218   9.4314682
   2.2895338  49.8936176  47.6123619   2.4336313  50.7640457  47.9836082
   2.1070921  49.3374109  48.3697128  35.9315634  38.8098335  21.7638493
  35.7329726  39.4439197  22.4528551  36.1897278  39.3447638  21.0132289
  49.1031981  18.9068532  66.2294006  48.7958431  19.3196285  65.4223204
  49.2314482  17.9878068  65.9945822  72.0232296  60.1315308  28.0089760
  71.5616512  59.8298025  27.2265840  72.9505777  60.0388193  27.7906585
  49.1391087  62.7387142  62.1216726  48.9250326  62.2146749  61.3498020
  50.0319576  63.0451250  61.9630337   9.5846444  17.5085354  54.3204689
   8.8130498  17.8112841  54.7992373  10.1186228  17.0673954  54.9811459
  21.0625339  75.5753517  18.2593310  21.5445709  75.4769135  19.0804183
  20.9982800  76.5217733  18.1313002  26.7183852  70.6222105  51.9976711
  26.0467243  70.9519053  52.5946665  26.7347002  71.2570095  51.2814331
  10.8302116  62.7803183  59.4903612  10.8153915  61.8525648  59.7255039
  10.0532162  62.9015255  58.9446354  10.9851396  35.0556803  33.5823154
  10.7817984  35.1735210  34.5102143  11.7061293  35.6629539  33.4161162
  75.7314825  53.7037039  55.8953476  76.3586283  54.1727781  55.3449917
  74.8772335  53.9155674  55.5190420  61.1202335  64.7244978  55.9845686
  61.4620447  63.9473248  56.4266109  60.1725769  64.6737337  56.1094522
  45.4706764  39.4583082  12.7103162  44.6124744  39.8708677  12.8078437
  46.0241270  40.1427937  12.3342764  18.8074327  53.9491749  62.7750540
  19.5649529  54.3884230  62.3884583  18.2244432  53.7810612  62.0347214
  84.0607357  60.1533365  54.9502468  83.5931110  60.7240152  55.5600739
  84.3503571  59.4155073  55.4868603  28.0949235  67.7896547  55.9776402
  27.6167059  67.3201513  56.6610909  27.5272441  68.5262775  55.7510138
  38.8997769  45.9028006  63.5123205  39.4539046  45.3171778  62.9963541
  38.3503151  46.3447094  62.8649902  15.4653299  44.6413755  21.8672609
  15.3368032  43.7097931  21.6887569  15.1557183  45.0818396  21.0758305
   4.5815563  65.8392525  52.8801012   4.4341922  66.6822720  52.4513435
   5.1723295  66.0397911  53.6060524  23.5948420  65.4936504  43.0267715
  24.0128613  65.5690670  42.1689796  24.2582297  65.8013964  43.6443806
  19.4389582  65.5803728  57.7732086  19.3425441  65.7447243  58.7112522
  19.1254795  64.6838951  57.6536560  15.3388727  26.2400007  35.3997636
  15.7532108  25.4073095  35.6259966  15.4560184  26.7850232  36.1778784
   4.9609914  69.9261379  32.5372338   5.8338982  70.2991819  32.4143434
   4.6688676  70.2728415  33.3802605   0.5602771  39.0209627  67.5750589
   0.9289588  39.9029636  67.5262833  -0.3870369  39.1576648  67.5868797
  12.7044308  62.5215483  37.4601030  13.4003282  62.8554821  36.8940234
  12.0299208  62.2140694  36.8545246  50.6843519   3.7072542  38.8831186
  51.3496399   3.9075315  39.5415401  51.1685610   3.2831332  38.1746745
  32.6092815  79.6561384  53.2845640  31.9641495  79.0869617  53.7041759
  32.0897961  80.2412796  52.7332211  85.7237434  55.6422091  36.3244629
  86.3768291  55.8198643  35.6475949  85.4698849  56.5075541  36.6453505
  85.9615135  62.3034000  18.6284292  86.1325455  61.6492939  17.9508400
  85.6476688  61.7962551  19.3771207  65.9241724  46.4476061  33.2236004
  66.6283703  46.8822384  32.7425289  65.1344872  46.6399670  32.7180028
  13.0313897  75.5213881   6.0547358  13.5800254  74.7374344   6.0801971
  12.1504736  75.2037764   6.2530828  78.5227442  68.6197186  17.6273048
  78.6618853  69.4708061  17.2119498  77.7489948  68.7449694  18.1767178
   8.3024311  69.3264723  39.1306210   8.3006406  70.0538111  39.7528815
   8.9893270  68.7406969  39.4488549  24.9299908  65.8475113  52.9329014
  25.2833128  66.7339945  53.0073357  24.2934084  65.7828379  53.6448097
  28.3093357  32.8214788  67.8907204  29.1346478  33.1402588  67.5253868
  28.1269574  33.4120727  68.6215878   4.2281187  80.5616760   4.7061935
   4.6849313  80.7858753   3.8954610   4.5218247  79.6734715   4.9088401
  42.6473665  61.1369991  17.2333384  43.3794737  61.0069370  17.8361106
  42.0101452  61.6440964  17.7363622  22.9555035  58.5848904  55.1333284
  23.4302163  57.7925062  55.3843403  23.1441021  58.6918736  54.2010117
  60.8547211  58.5932350  49.0910339  60.1850653  58.8609362  49.7204208
  61.6501570  58.4958696  49.6145153  42.1632862  15.3590941   8.4939700
  42.9852915  14.9001968   8.6670226  42.0685148  15.3299022   7.5419205
  69.1845703   8.2958078  13.5304046  68.8461733   9.0821308  13.9586723
  70.1214695   8.4631407  13.4281468  29.1454124  10.3425050  69.6638489
  30.0641227  10.5836320  69.7824192  28.9420342   9.7940230  70.4215002
  74.1601419  12.2540772  31.2886405  73.4220171  12.1162677  30.6949973
  74.7526026  12.8293669  30.8046293  45.3871822  55.5772018  31.3276005
  46.1584139  55.1860619  31.7380190  45.4519892  56.5092945  31.5355206
  21.1561942  18.6033440  15.0938964  21.6210747  17.8609312  14.7079670
  21.7971897  19.3142271  15.0925469  60.9397030  40.8124542  43.1738234
  61.3813066  40.0865602  43.6146164  61.1120701  40.6681538  42.2433949
  65.4424715  43.7310743  33.8467336  65.5996513  44.5093775  33.3121562
  66.2681055  43.5874605  34.3092656  10.7193756  51.4607811  48.3224821
  10.6155562  50.7243443  48.9250708  10.9393895  52.2023869  48.8862610
  87.6589203  52.7989388  57.3301172  87.1923447  52.0432186  57.6870823
  87.6736069  53.4322071  58.0477476  45.2443790  51.8981743  33.7922859
  45.4691362  52.6555681  34.3327260  44.3666363  52.0910835  33.4627604
  82.0428181  10.2006638  39.2400694  81.7847347  11.0781205  39.5223641
  82.9788208  10.1521623  39.4344354  76.7707443  58.4988737  71.3957691
  77.1338081  57.6348400  71.2011814  76.3143826  58.7530851  70.5936861
  78.8455200  30.6806350  32.0503473  79.3759775  31.4578748  31.8749976
  79.3754196  29.9513888  31.7284226  62.1648567   5.8278590   0.5463867
  62.0210638   5.7452232  -0.3963347  63.1096368   5.7191116   0.6550055
  19.6868730  29.5871162  29.5420265  19.6729267  28.6719465  29.2618442
  20.6052423  29.8464704  29.4674325  79.5121288  56.9932985  59.2825222
  79.8100471  57.5897455  58.5957003  79.4329929  56.1453199  58.8455963
  35.9162140  39.9384665  27.7058315  36.2442613  40.3330088  28.5138869
  36.1283445  40.5764437  27.0244956  21.2589312  66.4220476  13.3138764
  21.6006136  66.0252666  12.5125968  21.9986320  66.4102221  13.9212751
  23.8329649  71.1341143  37.2521710  23.1893587  70.4792356  37.5226116
  23.4059620  71.9738531  37.4216986  40.5316496  41.0771799  19.1808319
  40.7390261  40.1476383  19.2766571  41.2767649  41.5306854  19.5749986
  75.5736399   1.5601596  33.2404590  75.7057190   2.1125251  32.4699545
  76.0678148   0.7625935  33.0509520  16.6136348  51.9226074  13.4821272
  17.1838593  52.5677252  13.9003336  17.1032798  51.1016750  13.5326505
  11.1843312  37.2422290  27.1038413  11.4619231  37.9968143  27.6232386
  10.2806103  37.0832896  27.3763418  21.6099477  64.0886211  31.9814014
  21.6968918  64.4265461  31.0900664  22.5101376  64.0140963  32.2981644
  78.7155676  69.4767189  31.3385868  78.8878202  69.4031572  32.2772813
  79.5607710  69.7154522  30.9579659   5.7368290  53.9715433  66.1388683
   5.7548028  53.8076878  67.0817661   4.9109215  53.5873842  65.8447075
  75.3403854  75.7343912  54.3625927  76.1143827  75.1753473  54.4306564
  74.6080732  75.1220226  54.2921543  33.2177258  64.3023252  23.3498764
  34.1615534  64.3952560  23.4794235  32.8663588  64.1753578  24.2311549
  83.9386654  35.9777212  32.6999092  84.4179153  35.4387403  33.3292341
  83.6783791  36.7528009  33.1976390  23.5398221  57.7472782  34.5670342
  23.4747958  56.8035603  34.4207478  23.7393260  58.1102324  33.7040782
  63.1371975  34.3679500  38.1119370  64.0129995  34.4616032  38.4866834
  63.0333567  33.4258318  37.9782867   5.6989729  63.9614487  38.7790155
   6.5095377  64.1062784  39.2671132   5.4230064  64.8369598  38.5078144
  12.9663742  54.3563366  69.4167709  13.7536955  54.8992777  69.4563389
  12.3207879  54.9028921  68.9687490  76.3348818  24.0718365  34.4647217
  76.8187761  23.3894682  33.9994740  75.8907080  23.6086178  35.1749110
  21.6542673  65.2865171  45.1288366  21.6167521  64.4109392  45.5137873
  22.3575783  65.2337027  44.4816923  10.8657801  75.6992579  35.1749921
  11.3586891  76.4848661  34.9381542  10.3620219  75.4866505  34.3893361
  61.6617918  71.8636513  16.7572689  61.7779779  72.0136929  17.6954699
  61.0243464  71.1514425  16.7057419  83.1168365  69.2862511  26.1487126
  83.8995171  68.7398577  26.2201476  83.4442616  70.1833582  26.2137008
  86.6655064  26.3680840  58.7375498  86.3490963  26.7852139  59.5388699
  86.4127254  25.4494858  58.8298082   6.4462960  39.9105906  65.5969048
   5.6936502  39.4000125  65.8953428   6.1888522  40.2346134  64.7337914
  19.2815304  40.4048109  65.2856207  18.9220953  40.4893780  66.1687326
  20.2303624  40.4083920  65.4118538  64.0139675  78.7132883   4.7244719
  63.9114666  78.9296007   3.7976855  64.8265171  78.2088947   4.7642484
  47.7674389   5.1267242   3.1596240  47.2462749   4.3275011   3.0830508
  48.4351540   4.9156493   3.8121849  17.2481918  66.4891005  50.9221888
  17.8438163  67.2186041  50.7510662  16.7989564  66.7315626  51.7319012
  32.2190237   6.0026681  10.3778565  32.4472022   5.5128288  11.1679351
  32.4775958   5.4284471   9.6569943  31.9799614   5.1736408  68.0265284
  32.0565748   4.2343158  68.1939507  32.7084899   5.5632877  68.5099030
  16.0823023  29.0216494  71.8452406  16.8403757  28.5363889  71.5195417
  15.5351245  29.1583848  71.0718489  30.1631069  23.0002022  32.8024340
  29.6835327  23.8285875  32.7987528  29.9469090  22.5945520  31.9628263
   0.5286317  45.1765728  36.3673472   0.2709742  46.0984325  36.3715410
   0.3529382  44.8828411  35.4734302  43.0865431  61.0063362  36.9529104
  43.7079906  60.2784157  36.9658113  43.5908413  61.7458105  36.6136479
   3.1806225  32.5276899  38.5313344   2.8622627  31.7703176  38.0401468
   2.7868000  33.2811618  38.0915451  76.8365192  13.9287698  11.7860401
  76.6190052  14.8514938  11.9183207  77.7240467  13.8397419  12.1333206
  66.4262772  12.2208726  50.5316210  65.8680105  11.5980649  50.9971142
  66.0853910  13.0801499  50.7799625  64.6292210  29.4489288  31.3369513
  64.5769739  30.2965832  30.8953810  65.1181650  29.6271110  32.1403313
  64.6080446  45.4325485  37.8216100  64.7073078  45.7622623  38.7147331
  65.2397585  45.9365606  37.3086381  13.8220155  53.2573414  29.6480298
  13.4802389  54.1130829  29.9071074  14.4168341  53.0123997  30.3568506
  62.2064209  24.9656892   3.0410603  62.3520613  24.2248130   2.4527393
  62.9981709  25.0047469   3.5775644   8.2696962  56.5855074  43.1000519
   8.1081247  56.2470865  42.2193718   8.5473859  57.4909973  42.9614735
  26.1339355  68.6918783  31.8412733  26.4338803  67.7991819  31.6699219
  25.6264925  68.9272881  31.0645390  13.1642985  36.7412138  32.9707670
  13.3779049  37.0167303  33.8622236  13.7180102  35.9756064  32.8175354
  61.7928457  11.0707319  12.6553309  60.9934807  10.5511236  12.5701404
  62.0378876  10.9839416  13.5765553  17.6628315  62.0897722  49.6211386
  17.1203876  62.1158981  48.8329077  17.1091318  62.4656725  50.3054953
  16.8058789  80.2642536  57.0062542  16.5063536  79.5214319  56.4820957
  17.4665272  80.6913090  56.4609098  15.2727985  64.5718002  45.7149649
  16.0824490  65.0484133  45.5318356  14.6639419  64.8645258  45.0368547
  82.7353573   4.1158399   5.2666849  82.9451942   4.8543149   4.6949705
  83.3285427   3.4191868   4.9855462  45.7067299   0.6607667  23.6946988
  45.6114912   1.3419664  23.0290198  46.6086960   0.3553861  23.5975528
  14.3767202  46.3121796  62.3383045  15.3203273  46.2418461  62.1937704
  14.0022540  46.3559008  61.4584780   3.2976758  43.6855984  42.4987555
   3.5917342  43.5717106  41.5949917   3.1984329  44.6321487  42.6008558
   0.0687046  70.0290012  19.7453845   0.2113997  69.3296766  20.3832030
   0.5452864  69.7432423  18.9659989  61.8257284   2.0264764  46.8954992
  61.4830780   2.6076874  47.5744820  62.4198389   2.5775182  46.3859701
  20.4460835  66.6742849  49.7515535  21.3933969  66.6568708  49.8876762
  20.1637125  67.5030279  50.1384401  81.5102386  42.0551682  36.8271542
  82.3564243  41.8866110  37.2416449  81.0704041  42.6646900  37.4198294
  22.0520306  45.3336620  25.0032759  21.1196089  45.5364084  25.0788927
  22.0798850  44.5167637  24.5051479  39.6167421  27.8810716  11.0313475
  39.3784308  28.8077521  11.0578632  40.4411268  27.8595805  10.5453825
   0.4744228  57.4669266  41.8464136   0.6710181  57.1448755  42.7261066
  -0.4208325  57.8000593  41.9078302  17.2052956  68.2859087  57.2672701
  16.4601398  68.0964804  57.8374386  17.9215610  67.7630377  57.6275539
  33.5517979  24.4673848  50.1791430  32.6888752  24.8712349  50.2713346
  33.4556532  23.8621187  49.4438553  22.5363231  72.5720263   4.5215559
  22.9063201  72.6820230   3.6456367  22.0331144  71.7594862   4.4686967
  86.4425659  60.1939201   4.1957265  86.5444851  60.3851986   3.2633883
  87.3204327  59.9475193   4.4870439  30.0007844  47.3546505  70.3422832
  29.7060061  47.8308344  71.1185455  30.9449553  47.2567606  70.4655313
  83.6888695  67.6384306  28.9529419  84.3927574  67.7770710  28.3192706
  84.1376400  67.5489426  29.7936702  43.6741066  81.8027973  70.8244085
  44.1669178  82.0890331  71.5934610  43.6794853  82.5612926  70.2405500
  83.5859871  64.1318655  41.4077759  83.7838459  64.3670416  40.5012560
  83.1741619  64.9145699  41.7738438  31.2330484  56.2449551  38.9968967
  31.9630575  56.2129736  38.3785963  31.2865543  57.1179962  39.3857050
  10.3005099  82.1430588  29.3941736  10.1681781  81.4261436  30.0144601
  10.0642169  82.9305458  29.8843265  30.5590367  34.2832041  50.4923964
  30.3285933  35.1794600  50.2477503  31.4972687  34.2198586  50.3136778
  48.7505627  14.6418238  33.0692601  48.9208126  15.3161061  32.4115443
  48.6914206  13.8282394  32.5684476   5.3758752  53.5165691  23.7379932
   4.6395692  53.2116461  23.2077956   5.1037085  53.3549166  24.6413350
  18.8334572  74.6399784  58.0078363  18.8445067  75.5958843  57.9593658
  19.7533369  74.3945312  58.1068802  28.9207220  30.1727414  60.9127522
  28.4637499  30.6553531  60.2239180  29.7466516  30.6428623  61.0270309
   0.3408232  60.1177359  34.6094918   0.6127188  59.5208406  33.9123416
   0.1351663  60.9360504  34.1575003   7.9479021  52.5087643  34.0944004
   7.4891335  51.6775131  33.9728332   8.8147110  52.2593212  34.4147921
  70.2681541  45.4716825   2.7406260  70.5611467  44.9087524   3.4572175
  69.5794678  44.9680758   2.3066635  61.7628336   8.7642020   9.0995967
  61.2971973   8.1828630   8.4983814  62.3063898   9.3104267   8.5317796
  14.9936950  50.0216150  52.4494171  15.7974613  49.8180437  51.9711351
  14.7125530  49.1822147  52.8135586  23.9061379  11.9559133  16.0958326
  24.0644407  11.4327872  16.8816507  22.9849744  12.2085845  16.1578584
   9.4685990  61.9085646  29.3881369   9.9888790  62.4622631  29.9703360
  10.0319493  61.1563635  29.2062926   4.0583169  82.4828148  43.0727816
   3.3730423  82.5896263  42.4130678   3.6989534  82.8921890  43.8598633
  41.2464571   4.5113939  15.0730050  41.3228464   4.0458798  15.9058881
  40.3050041   4.5464632  14.9036920  42.6204300  -0.0750043  60.9672117
  42.3248482   0.6982955  60.4867268  43.5756683  -0.0155814  60.9523535
  29.2346621   4.2748234  36.8711782  29.3189645   5.2103406  36.6869736
  29.8935866   4.1028321  37.5438380   0.8566532  41.1131144  36.2946725
   1.0458241  40.1757002  36.3359785   0.0103630  41.2061739  36.7321253
  56.6150331  25.5328655   5.5277723  55.9804535  25.7803679   6.2002933
  57.2918463  25.0507927   6.0029161  81.7111492   1.0703659   9.7631580
  81.8001652   0.3903340  10.4308891  81.3523388   1.8226753  10.2338159
  35.7821226  57.9794693  23.1639028  35.2419782  58.5423040  22.6092029
  36.6637015  58.0591536  22.7996182  38.0573392   7.6103151  57.6144123
  37.9848504   6.6717798  57.7879906  38.8988042   7.7071404  57.1685505
  18.2847679  46.5959835  43.1072712  17.5356233  47.1485806  43.3300924
  18.2267487  46.4850998  42.1582890  82.8459549  40.6646061  14.8520625
  83.3990192  40.9111118  15.5934060  83.0450821  41.3145447  14.1781473
  31.6875410   3.8607168  59.3641329  31.2314820   4.1783404  60.1434660
  32.4072766   3.3309755  59.7070408  81.2905312  38.9266109  49.2812061
  81.0218143  39.1365862  50.1755953  82.1580410  39.3213892  49.1928339
  55.3003836   5.1093554  44.2433643  55.5580091   5.8519757  43.6971235
  54.6606350   4.6331957  43.7139988   2.8916457  51.2110329  13.7379682
   2.1131912  51.7015219  14.0019095   3.5236052  51.8834734  13.4836316
  30.1459694  15.7907748   8.6043173  30.7283854  15.1167214   8.2540709
  30.4186654  15.8927131   9.5161700  50.5197811  64.4046640   0.6021709
  51.2964916  63.9439678   0.2848167  49.8034143  64.0632677   0.0669161
  12.9591215  66.2751055  11.2513399  12.9151011  65.4158688  10.8318067
  12.4680209  66.1692619  12.0661104   7.5432622  40.9705162  35.6562304
   7.3048371  41.3774538  36.4891696   6.8119586  41.1729527  35.0727534
   8.4150493  41.0846424  69.0949059   7.7085650  40.8480930  69.6958685
   9.1491812  41.3114548  69.6657276  69.9402571  68.4740114  25.2903628
  70.3937054  68.9317942  25.9982133  69.1402292  68.1392431  25.6954789
  75.7737875  69.0429783  61.5835142  75.1969528  69.7827387  61.7739010
  75.2242708  68.2704973  61.7159224  79.3931389  13.4542239   3.0525106
  78.9395142  13.5836196   3.8854036  79.1535997  12.5670469   2.7846164
  82.3163509  72.2939730  34.2658019  83.1016922  72.5840855  33.8017750
  81.6118336  72.3846149  33.6241865  14.4200194  44.6094227  30.9776926
  14.7415078  44.6249866  30.0762296  13.5431826  44.9898195  30.9258771
  32.0543528  41.3715029  55.5611277  31.6669536  42.1013927  56.0442591
  32.6783967  41.7839479  54.9638891   4.3993741  61.8164444  62.1200037
   4.6906057  62.6150274  61.6799116   3.4732533  61.7405128  61.8902969
  60.5193853  47.7703810  28.1092405  59.9435329  48.2176590  28.7293792
  60.1945257  48.0334616  27.2481441   5.7153660  66.5203667  67.1273613
   6.6297418  66.2835550  67.2825050   5.7252228  67.4741697  67.0474148
  20.5032110  70.5055618  54.4583321  21.2986374  70.1085043  54.8131227
  19.8117959  70.2394104  55.0644159   1.4329197  26.5043569  45.6295633
   0.6874451  26.7669272  45.0896025   1.0405701  26.0481691  46.3740015
  24.5045757  79.9601460   9.2546642  24.1629744  79.0688467   9.3262464
  23.7762117  80.4677868   8.8968641  12.1718264  28.7979722  48.6980009
  13.1170785  28.6845207  48.7972832  11.7894447  28.1613064  49.3018818
  40.1015377  69.0976334  59.3756723  39.4735694  69.5845509  59.9093342
  39.5804071  68.7455654  58.6540794   6.5623945  75.6954145  52.1873331
   6.0948914  76.1256027  52.9033041   7.2351569  76.3250399  51.9281101
  42.6069212  37.8243923  68.0046940  42.8919029  37.6017404  68.8909483
  43.3473778  37.5843787  67.4476099  26.5171266  45.5759525  64.9803305
  25.9263730  46.0236311  65.5859900  27.2411203  45.2757883  65.5298471
  10.2835238  55.5098724  48.3024883  11.2305462  55.4598331  48.4323931
  10.1813364  55.8492470  47.4133253  33.5768533  65.1505613  57.4141169
  34.5234609  65.1853085  57.2764254  33.2623911  66.0102129  57.1342134
  63.5253000  62.4299049  56.1069965  64.3072939  62.9689550  55.9881115
  63.7110519  61.6275454  55.6192017   8.4002173  62.2730970  45.9292650
   8.3767784  61.4315176  45.4738235   9.2516804  62.6456928  45.7003260
  66.7198229   4.9629629   5.0012344  67.2766447   5.6365836   4.6108261
  66.2306166   5.4225200   5.6836677  38.6781979  69.9076319  47.8204679
  38.2776856  70.4143906  47.1140528  38.8954210  70.5579710  48.4883785
  65.7168055  47.1687126  42.7942228  66.1570740  47.8737783  43.2688570
  65.3237534  46.6278601  43.4792185  72.8835297  57.2921753  45.4649019
  73.3613443  57.2722864  44.6357298  73.3289003  57.9634094  45.9819412
  76.4724302  55.6973934  58.4682178  77.3817873  55.3999424  58.4967995
  76.1480951  55.3950787  57.6198959   9.0206891  77.1054077  41.7275047
   9.6133852  77.8366995  41.9011545   8.1642759  77.4163246  42.0209646
  57.2731590  13.2004404  20.9132719  57.9051590  13.7587941  21.3660979
  56.8577290  12.6940048  21.6112471  76.8111467  65.6511879   5.4818004
  76.1629200  65.1283407   5.0099224  77.1543360  66.2570000   4.8249555
  48.3749723   3.1920311  10.6503820  48.6819410   3.0665210  11.5482974
  47.7886343   2.4521807  10.4920912  14.1617489  68.6874056  45.4422855
  13.7394202  69.5230198  45.2432346  14.7328222  68.5229254  44.6919203
  18.5453904  80.8433723  48.4838295  19.4082177  80.8631134  48.0698586
  18.5295844  80.0162125  48.9652634  11.6320193  72.3403168  57.0222950
  12.2555172  72.9356623  57.4382782  11.5095150  71.6375637  57.6605463
   2.0904808  12.8691339  38.5760021   2.2570331  13.7253821  38.1818819
   2.7218112  12.2851455  38.1557512  31.1710954  24.8549819  23.8353848
  30.9540057  25.6871200  23.4150863  31.4724994  25.0999784  24.7102380
  62.3160315  43.5328245  65.6858540  63.0970287  43.3557224  66.2101698
  61.8996525  44.2772341  66.1202669  72.5562429  42.4821997  60.3580236
  71.6548586  42.1604729  60.3732491  72.5974989  43.0425215  59.5830584
  31.7284465  78.9975882  16.1954629  31.5097952  79.8552370  15.8309591
  32.3260689  79.1897440  16.9180667  19.3378448  77.2636223  66.6997433
  18.6450863  76.9641876  67.2885180  19.5806658  78.1266832  67.0349884
   4.3740898  54.2145824  36.1261845   4.6949705  53.3128214  36.1163092
   5.1030165  54.7319460  35.7837963  47.5066185  75.1989555  66.9423294
  46.6308451  75.5500126  67.1036291  47.3982096  74.6232986  66.1852980
   3.9722043  16.7507350  69.5539522   3.1342515  16.9593656  69.1409874
   4.6294680  17.0974684  68.9506197  69.4047213  75.6312037  60.8493471
  68.9284420  76.4596033  60.7932377  70.3138447  75.8644056  60.6613493
  11.3425887  76.7540884  50.9711504  11.2255955  77.0924139  51.8588877
  11.6344118  77.5109100  50.4629230  28.7075353   6.6059470  57.5221586
  28.7857556   7.1575767  58.3005047  29.5939565   6.2778348  57.3710680
  52.7301455  58.7147236  54.5931864  52.7794600  59.6014738  54.2361498
  53.5579824  58.3074522  54.3381262   6.3911569  82.4223614  65.8594751
   7.1781361  82.7003956  65.3908634   6.6973346  82.2218609  66.7439413
   3.0747283  53.6190605  56.9810343   2.7037454  52.7447987  56.8615770
   2.3652323  54.2151403  56.7411613  24.2091537  44.4486141  35.4246020
  23.8059115  45.2966595  35.2390051  25.1007056  44.5279646  35.0853825
  20.9988475   8.2298160  29.7223043  21.2047791   9.0089130  29.2057467
  21.4153147   7.5106061  29.2474103  16.3770401  77.3724604  56.3412189
  17.0885372  76.8938780  55.9158182  15.6663287  77.3647976  55.7000780
  22.4220037  56.6827774  21.5477490  21.7167306  56.1776733  21.9523358
  22.5744867  57.4085188  22.1529555  44.1669559  74.1074705  29.2326903
  43.7374592  74.4750834  28.4602761  44.3824863  73.2091427  28.9821148
  18.4282064  73.6780548  28.9884806  17.8461313  74.0042210  29.6748042
  17.8456354  73.2378817  28.3695412  56.2143564   9.6193177  43.1350660
  56.9059181   9.7685450  43.7798166  55.5692530  10.3037143  43.3130217
   1.9630751  56.2146664  34.3493009   2.6387501  56.6101694  34.9000049
   2.0700039  55.2722836  34.4785976   6.0013431  69.4751120  41.4284563
   5.8524626  69.0359354  40.5910873   6.6922408  70.1118279  41.2454653
  87.3544884  65.5175686  61.2597799  87.2330284  66.1538649  60.5550718
  88.0768490  65.8704853  61.7792654  48.9364624  60.4569674  42.4963760
  49.5581579  60.4931259  43.2233000  49.2866945  61.0709286  41.8509150
  54.2643690   3.2912600  15.4217553  54.7603369   2.5596687  15.0543010
  54.6367979   4.0673524  15.0031757  48.2020760  61.6189909  58.2100964
  48.7711573  61.3543463  57.4873638  47.3384380  61.2830400  57.9702902
  20.8177185  71.8826914  12.1001327  20.7268739  71.9720411  11.1514521
  20.8019972  70.9381247  12.2543383  43.4715509  23.2345438  28.0279994
  44.2378712  23.4184885  28.5712743  42.8282309  22.8710890  28.6364985
   8.2854676  75.5800104  27.8629661   7.4408001  75.9158897  27.5630403
   8.7565100  76.3551283  28.1688142  40.6606531  45.4057837   8.2846248
  40.4561567  44.4777727   8.3995533  39.9088812  45.7596302   7.8093708
  12.2241378  69.8636866  10.4412067  12.8307021  69.3112898   9.9480855
  12.5373054  69.8162413  11.3444829  86.5251732  41.8249655  51.9897747
  86.3832092  42.2785521  51.1589098  87.4433613  41.5558910  51.9619226
  12.8573644  69.8349285  22.8797674  13.6588681  69.4182396  22.5632310
  13.0235147  69.9996376  23.8079357  71.0505104  26.3952112   6.7490989
  71.3160419  26.6610289   5.8687210  70.0960779  26.3378787   6.7043298
  85.5423546  77.3693466  30.6348491  86.2267590  76.7985106  30.2856135
  86.0112572  77.9961061  31.1857843  80.7668877  49.8434496  12.1332502
  80.0802326  49.9416828  11.4736390  81.5756989  49.7657585  11.6272736
  30.6904459  62.5663567  53.9698792  30.6255674  63.1354570  54.7367859
  31.1168814  61.7735863  54.2953110  87.5448418  22.3248792   6.7042655
  88.1801796  21.8969226   7.2782320  87.3764992  21.6840982   6.0134012
  26.8001914  63.8757229  53.6537552  27.7114034  64.1468048  53.7652826
  26.3724566  64.6325874  53.2532072  79.9964952  63.4500694  66.7388153
  79.7908306  64.2990780  67.1301222  80.2973652  62.9145622  67.4729443
  68.6193848  12.0700085  60.3585720  69.5383549  11.9180369  60.1380539
  68.2193613  12.3528600  59.5362568  52.9353380   7.3558331  12.4604654
  52.6576900   8.0717432  11.8889618  53.1534815   7.7819127  13.2893825
   9.2726892  69.1810751  61.2104845   8.7935781  68.4204435  60.8816624
  10.1829863  68.8888502  61.2573290   1.6874404  32.2424102  33.1512904
   1.7453463  32.9184365  33.8264704   2.5798196  31.9051528  33.0728817
   7.2415936  78.2756376  54.3765354   6.3437557  78.4295511  54.0825462
   7.5496805  79.1346931  54.6652126  24.7916579  63.2603836  56.9395924
  24.4411564  63.6833668  57.7234745  24.1045666  62.6516294  56.6683817
   2.0789076  49.8785639  19.5894134   2.3235619  49.1363144  19.0367460
   2.1465243  49.5438910  20.4836464  74.3143797  55.4296732  12.2624373
  74.5284939  55.2824783  13.1836975  74.4622183  56.3658953  12.1288049
   8.0346876  82.2590160  47.3564148   7.1826100  82.6530266  47.5433683
   7.8257424  81.4233780  46.9389343  87.0731735   2.3272140  70.4772902
  86.1581707   2.5825927  70.5946636  87.2664165   2.5413373  69.5645809
  45.4086685  58.8346434  22.2336149  45.0014448  59.6783161  22.4301076
  46.2474918  58.8605642  22.6939821  81.8102264  56.8650675   1.4723156
  81.9535637  56.0214138   1.9011830  82.6647949  57.0973253   1.1090052
  47.1790314  79.4840288  36.6310191  47.3527002  78.9264965  37.3894596
  48.0072117  79.9368525  36.4719725  41.8093204  61.0447693  53.9029789
  42.2230816  60.7733870  53.0836010  41.3895750  60.2506733  54.2338276
  56.0810471  12.2176862  32.1993947  56.3624525  11.3034511  32.1645021
  56.5895557  12.5976300  32.9158425  84.2695808  81.2608242  33.3342838
  84.3499851  81.0795593  32.3978519  85.1708412  81.2596703  33.6567211
  40.4861593  73.8763475  47.8926277  40.0661707  73.2960749  48.5275507
  41.1795473  73.3435678  47.5032854  23.6802721  57.3977089  43.2899332
  23.2536268  56.9461250  44.0181351  23.6501646  56.7698097  42.5680828
  16.1733878  76.8187141  61.6019106  16.4467621  75.9054852  61.5152693
  15.6924927  77.0023632  60.7949114  75.5315018  49.8471212  60.7807064
  76.1780119  50.5516672  60.7374239  75.3038263  49.7876406  61.7085314
  73.9767170  71.0025740  61.7471409  74.3968201  71.3562107  60.9631205
  73.1257248  71.4395189  61.7806578   1.5732004  56.8711281  53.5453272
   1.0688886  56.1598539  53.1503677   1.0351422  57.6508856  53.4085751
  81.0160255  56.7958832  49.3692827  81.4285851  56.8366480  48.5065222
  80.7783890  55.8750296  49.4778681  84.3219757  27.9403567  49.0490103
  84.5051003  28.6334825  49.6832609  83.4688187  28.1712723  48.6815262
  15.4210103  38.1561136  29.4545984  15.8400750  38.1184292  28.5948324
  14.6933830  37.5371742  29.3937230  61.5707302  10.9122252  62.1719503
  60.9478235  11.4278769  61.6597748  62.1772623  10.5556691  61.5229321
  44.7610426  81.4185238   2.5801876  45.4670382  81.9476032   2.2088628
  45.1557684  80.9924698   3.3410415  46.0512972   3.2788867  44.9631882
  46.4136028   2.7028638  44.2900133  46.7440462   3.9181310  45.1296043
   6.1593372  32.8210974  37.0942783   5.9254855  31.9722462  37.4697757
   5.5345494  32.9474258  36.3801980  13.1475675  64.4569016  69.1718626
  13.2705629  65.3945589  69.0238714  12.4870276  64.4081116  69.8629045
  47.5771856  74.1894579  11.8831587  48.1828451  74.8380613  12.2419441
  46.7801046  74.2927456  12.4029875  33.9276671  13.0095899  48.5836744
  33.8057780  13.4027100  47.7194786  33.1091213  13.1893277  49.0461779
   1.4508569  66.0538960  51.6654062   2.0660533  65.9009695  50.9482050
   1.5080459  65.2637196  52.2026062  48.4916925  82.9689121  53.3871508
  48.0610991  82.1509075  53.1387854  49.0827751  82.7220821  54.0984344
  42.3173618  76.0116816  30.1268315  42.9056072  75.2593088  30.0625896
  41.5069056  75.6519556  30.4873729  83.5416031  50.0493050  23.4110856
  83.4449959  50.0025463  22.4599218  82.6566505  50.2198029  23.7336159
  78.3054352   9.8962623  19.1401613  79.2259073   9.6420622  19.2060316
  78.2327223  10.3122640  18.2811570   8.4853798  67.1501160  47.9125881
   8.7735039  66.2917948  47.6019430   7.6844943  66.9701719  48.4049654
  22.7045226  82.6575947  57.9784489  23.6042356  82.9574203  58.1082726
  22.7791858  81.9425106  57.3465490  78.4084988  48.4554577  54.3725967
  79.2824316  48.3208084  54.7391176  77.8117847  48.2047272  55.0777912
   4.0239567  13.4843588  25.3141427   3.3418208  13.4490633  24.6435618
   4.8060745  13.1459582  24.8782420  54.3602085   9.0135062  31.1421752
  54.1948366   8.0792964  31.0151410  55.0553751   9.2207789  30.5176663
  25.3533936  61.4662361  53.6105728  25.8548212  62.2789097  53.5445404
  25.8715963  60.8248901  53.1243896  21.4074588  39.2669439  10.0593531
  22.3407364  39.2642236  10.2719951  21.2914538  40.0351191   9.5001709
  11.9308960  65.3211927  36.3790941  12.0063734  64.7973442  37.1766639
  11.1545575  65.8628798  36.5208960  78.0736494  71.2381983  57.0956564
  79.0027237  71.1522675  56.8819666  78.0641317  71.6107130  57.9773426
  80.9782791  40.3313780  46.3754129  80.9597111  39.7997260  47.1711683
  80.6934452  41.1995459  46.6606903   0.9373336  81.5918636  29.0231800
   0.4909742  82.0260525  28.2962155   0.4571838  81.8738174  29.8017621
  25.6320882  37.6473665  47.5070000  26.4615059  37.2933054  47.8278399
  25.1072931  36.8749619  47.2967243  39.2217398  75.2780247  24.7840095
  38.9785409  75.1701975  23.8645220  38.5633659  74.7777081  25.2661514
  56.4126539  50.2307034  64.9260473  56.4159393  49.7891855  65.7753325
  55.5200911  50.5636215  64.8326254  57.1832657   5.5187136  61.6817951
  56.3345861   5.0768197  61.7083883  56.9830894   6.4338177  61.8786383
  68.1730270  23.8665438  13.8159144  68.5919952  23.1214857  14.2467105
  67.6910782  23.4803843  13.0845881  30.3988433   0.6081662  53.5187292
  30.5181694   0.5391715  52.5715065  31.2871718   0.5840398  53.8744259
  85.6806469  46.8638611  42.8790998  86.1180210  47.2737312  42.1328211
  85.1647282  47.5685024  43.2709408  70.1797342  29.7538519  70.1077795
  69.4071007  30.3188872  70.1099825  69.9141884  28.9869809  69.6002102
  23.5613847  74.8195314  30.0029421  23.2215834  74.8266459  29.1081166
  23.3063436  75.6690741  30.3627563  17.9728580   3.7278271  56.4350605
  17.8484523   3.2412815  55.6201839  18.8316154   3.4482384  56.7522335
  77.5088167  23.7268281  23.0885243  77.3600197  22.8022003  22.8906488
  76.8616343  24.1923118  22.5587010  36.9920325   3.4161717  48.6688566
  36.2918949   3.6032528  49.2941856  36.6311646   3.6747608  47.8208351
  19.8482120  60.6845093  25.9674239  19.9604380  61.1839056  26.7762756
  20.6182742  60.1173925  25.9272861  21.8801928  28.5834026  15.7478833
  21.1215353  28.0378342  15.5404520  22.3009157  28.7400055  14.9024844
  62.0738840  75.4361153  30.5466533  62.9080963  75.8797503  30.3933048
  62.0690012  74.7121000  29.9205446  25.8314824  81.3536263  65.1433659
  26.3275337  80.5822468  65.4174757  25.8464360  81.9315434  65.9062672
   3.3381823  72.3654175  50.7862139   3.9926672  73.0516481  50.6559515
   2.7350372  72.4668026  50.0498915  34.0285730   7.3739165  33.4201145
  33.3530712   7.9604441  33.0796528  34.3292618   6.8847740  32.6542449
  72.1019936  50.9257746  31.9628620  73.0249548  50.7196426  32.1107960
  72.0582485  51.8804789  32.0163274  13.8716829   1.8335503  41.9478989
  12.9281163   1.7044583  42.0440674  14.1380227   1.1805770  41.3006544
   6.5531337  78.2470846  32.9240704   5.9364831  78.8356304  32.4886584
   6.1649978  78.0873060  33.7843347  36.6267157  20.5574393  60.2544546
  36.1659765  20.1738977  59.5082331  36.5052104  19.9243951  60.9620762
  63.0529785  73.5883093  57.7235317  63.0076694  72.6375294  57.8245068
  63.8104391  73.7331200  57.1565104  30.0780201  74.4724512  27.8644562
  29.4133115  75.0067377  28.2991266  30.0502920  73.6339426  28.3252883
  39.9269962  63.9743471  41.6060829  39.0815306  63.8759661  42.0439625
  39.7294831  63.8629484  40.6761265  39.8984385   6.9898790  33.7361836
  39.7705078   7.9083532  33.4989691  40.7669878   6.9649523  34.1377258
  25.0457311   3.2384691  40.4461861  24.4430637   3.9681280  40.3025866
  25.7362056   3.3665627  39.7957468  32.6002979  19.5972300  66.7548180
  33.0087042  19.4793546  65.8971786  31.6762090  19.7539210  66.5605497
  41.3543558  74.6252346  59.1749668  41.0897875  75.5109501  58.9264822
  40.5716419  74.2442703  59.5730400  36.7743587  76.4986944   1.8725002
  37.0937371  75.8797550   2.5291151  36.6959453  77.3283052   2.3434910
  76.4157295  64.0971422   3.0981621  75.4681396  64.1805458   3.2047135
  76.6326952  63.2682371   3.5248685   0.8378574  62.1814823  51.1869287
   1.3148268  62.7372456  51.8032598   0.9923191  62.5840998  50.3323698
  74.0109062  51.4953661  69.8121595  74.4997835  51.0862732  69.0981054
  73.5861635  50.7644701  70.2611732  85.6987858  67.8395319   0.2551991
  86.2826920  68.5543776   0.5087348  85.7208729  67.8401804  -0.7017460
   0.3837940  75.6246901  41.1615944   0.1995986  75.7234907  42.0956945
   1.2890279  75.9198999  41.0634375  84.5735836  14.5346427   2.5176653
  84.8711109  13.6320376   2.4035817  83.6198044  14.4819939   2.4563625
  15.7587790  81.4514351  50.5858374  15.9517491  80.5139923  50.6002188
  16.0905361  81.7771244  51.4225531  10.9197688  49.7981167   6.0221922
  10.1383555  49.2850447   5.8163220  10.5804753  50.6418657   6.3208491
   6.0034245  17.0366991  14.8892367   5.9381992  16.3325858  15.5343747
   5.1897836  16.9787633  14.3883741  25.3406096  42.1422815  23.2569742
  26.0008478  42.8315353  23.3294392  24.5103884  42.5869608  23.4279370
  10.7039392  69.6273708  43.1096697  11.3761640  70.1801968  43.5080814
  10.0206232  70.2398491  42.8373098  62.6726913  19.2402339  37.6917887
  63.3839369  19.7498310  37.3036242  61.9606781  19.8699665  37.8045034
   6.6490775  50.2163696  27.7484703   5.7085240  50.0394821  27.7311373
   7.0564032  49.3517447  27.6960945   2.5585121  18.3931994  37.6242018
   3.1460145  18.9009893  37.0645380   1.9014563  18.0405092  37.0241022
  17.9923975  72.9405642  64.8064280  18.8252139  73.3401823  65.0573397
  18.1658578  72.5403404  63.9543915  35.8796668   8.0019057  55.8156061
  36.6977644   8.0554491  56.3096523  36.1541295   7.8204042  54.9167395
  19.6911371  66.9824076  46.5861082  20.4660344  66.5778828  46.1960745
  19.5092285  66.4524364  47.3621655  47.7480936   0.6765115  52.3002338
  48.2901287  -0.0777543  52.0689011  46.9768429   0.2970438  52.7214289
  23.6685705  76.0761499  43.1103039  22.8002810  76.4361095  43.2912350
  23.5594559  75.5854893  42.2956991  85.2752495  68.1433868  49.4984674
  85.3634548  68.8917971  50.0886631  84.8258591  68.4958029  48.7303019
  81.3870049  36.5327716  29.1553044  81.6861534  36.8441391  28.3010268
  81.1340714  37.3276401  29.6248126  39.2364502  14.4462693  55.9577703
  39.9919057  14.9711430  55.6931496  39.4484138  13.5586953  55.6687784
  52.0330238  64.3060970  16.4361763  51.3813353  64.1800642  17.1258521
  51.9682264  63.5169554  15.8983231  79.3369150  42.9458904   4.8679680
  80.1063824  43.1810713   5.3864735  79.6678734  42.8591633   3.9740017
  39.5781994  75.4345465  40.3737402  38.8248444  75.7630444  40.8644295
  40.3221893  75.5644083  40.9618282   7.9685444  47.6054239  60.6236649
   7.9060990  48.0236340  61.4824057   7.2309518  47.9626274  60.1290989
  80.0445461  49.2357826  41.2223148  79.8688364  48.3008432  41.3283396
  79.2507172  49.6661949  41.5398216  55.4960489  49.9376965  58.1699133
  55.2151871  50.4520845  57.4131107  55.0556231  49.0945625  58.0632305
  10.2353323  57.2377872  65.6636810  10.3492713  56.6996241  64.8803329
  10.2156675  58.1368685  65.3358126  39.0261436  20.8118892   9.9574429
  38.8108516  21.6458321   9.5398039  38.3625770  20.2031374   9.6328950
  29.8178935  76.0247326  23.5100484  30.3277349  75.2154970  23.4722638
  28.9611268  75.7528877  23.8391113  49.4550371   2.9149452  51.9359159
  48.8444901   2.2309017  52.2107744  49.0532160   3.2947946  51.1545801
  40.6958914   1.9913310  48.8034487  41.5258837   1.5157780  48.8379955
  40.0340366   1.3338311  49.0176249  33.8391590  52.0935774  18.4621537
  32.9387975  51.8471766  18.6739695  34.1383600  51.4127064  17.8595567
  13.2421839  48.7251520   7.7067351  12.8024304  48.5556746   8.5398769
  12.5482202  49.0452433   7.1303791  42.5513411  52.3708582  43.8088226
  41.8721819  52.9037666  43.3953285  42.1465492  52.0500898  44.6147299
  19.0652657  74.0069151  16.8434465  19.7708380  74.2892027  17.4254382
  19.1315556  73.0520821  16.8322837  37.8134918  60.5787945  60.2408457
  38.4334064  59.9664593  60.6370592  37.6907396  61.2580347  60.9040165
  24.2315412  79.5821190   0.9221182  23.3042741  79.5394897   1.1557668
  24.6912193  79.3047857   1.7145914  13.2717693  53.0094814  21.6218138
  13.5424471  52.1739721  21.2411761  13.1790626  53.5959053  20.8709836
  17.6017189  74.0748024  21.7668819  17.2681808  74.6921730  21.1158538
  17.0346415  73.3082771  21.6826630  61.7607212  54.8827362   2.7335942
  61.2757969  55.4092503   3.3690929  62.5906992  54.6869421   3.1683773
  24.2802715  49.4865561  43.5801125  25.1303172  49.2068863  43.9198732
  23.6449623  48.9468527  44.0505743  46.6401863   8.9775211  34.6246743
  47.0544195   8.6541301  33.8246369  47.1384716   8.5708779  35.3336072
  26.6683030  70.7244492  47.3836136  26.7298841  70.6469011  46.4315510
  26.1834240  71.5372276  47.5268507  31.9080424  63.8813496  25.9088612
  32.1715498  63.0216789  26.2371278  31.0576844  63.7298632  25.4963374
  77.6955414  78.7230301  54.3868208  78.5297537  78.3439302  54.6636009
  77.1329689  77.9670715  54.2186832   1.4423950  69.4737291  67.7470350
   2.0602791  68.9462328  67.2408724   1.8916787  69.6393108  68.5758686
  18.7820506  59.9766636  67.7077961  18.5272169  60.0599527  66.7889118
  19.7388256  60.0017643  67.6942301  85.2990055  19.1238964  57.0727205
  85.1769638  19.4973385  57.9455757  86.2436199  18.9870250  57.0006990
  76.0774326  30.1395464   1.9276415  76.4264059  29.7466755   2.7277046
  75.1869202  29.7950315   1.8603404   7.9978317  36.5369678  32.5534296
   7.8084159  36.2521386  33.4474230   8.2933849  37.4424601  32.6480961
   4.9384701  39.9766135   7.8842509   5.5247951  40.4605627   8.4658426
   5.2082735  39.0630460   7.9782432   2.8931105  55.2518082  46.3164186
   3.5479438  55.7960749  46.7536879   2.7844346  55.6537771  45.4545355
  50.9357595   2.1928884  68.5267687  50.7772160   1.3499035  68.9515877
  51.7206097   2.5335318  68.9559650  18.1000614  50.2359581  28.2618308
  18.6043489  50.2785635  29.0743017  18.3934164  49.4283915  27.8399229
  51.6670179   8.8842332  41.1952305  51.0817814   9.1600353  41.9006777
  52.5423241   8.9249432  41.5804768  66.5644550  51.4814043   5.5345523
  66.5200043  50.6187439   5.9469599  66.8571997  51.3046694   4.6405172
   1.1917986  78.4942436  22.5519133   1.9594270  79.0111828  22.7963495
   1.5284891  77.6057959  22.4355650  20.9827852  62.1320009  18.9784396
  20.7356572  62.5219679  18.1399369  21.3883448  62.8490877  19.4658232
  34.9814653  62.4539614  48.3170366  34.4124269  63.1127691  47.9190350
  35.0599384  61.7712259  47.6507473  14.2409647  79.4669104  41.0928869
  13.7184846  79.3831587  40.2952433  13.6082900  79.7084045  41.7693710
  56.0746193   7.6521802  34.0751338  55.3007936   7.8801489  34.5903540
  56.5807343   7.0741540  34.6460676  10.3904593  46.5249300  57.2259617
  10.4645348  45.5983400  57.4543858  10.8025527  46.5929747  56.3646936
  64.6324396   3.0540428  60.0209093  65.5419397   3.2886061  60.2053452
  64.3937635   3.5943514  59.2676926  61.6240978  19.3970895   3.9118585
  61.0860538  19.7218454   3.1898642  62.4260998  19.9175751   3.8658467
   1.0200942  78.5383511  35.9740758   0.1701957  78.6551285  36.3986540
   0.8591460  77.8874493  35.2909541  47.4288750   4.0293667  54.2034769
  47.4409246   4.3600199  53.3052826  48.3492279   4.0160945  54.4661808
  27.8911996  13.4380114  33.0287623  28.6705112  13.0072558  33.3799791
  27.8529739  13.1559372  32.1148658  53.1835699  10.3676987  25.9102321
  53.9247227  10.0083590  25.4225826  53.5570669  11.0892034  26.4163589
  24.4722509  67.1733522  27.5893736  25.1759791  67.7969885  27.4102807
  23.7515926  67.4574661  27.0270920  80.0013638  30.1274800   4.0110922
  80.8685112  29.8065090   3.7635753  79.5810795  30.3474164   3.1796971
  80.2649403   1.5761514  47.3545265  80.4674530   1.8439201  46.4581347
  80.1801300   0.6239169  47.3066759  38.0920100  57.9008150  18.4081733
  37.7908516  58.0640030  17.5143588  37.2877336  57.8173780  18.9204288
  19.5201027  81.9090939  62.1515656  20.3177404  82.1804237  61.6972685
  18.9707851  81.5300941  61.4653826  28.3211493  79.0688181  25.6071353
  29.1006041  78.6788225  26.0028410  28.2727623  78.6757708  24.7356963
   9.8461515  47.2340393  13.5344017   9.3603772  47.6536942  14.2444324
  10.6418657  46.9034672  13.9512873  73.5798502  29.4603968   1.0224956
  73.8421583  29.6621656   0.1243236  73.2093668  30.2786279   1.3533606
  46.9199467  62.6371717  42.5868940  47.4406385  61.8539953  42.7650785
  46.9088125  62.7052927  41.6321850  41.0752869  20.9115982  63.8496208
  41.5457392  21.6876411  63.5452127  41.3667345  20.7941556  64.7537756
  75.9132671  40.0533772  23.7281299  76.2288761  40.3611183  24.5777893
  76.4522028  40.5197763  23.0891848  79.6710110  79.5316792   1.1783756
  80.3438759  79.2867613   1.8135926  79.1893816  80.2423859   1.6016564
  51.8488646   0.2516703  62.3328543  52.3257113  -0.5657221  62.1889162
  52.3580694   0.7116924  63.0001783  48.2013702  29.1409278  70.8994007
  47.5308228  28.9903569  71.5656805  48.8420343  29.7082400  71.3282871
  50.9819603  62.6981735  37.4527025  51.6902208  62.9455566  36.8582296
  51.3070869  61.9172955  37.9007602  65.9058332  26.8271732  39.4367242
  65.7703209  27.6814580  39.8466849  65.7108307  26.9721770  38.5108829
  37.8693056  68.5531378  50.1108551  37.2377777  68.3313560  49.4265890
  38.4861517  69.1476536  49.6839046  81.1257935   8.2169473  15.2825892
  81.1303711   9.1146010  15.6148982  80.5156422   7.7525479  15.8555496
  21.7279720  67.5140381  18.9841032  22.1038437  68.3830404  18.8434303
  21.3514733  67.2759199  18.1368852  51.3978767  62.7475357  20.3588724
  51.4053488  62.2879410  21.1984849  50.5993557  62.4442196  19.9268973
  77.2710419  41.4284229  21.8482828  77.1100378  40.8669949  21.0899234
  77.1522903  42.3185253  21.5168476  49.5876646  64.9808359  42.2881031
  48.7037373  65.3020763  42.1100187  49.5625544  64.7062111  43.2047176
  63.3628941  45.0495481  35.1456904  64.0862513  44.5478106  34.7698617
  63.3283997  44.7712231  36.0608840  18.8133049  82.0847893  41.2061310
  18.1377518  81.5505123  40.7885122  19.2418575  82.5390530  40.4807186
  13.0785394  46.8349648  69.4767141  13.8482928  47.3818541  69.6336222
  13.3582056  46.2155056  68.8027048  71.5704966  82.9017162  39.8962188
  70.6360102  82.8320789  39.7009945  71.9737101  82.1945000  39.3927360
  43.8737869   6.2057585  51.5294027  43.9460278   5.3588980  51.0891294
  43.9971733   6.8496090  50.8319330  53.8456106  28.3086872  16.8764853
  53.0831289  28.8868999  16.8993855  54.5964003  28.9002156  16.9278312
  78.9626455  36.3416505   2.7076313  79.9164867  36.4204359   2.7220479
  78.6830854  36.9426489   2.0170662  78.2849646  38.2794547  45.7107973
  78.1995201  38.1295490  44.7692776  78.9024401  39.0073514  45.7823706
  40.8944035  17.2918999  68.8146496  40.9363794  17.6645994  69.6953106
  39.9638796  17.1186733  68.6719894  24.6780849  52.4962091  44.6740961
  25.3394437  52.9065418  44.1169071  24.3123007  51.7949533  44.1349554
  68.4270763  34.8140430  59.6829224  68.4992790  34.3079281  60.4921627
  68.0686378  34.1965365  59.0453959  36.4670944  10.4864204  38.7776947
  37.2636175  10.0310540  39.0505052  36.7405248  11.0219908  38.0329585
  75.5280018  70.4046202   1.3808659  75.5866623  71.3546085   1.2793283
  75.8719254  70.2358103   2.2580506  80.9344959  12.6381505  40.3351688
  81.2751675  13.5177922  40.1726818  80.0353336  12.6653314  40.0080585
  28.3358932  -0.2272561  25.0094986  28.9306927   0.4959196  24.8108482
  28.1659675  -0.1467060  25.9480429  38.2419086  15.0788867  22.3948956
  37.9761362  14.4974101  21.6825175  37.4249554  15.4747713  22.6983666
  34.9942136  63.5812235  44.6775293  34.2763448  63.8703537  44.1142368
  34.9434066  64.1535950  45.4430628  52.0410681  56.2325811  61.1058807
  52.8014469  55.6837702  61.2978745  51.4649725  55.6707811  60.5874920
  41.1135197  61.8843126  38.4824085  41.7824173  62.1995878  39.0901995
  41.6083527  61.4695454  37.7757692  39.8222184   2.2221589  19.2567313
  40.4506636   2.3350997  19.9698472  38.9659643   2.2800329  19.6806598
  76.6380692  81.7600822  36.4823842  75.8371735  81.4273834  36.8874788
  76.9167566  82.4750233  37.0545959  79.3588114   4.1706887  27.5030780
  79.4911671   5.1185942  27.5167751  79.6039104   3.8819015  28.3821464
  41.1589670  20.0642705  50.2238750  40.2192450  20.2314520  50.1517487
  41.2420177  19.1160727  50.1226139  37.4757957  48.4519577  17.1804321
  37.0901418  47.8211021  17.7883148  36.8532538  49.1788387  17.1626866
  26.3534784  82.2579575  52.5060749  26.9943285  82.2545338  51.7950630
  26.2891245  83.1769085  52.7660942  16.6040468  60.2719259  41.6428041
  16.7288041  60.0515079  40.7197237  16.4769697  61.2206459  41.6474533
  70.8194876  52.9719973  57.3729038  70.4997015  53.2173967  56.5047169
  71.6147566  53.4914875  57.4908781  80.7510757  21.9949532  45.5729628
  79.9845171  22.4941230  45.2910995  81.3103962  22.6394463  46.0065746
  67.4445963  15.8462310  22.5471687  68.3627844  16.0674727  22.7027893
  67.4500322  15.3724301  21.7154741  10.0309205  33.6420059  10.8008635
  10.9488451  33.7339139  11.0562062   9.5424694  33.7642360  11.6149318
   6.6796237  18.3196294  39.9986911   6.7055511  17.7498293  39.2299986
   7.5834876  18.6149168  40.1085424   5.9547210  29.5853686  20.2387857
   6.1860460  30.4557800  19.9145901   5.7297152  29.7244143  21.1587167
  10.4518783   7.0324165  19.1470432  10.6021512   7.8606570  19.6027493
   9.9926245   7.2804147  18.3446634  11.3341224  67.6755571  21.9995522
  11.5051568  68.5133696  22.4297357  11.9381273  67.0630503  22.4193692
  26.4723802  64.9525070  35.0573087  27.3776245  64.6427679  35.0286126
  26.5387869  65.8589315  35.3576803  16.2934792  29.8127842  11.8689811
  16.7760408  30.1211548  12.6359713  15.3725016  29.8942471  12.1167648
  77.2108078  48.9890909  58.5596418  77.6991606  49.7856140  58.3515739
  76.3892078  49.3035364  58.9369059  80.5066586  29.9909306  14.0851569
  80.1699543  29.0963626  14.1362917  81.4358139  29.8858047  13.8805866
  68.2132769  10.1073647   3.8219500  67.5183868  10.4522014   3.2611942
  68.5271740  10.8686459   4.3099576  82.2016811  26.1292124  21.3600850
  82.1449852  26.2077522  20.4077983  81.5797329  25.4358506  21.5806770
   9.7938275  17.8062916  44.5749760  10.6457114  17.3906577  44.7082901
   9.2073053  17.0838308  44.3507576  49.0749979  64.3940973  64.9364996
  48.5534573  65.1555014  65.1904488  48.4360409  63.7703276  64.5917082
  84.3491364  17.0353365  40.2721405  84.1953278  17.0108318  41.2165833
  85.2481937  17.3518085  40.1840210  70.0615835  55.1422405  43.4520102
  70.0246763  54.4082022  44.0652466  70.8308935  54.9639702  42.9110718
  54.3693209  28.6872292  12.2106600  53.4135532  28.6950898  12.2623456
  54.6247005  27.8619862  12.6229572  86.1679173  29.6116972   6.7839646
  86.8108082  29.8817468   6.1282277  86.3523483  28.6842465   6.9324625
  38.2526875  56.4673138  68.8152409  38.8886452  57.1372128  69.0662813
  38.6798143  55.9848547  68.1074047  22.1482897  79.9623156  50.2226019
  22.7797413  80.6614685  50.3919554  22.4916720  79.2082024  50.7017946
  82.9361534  23.9641833  52.6668930  82.8923798  24.8537564  53.0175686
  83.0268955  24.0836024  51.7215157   3.5167846  44.5079184  54.9623299
   3.5128757  43.8882685  54.2327738   4.2860425  44.2659235  55.4779959
  22.9206181  20.3223729   7.8665960  23.6848593  20.3418398   8.4426045
  23.0536675  21.0567355   7.2672307  40.2041674  15.0436914  37.9060912
  39.3760490  15.4980826  38.0609584  40.4758596  14.7391975  38.7719440
  35.1926756  12.6749337  51.7138910  35.1492667  11.8385804  51.2503624
  34.3831491  12.7085936  52.2235632   1.4342725  18.4072828   9.2288333
   0.5094239  18.2208765   9.0671557   1.4273909  19.1718245   9.8047328
  80.6345844  77.7785110  32.0531797  81.1296749  77.0193434  32.3610544
  81.3013840  78.3837414  31.7286634  81.2115192  39.1938663   4.0785450
  81.1533260  39.9087405   3.4446663  81.4787960  38.4350443   3.5599086
  14.6185482   3.6577347  25.5585194  13.6891472   3.6742216  25.7869339
  14.8573029   2.7314362  25.5931497  71.6918468   8.1981355  45.9239769
  71.9745398   9.0609789  45.6209660  72.1040058   7.5840110  45.3163528
   1.1350999  47.2299528   6.3644117   1.9798677  47.0569372   5.9488827
   0.5238064  46.6448021   5.9170324  48.6524534  15.0646424  29.0480208
  48.9345264  15.5476928  28.2712793  49.4534349  14.9413908  29.5574045
  24.8602796  66.4119387   1.1590654  25.5934358  66.0972309   1.6879028
  24.4765592  65.6186104   0.7854086  80.0874424  59.4374752  19.2157209
  80.1960182  59.9123621  18.3917499  80.9095573  58.9600325  19.3271184
  86.6055298  78.2002783  39.8081136  86.9814587  78.4117460  40.6626225
  87.3637295  78.0544472  39.2423463  20.2979398  14.5161176  33.8619757
  21.0163355  15.1462352  33.8063955  20.1201463  14.2747951  32.9529166
  26.4133310  12.2759128  38.6313796  27.1001983  12.8826177  38.3550501
  26.6012621  12.1056628  39.5543790  77.5657511   3.0070853  39.6007013
  76.7110777   3.3616018  39.8458123  78.1045771   3.1178072  40.3840494
  18.9550722  39.7117329   7.7699494  19.2912245  39.0502810   7.1652061
  19.7366226  40.1599169   8.0932736  64.8197889  14.8665655  43.7001228
  65.3188086  14.8506188  42.8834486  65.4854107  14.8518968  44.3878508
   1.9369596   4.3889111  27.0809507   1.3495868   3.9056396  26.4998531
   1.4527778   4.4629255  27.9033375   7.7778000  64.9099731  40.3437185
   8.3405024  65.6415129  40.0898504   7.1903849  65.2775717  41.0040522
  84.0491676  10.3892279  33.3592916  84.9321651  10.6089997  33.6563778
  84.1408443  10.2523363  32.4163771  85.8158302  13.5950339  21.2401032
  85.5516911  14.5058882  21.3697553  85.1829815  13.0874991  21.7481828
  58.6489058  28.5047102   6.8972242  58.2713985  29.0418601   6.2006688
  58.6548519  29.0770125   7.6644695  11.0834157  11.2836134  46.3328028
  10.2875912  11.5183139  45.8555079  10.8430266  10.5013430  46.8292904
  71.2434244  16.6370356  24.9324155  71.4588022  16.1446011  25.7244730
  72.0910025  16.9157422  24.5857692  27.4781036  24.7171235  16.3888979
  27.1998549  24.8665261  17.2924960  26.6612744  24.6129298  15.9008765
  26.3701987  52.3211527  31.4416885  25.8135748  53.0804253  31.6146111
  26.7124844  52.4708462  30.5604029  83.9900684  54.9196768  60.4363108
  83.9914894  55.1481533  61.3658428  84.0202999  53.9630270  60.4247665
  71.5356588  33.1893110  25.3793478  71.4526320  32.7198768  26.2093902
  71.2159491  34.0711832  25.5699134  87.1793079  45.1229048  28.8193130
  86.3457870  44.9102688  29.2391419  87.8088474  45.1555252  29.5396280
   2.4553968  29.7558689   4.1604361   2.9522812  29.3483281   3.4510362
   2.5824592  29.1718626   4.9081141  78.6731625  24.8209119  48.5166788
  78.0176592  25.4448938  48.2049274  78.3579493  23.9700603  48.2118464
  74.2018127  68.3755922  38.8533449  74.9520159  67.8654194  38.5481381
  74.3812084  68.5343504  39.7800851  68.2914543  75.5343437  48.5477209
  68.3993769  74.6323442  48.2460928  67.7063608  75.4662085  49.3022108
  79.5783615  74.8802090  19.4431496  78.7202644  74.5323086  19.2005360
  80.2037239  74.2860746  19.0282321   9.0795523  12.0497882  16.9523942
   9.5696723  12.6719165  16.4148355   8.8235438  11.3569248  16.3435984
  20.7906413  41.4187336  25.2389550  19.9996209  41.4491653  25.7770920
  20.5815053  40.7984114  24.5406008  83.1733131  55.5882549  28.7605691
  82.7335453  55.5295753  27.9123974  83.5423946  56.4712572  28.7784195
   7.5399584  18.5566938  23.1558943   7.1359563  19.0608001  22.4495697
   8.0242008  17.8628588  22.7083063  24.3873382  60.3590822  16.9094789
  23.9720368  61.2135124  16.7923975  24.2476344  60.1493979  17.8329206
  19.1821766  47.3039865  54.2633963  20.0179195  47.5836086  54.6369934
  18.9293265  46.5424776  54.7853231  54.1757822  53.2438421  43.5310316
  53.9762306  52.3194504  43.6790419  53.8391495  53.6890364  44.3086624
  74.5569563   2.0675810  64.9576902  74.9420261   2.8341299  65.3823757
  75.2799559   1.6774651  64.4664526  57.7403879  32.4202728  16.6857493
  57.7764368  33.2667208  17.1312356  58.5508013  31.9800472  16.9419897
  48.9385605  69.5964813  11.8905258  49.5352936  70.0164747  11.2710559
  48.0648375  69.7970867  11.5549695  78.7970161  38.8479567  34.6920204
  79.0261126  39.7622490  34.8588085  79.0243530  38.7079239  33.7728143
   1.0650951  37.8588438  36.4200616   0.5053458  37.1269274  36.1608076
   1.7350546  37.9013991  35.7377291  19.7799230  41.5121269   5.4624844
  19.4275546  42.2902870   5.0305879  20.6384230  41.3825703   5.0594652
  70.1585340  15.0802171  27.4739861  70.8680868  14.5128775  27.1725082
  69.3714094  14.7142375  27.0705962  83.0435562  29.7581983  43.0764961
  83.9193439  29.3747067  43.1229544  83.1177807  30.5835772  43.5555267
  11.7531192  18.1267822  15.6840682  10.9132624  17.7077031  15.4963267
  11.8321705  18.0884159  16.6372263  76.1316061  32.3702335  30.1138592
  76.3202238  31.4359713  30.0255036  75.2993250  32.4908328  29.6566963
  66.0337019  66.9792891  51.5164089  65.4465818  67.7066088  51.7226315
  65.5068398  66.1951113  51.6703892  79.6830320  59.5059156  52.9122066
  79.3913031  60.3708601  53.2003021  80.6301689  59.5142889  53.0503559
   9.3903047  25.1588297  21.4442420  10.0898087  25.8119273  21.4244986
   9.8137009  24.3641281  21.7689228  85.0855637  44.2006779  41.4840221
  85.9140301  43.9242125  41.0923147  85.2356529  45.1091480  41.7455435
  84.5615959   9.7051895  40.5407858  84.2625332   9.1037250  41.2227201
  85.4148006   9.3616414  40.2757597  23.7663746  77.4064922  71.5013742
  24.5889664  77.5110388  71.0232019  23.2783246  76.7543316  70.9986544
  73.0803394  70.7190180  16.1107314  72.6518583  70.1053524  16.7074275
  72.8071737  70.4351091  15.2383733  48.2053423  62.7509832   5.9945607
  48.6962748  63.0003500   5.2115953  47.3618937  63.1934452   5.8994365
  33.4843516  63.0270481  34.8689055  32.7185655  62.8458834  34.3239450
  33.7078643  63.9369392  34.6730328  20.3832889  69.1317749  13.0232894
  20.1111794  69.0612650  13.9382839  21.0492539  68.4522724  12.9184186
  39.7730160  22.3910713  19.9154401  40.5003119  22.9926109  20.0748825
  39.4213963  22.2043514  20.7859182  73.9988947  61.9010925  15.7591522
  74.5849085  62.3465872  16.3709986  73.4487295  61.3481712  16.3139760
  75.2085829  17.1294832  36.8021917  75.2028561  16.3198209  36.2916565
  76.0281992  17.5600743  36.5591836  20.9872723  56.8188381  14.9940360
  20.5980611  57.0244837  15.8440101  21.8782759  57.1643114  15.0487232
  79.3755245  48.0245543  19.3350148  79.6137524  47.5016880  20.1005793
  80.1119328  48.6243725  19.2160559  83.8372803  60.7714462  17.4148238
  83.9536858  61.5263367  16.8379164  84.1614914  60.0285959  16.9056129
  79.5794773  41.0292149  28.5618472  80.0929070  41.2879610  27.7965546
  79.0271568  41.7885971  28.7476230  86.7336369   5.8889204  48.7586260
  86.4239788   6.6069400  49.3107033  87.5814152   5.6480706  49.1321135
   5.7194144  39.3988895  31.0912919   6.5081847  39.9387717  31.1422849
   5.2450818  39.7389030  30.3325868  32.3499179  24.6040130  26.7073083
  32.0289278  25.5018759  26.6234112  32.4419427  24.4697094  27.6505613
  25.3939295  68.7833500  38.9775372  25.3077340  69.0200090  39.9010062
  24.6299696  69.1778564  38.5568690  40.6971502  75.9685183  71.2345648
  40.7812023  76.8939018  71.0047054  40.3886318  75.9738636  72.1406651
  34.2291045  21.5877223  49.8486376  34.1255593  20.7010818  50.1941538
  35.1471663  21.8031144  50.0129604  13.4370053  69.2466593  66.2203074
  14.2941213  69.5288277  66.5396261  12.8180552  69.5779371  66.8709898
  15.0519633  33.2819104  16.0902953  14.6155334  33.4045362  15.2472508
  14.7305977  34.0017009  16.6333020  15.2042079  47.3650169  25.0754666
  14.6725082  46.9224787  24.4138861  14.6572614  47.3658562  25.8610106
  38.0793047  62.3982573  54.0243912  38.4710383  62.0373535  53.2290792
  38.4061289  61.8376350  54.7280407  65.8850622  14.8278749   3.9462134
  65.5857563  14.6402037   4.8358357  65.4413891  15.6428182   3.7111548
  86.7374229  16.5550876  42.2992325  86.4865303  16.8349195  43.1795597
  86.9003963  17.3709548  41.8259096  30.8252168  62.8801870  45.9397602
  31.7253852  62.6785946  45.6842470  30.8290792  62.8236008  46.8952751
  22.2145414  15.2267611  19.0657127  21.7959356  15.9392822  19.5487392
  22.7709174  15.6673169  18.4233820  67.0279026  10.4180729  29.6356344
  67.6335478  10.4751027  30.3746653  66.1609364  10.5216086  30.0279164
  72.8379679  73.5008764  16.8302631  73.0652952  72.5874233  17.0039105
  73.0279732  73.9551830  17.6510787  77.9705620  50.2316523  23.1923032
  77.3820686  49.7175789  23.7451482  77.8480721  51.1342430  23.4865141
   9.8027521  72.7962637  42.1595573  10.7554305  72.7185488  42.1086121
   9.6542263  73.5603476  42.7166462   6.8028086  55.7260895   3.0605143
   6.8449646  54.8740721   3.4947050   7.2441477  56.3242912   3.6635089
   2.3753473  58.5715008  56.7189074   2.8793889  59.1898680  57.2478628
   2.9397395  58.3818102  55.9694338  82.8977966  30.6238389  47.2014093
  83.0329990  31.1436558  46.4091110  82.8123379  31.2714481  47.9010725
  49.7197676  25.2393341  60.1817322  48.8351822  25.4290700  59.8690987
  49.9021673  25.9304333  60.8183956  84.8449993  32.9789639  11.3411772
  83.9198971  33.1883764  11.4698780  84.8395157  32.1219444  10.9148884
  12.9000461  53.5792446  59.7478294  12.2976458  53.2308006  59.0906143
  13.4018159  54.2482185  59.2820740   3.5208839  31.4526892  46.0605097
   3.5194439  31.2463212  46.9951963   3.9676139  30.7111144  45.6521845
  77.0005798  39.6336532   2.9867136  76.1815023  39.4505906   2.5264606
  76.8672752  40.4966164   3.3788252  67.1160269  26.4742351  21.2875342
  67.6220798  26.5432167  20.4779768  66.6592360  27.3125672  21.3566208
  86.0171413  44.6692419  65.6654596  86.4839363  44.6803999  66.5010548
  85.2363300  44.1419363  65.8343172  84.1606140  48.8183546  21.0643578
  84.6210575  49.0250540  20.2510309  83.2335091  48.9106512  20.8448386
  19.4467986  50.5522490   9.0679181  19.5734251  51.1955547   8.3705264
  18.5031366  50.5554914   9.2283028  81.4410210  68.0349874  61.2225914
  80.8248615  67.5215864  61.7450857  81.1094952  67.9681015  60.3271294
  15.9418190  47.8168011  11.4312947  14.9925828  47.7337599  11.5223217
  16.2573421  46.9145584  11.3799334  64.6340036  57.1943378  11.0879052
  65.0551414  56.3504553  10.9244084  64.9840546  57.4770164  11.9327664
  15.6792986  43.5226965  48.4373617  16.4981163  43.9887333  48.6064053
  14.9973929  44.1117001  48.7603331  82.5659752  14.3925476   5.5330521
  82.4695492  13.4699202   5.7690442  82.6414680  14.8476672   6.3717413
  65.3119707  15.9647012  24.9129438  64.6850252  16.6857278  24.8555875
  66.1244011  16.3248694  24.5573163  59.2867231  67.1670389   9.5193452
  59.5289278  68.0921364   9.5613021  59.5818663  66.8040705  10.3544343
   6.1108983  33.1336403  14.7832000   5.3550732  32.8502440  14.2687607
   5.9928721  34.0784049  14.8818040  22.1380424  61.2191153  38.6743522
  21.2559414  60.9362888  38.9154720  22.6882124  60.4530382  38.8376570
   1.5972653  38.3626366  50.6421900   1.3466857  37.4525070  50.4837465
   1.8495455  38.6950469  49.7807455  74.8543692  33.1822944  45.6825304
  75.0496864  34.0371180  45.2986574  73.9625835  32.9882526  45.3939199
  26.4345336  45.7530546  38.0589581  26.2175131  44.8336077  38.2130694
  25.6401610  46.1257935  37.6765037  86.1498260  44.6884966  26.3750219
  86.6627884  44.8622561  27.1642685  86.4426231  43.8247585  26.0843992
  14.7786641  12.9235387  43.7617731  13.8936520  12.5678658  43.8422775
  14.7014654  13.8285685  44.0637589  21.5417075  58.4229040  36.9831371
  21.1433768  59.1314316  36.4776158  21.7455602  57.7502918  36.3333106
  73.8449240   6.8594652  47.9319143  73.2330132   7.3252094  47.3619318
  73.9607859   7.4399859  48.6841106  79.4334841  66.5278721  55.6646633
  78.7582684  66.3174772  56.3096809  78.9910316  67.0913124  55.0298405
  22.9021263  15.2995622  44.5084429  22.2531271  15.2679443  45.2113199
  22.5199175  15.8861923  43.8557434  80.8632469  56.2232065  27.0015383
  80.6751919  57.1547413  26.8870544  80.6307507  55.8269596  26.1617947
  30.5263591  42.6046658  22.7796030  29.8559403  42.6793528  22.1004891
  30.1508021  43.0531549  23.5372615  76.7713928  53.5348225  25.1046753
  75.8425808  53.3530235  24.9615264  76.8927670  53.4325266  26.0486221
  69.2194605  58.1729650  27.9992390  68.7804747  57.8604221  28.7903404
  69.0030432  59.1044378  27.9573464   3.6105919  14.4962168  18.3329213
   4.2484054  14.3334317  17.6379919   3.0639321  13.7105680  18.3451331
  11.1129045  68.6235952  26.5122199  11.4724290  67.7894735  26.2102103
  10.1662683  68.5285282  26.4069963  20.2083182  33.1171679  37.8766513
  20.2395344  32.7745223  36.9834256  19.5402670  32.5883198  38.3128381
   2.8419873  60.9378624  28.3415508   2.6229566  61.8163872  28.6521292
   3.6329916  61.0597372  27.8164887  68.5248852  56.9846487   9.6296042
  68.7223148  56.1622953   9.1812909  67.6709700  56.8368387  10.0360751
  85.9556866  41.3661671  29.0626931  85.2659225  41.9532061  29.3722606
  85.5111313  40.5315590  28.9142466  67.5885916  68.2804298  35.5138493
  67.0462847  67.5019360  35.3870630  67.2189713  68.9298344  34.9156141
  71.9485235  10.8334005  44.8399878  72.3406839  10.8046651  43.9672804
  72.6745939  11.0589314  45.4215288  29.8085880  57.3422337  50.8959007
  30.2445245  58.1009293  50.5078697  30.0664973  56.6072989  50.3394985
  16.9539773  60.1821089  38.7163544  17.2383487  60.9388542  38.2038116
  16.0329533  60.3564835  38.9101028  13.2443774  71.1384153  44.6917486
  12.7971900  71.9759369  44.8134613  13.9110255  71.3170147  44.0284920
  64.4541407  60.6284189  26.3077927  63.7026548  61.0860300  25.9308410
  64.2789602  59.7022963  26.1409402  31.3903165  69.8809814  20.7056499
  30.8302903  70.3678942  21.3102317  31.7887402  70.5538368  20.1536059
   6.8699086  59.9097395  24.7177315   7.3720610  60.5974913  25.1548481
   6.3174307  60.3777075  24.0916300  87.4374008  37.0740199  23.2746482
  88.1370354  36.4668751  23.5157132  86.6631889  36.5199924  23.1752038
   4.1968015  46.2851667   8.0387175   3.3749992  46.5878248   8.4250766
   4.6479222  45.8382702   8.7549609  52.3902702  60.1648045  50.9657812
  52.9369545  59.3803787  51.0109425  51.7118788  60.0222874  51.6258621
  57.9334497  80.0254822  28.9828682  57.8646564  80.9592342  29.1818810
  58.7802839  79.9354935  28.5458279   2.0847972  29.2267418  27.5263476
   3.0203015  29.1441488  27.3413014   2.0469072  29.6204281  28.3980155
   6.3018918  67.0323467   9.6747482   5.5171144  67.4080610  10.0737405
   6.0165000  66.7481852   8.8063967  27.4106526  18.3682787  67.0148182
  27.2801471  17.4971390  67.3894072  27.1356535  18.9700782  67.7065134
  76.8754530  64.6794939  42.9423094  77.0004845  64.0842247  43.6814022
  76.6638279  64.1058159  42.2058725   3.0228189  25.9861684  33.3470106
   3.0650479  25.1304984  33.7739539   3.9001274  26.3526416  33.4577322
  81.1970711  35.6786990  24.8360491  80.2934647  35.4418325  25.0448895
  81.6913319  34.8679996  24.9573278  40.0928497   0.9517084   0.5826347
  40.0887012   1.8960008   0.4260254  40.9473372   0.7781786   0.9775682
  52.3172569  33.6241055  57.7845621  52.8683519  33.8382626  57.0317936
  52.9363489  33.4644175  58.4969234  76.1756325  26.7132354  35.8249283
  76.0211611  26.8954515  34.8980165  76.2029505  27.5765586  36.2374306
  87.6769543  36.9806623   7.6064509  87.1196938  37.6340890   7.1836847
  87.0703125  36.4391899   8.1114566  69.3082809   9.3666619  47.1524858
  69.2338085  10.3185189  47.2207117  70.1767254   9.2206383  46.7773724
   1.3215981   7.9930347  22.4528742   1.7346856   7.5630426  21.7040777
   0.4331513   8.1897998  22.1559286  26.2845731  32.1832752  28.1345797
  26.3095975  31.6066790  27.3709416  26.3984776  33.0627966  27.7744389
  20.5394793  48.0507755  22.9840446  19.6166849  47.8412914  23.1282735
  20.5296135  48.7125111  22.2924948   0.0778274  47.9620171  30.8972621
   0.7108383  47.2614622  31.0546017  -0.7024975  47.6930571  31.3820100
  86.4452839   4.0968215  51.5853214  85.8558083   3.7703550  50.9054947
  86.8172455   4.8975241  51.2155151   9.4923705  75.8621216  14.0838754
   9.1626590  75.6430578  14.9553871   9.1552168  76.7418003  13.9143801
  83.3590126  71.2982178  40.5982065  83.4379959  71.8416643  41.3822126
  83.1740379  70.4206514  40.9327173   2.1185501  46.7966557  47.7803993
   2.1971169  46.5936279  46.8482828   2.1998505  45.9491348  48.2178116
  86.4960289  24.4640374  24.4363713  86.2205315  24.3423939  25.3449607
  86.0302544  25.2489376  24.1478968  77.8994608  12.2843623  56.2523413
  78.4757280  11.9945681  55.5451155  77.7088261  13.1994569  56.0462046
  -0.0512248  72.1783155  71.6393484   0.5425138  72.6940531  71.0937095
   0.5237693  71.5915197  72.1305596   3.9252314  40.3069973  25.0543261
   3.9166763  39.3529105  25.1309752   4.0418878  40.4710674  24.1185355
  80.4514027  19.5469236  39.2451859  80.5151272  19.0111446  38.4545469
  81.3600349  19.7275114  39.4860148   0.8215510  21.1503267  22.5956416
   1.7608318  21.2670398  22.7383351   0.5636372  21.9063830  22.0682979
   0.2708759  42.9849195   7.6006907   1.0055616  43.5122919   7.2870904
   0.6810701  42.2373533   8.0355626  68.4299278  59.4686270  38.6448598
  68.9751577  60.2091265  38.9105916  68.6495113  59.3278456  37.7238822
   7.8401482  79.4611359  67.1497154   8.0207455  78.7456560  67.7593946
   6.9538176  79.7466850  67.3713255  15.3925562   6.0906833  44.0672398
  15.2788365   6.9457173  43.6522532  14.9418330   5.4796952  43.4843397
  32.2264290  49.5047712  25.7834363  31.9927621  49.6107197  26.7056131
  33.0410147  49.0023375  25.7989573  81.0122871  37.6536584  22.9607391
  80.3195477  38.2732439  23.1897759  81.0131073  37.0195055  23.6777329
  19.2321801  34.8668647  32.1266007  20.0975466  34.6854448  32.4932885
  19.3718612  35.6096411  31.5392303   4.9148315  49.0314627   8.3544660
   4.5594481  48.1540680   8.4962791   4.9446088  49.4218779   9.2279208
   7.1498120  26.1505222  53.9800549   8.0035758  25.8644056  54.3047953
   7.3122483  27.0192575  53.6124325  27.8577614  29.5373869   8.7020719
  28.4619761  29.2459512   8.0192673  27.5637507  28.7293196   9.1225660
  78.9387465  51.7011786  34.3377542  77.9935122  51.7530584  34.1960764
  79.1945314  52.5923252  34.5757842   5.0797826  33.4840322  59.2761898
   5.7458246  34.0273356  58.8549519   5.5303091  32.6629162  59.4737387
  69.3578911  36.4393973  49.6806669  69.7090816  37.0991802  50.2786541
  68.4275723  36.3882875  49.9000311  25.8070016  62.6510811   5.4111147
  25.8741832  62.5145340   4.4660893  26.5595889  62.1844959   5.7746309
  10.1896620  64.7068214  44.1514397  10.7749438  64.9369669  43.4298420
   9.7639138  65.5311966  44.3867588  14.4629180  47.6400614  38.8215756
  14.5127082  48.0953598  39.6620870  13.8167918  46.9479370  38.9620066
  29.6556115  14.6720517   0.6128064  30.5877423  14.8831916   0.5600549
  29.3465543  14.7246873  -0.2915964  75.1443529  42.4373674  44.9479198
  75.7128096  43.0089855  45.4640055  74.2585421  42.6556540  45.2376127
  27.2170925  12.7222848  30.2025843  27.1250582  12.3950791  29.3077660
  26.7467546  13.5559595  30.2023220  85.6356812  44.4123363  16.0405707
  86.1615658  43.6303616  16.2084627  84.9782085  44.4127226  16.7362416
  15.6588924  11.5798378  33.2380700  16.4165092  11.3299811  33.7670517
  14.9322665  11.6115928  33.8603544  39.8649573  81.3473415   1.3397782
  40.7597017  81.6071796   1.5591983  39.8682737  80.3928566   1.4117254
  23.2334375  62.0749760  59.4036102  22.3656487  61.9945765  59.7994757
  23.1636429  62.8349257  58.8258219  70.1583815  21.7789054  40.2589273
  70.9971428  22.2127581  40.4153919  70.3700924  20.8454895  40.2469540
  73.6597538  26.6595864  12.4692714  74.3277025  27.2927380  12.2062123
  73.5335779  26.1094141  11.6962111  29.7967505  76.6826344  61.4536047
  29.5041013  75.9863663  60.8655596  29.4304919  77.4831963  61.0778570
  87.9755966  28.4349966  69.6783829  87.0981481  28.0589938  69.7486544
  88.0791089  28.9524293  70.4769945  13.9694548   9.7695297  38.3134174
  14.0035582  10.0776017  37.4077892  13.6447096  10.5207276  38.8098788
  45.9932280  65.5677557  61.8078375  45.4478264  66.3541031  61.8285370
  45.4458904  64.9077797  61.3822889  33.5577822  41.7652607  32.9834151
  34.1014409  41.6336250  33.7601638  33.7014294  42.6805258  32.7428269
  68.9436245  22.9380655  49.5953035  68.0467081  23.2125497  49.4044113
  69.2817497  23.6152172  50.1812792  -0.0379724  31.2710166  60.9664726
   0.2910278  30.3723645  60.9461164   0.3229506  31.6761327  60.1778984
  87.0219707  56.5089512  34.0678382  87.9734325  56.4064121  34.0471005
  86.7615986  56.5151119  33.1467485  13.8580453  22.4919343  58.3159399
  13.2405448  22.6581669  59.0281820  14.6691787  22.9142165  58.5987329
  20.4013395  74.7231388  65.2142191  21.3488960  74.5960522  65.2613258
  20.2666020  75.6275034  65.4974174  34.3247724   7.6892686   9.2951161
  34.9437261   8.0280685   8.6483210  33.6535430   7.2468919   8.7755144
  82.8324890  57.3485422  32.7565241  81.9229412  57.0715380  32.6459646
  82.9026794  57.5756407  33.6837435   1.7628966  62.4263811   4.6756181
   2.0136583  62.7584887   3.8136101   1.8368858  61.4753151   4.5966882
   2.9838526  54.3943977  67.9730606   2.3081982  55.0314569  68.2051802
   3.8032678  54.8007298  68.2553482  16.7107832  12.9221451  56.9752216
  16.1777532  12.5265133  56.2855911  17.3207045  13.4934497  56.5084887
  21.8855071  26.5492916  63.9173269  22.3734999  27.0610356  64.5624733
  21.6418219  27.1835899  63.2431507  42.7634811  52.2405624   6.9179279
  42.3452568  52.7235699   7.6306874  42.0536041  52.0609903   6.3014340
   4.7945347  37.9332328   2.0450671   4.0494117  37.7892113   2.6284036
   5.5025297  37.4156833   2.4286270  18.3033657  25.8842254  48.2599449
  18.5319746  26.1098528  47.3582458  18.8097429  26.4950275  48.7954187
  13.8532162  25.5804348  23.0824518  14.1282952  26.1544228  23.7973666
  14.6658719  25.1861715  22.7656269  30.1321363  28.0570984  45.8002186
  30.8949351  27.8961372  46.3556147  30.4743719  28.0212688  44.9070120
  34.2754841  24.4061804   7.6689619  34.5550871  24.9805045   8.3818465
  35.0177169  24.3957782   7.0646316  31.7120051  32.4128175  58.0611134
  32.1199799  32.6635242  57.2322989  32.4472237  32.1913195  58.6326265
   2.2502856  15.3215706  45.6898451   1.7715007  15.2052510  46.5104961
   1.6234872  15.0747728  45.0098133  39.3683887  35.0999570  29.8257995
  38.9838719  34.2241669  29.8627782  39.3864632  35.3922749  30.7370925
  21.6613412  66.4148617  40.5975437  20.9803748  66.4106226  39.9248648
  22.0852947  65.5606890  40.5145741  42.1622562  79.2779255  54.3680668
  42.8264236  79.9671268  54.3572140  42.0995998  78.9913130  53.4569359
  13.4378731  48.9796877  21.6975713  13.7985587  49.8186064  21.4106035
  14.1255093  48.3435059  21.5009451  26.2377810  72.7420521  49.8709202
  25.6137514  73.0792236  49.2281628  26.1764765  73.3512449  50.6066895
   2.7490494   2.2687772  29.5485592   2.6329067   2.8202221  30.3222847
   3.6973101   2.1664895  29.4674945  31.5396118  46.9235945  13.5075748
  31.0748243  47.6025677  13.9966524  31.9388962  47.3887825  12.7724552
  23.6221838   4.1902936  27.1330214  24.0880442   4.8975146  26.6868782
  22.8558373   4.0245569  26.5839505  15.8460319  72.0689917  20.5603671
  15.0069106  72.3586798  20.2023315  15.7449830  71.1238003  20.6727600
  28.7283349  39.6153522  23.1570792  27.8509164  39.2375851  23.2175636
  28.7276268  40.0908756  22.3263526  50.7228994  80.9385681  27.5556827
  51.0081768  81.5177250  26.8489814  50.0009584  81.4081192  27.9734778
  12.3444653  23.8628173  24.5970893  11.7052174  23.5759592  23.9449334
  13.0184925  24.3145132  24.0892625  32.7573109  28.3746171  50.1041126
  32.7348971  28.7329555  50.9914255  31.9729614  27.8290153  50.0462627
  15.4593992  58.3478928  28.8848114  16.3473749  58.0229712  29.0336585
  15.0338197  57.6575184  28.3763885  77.2970247  16.8015647  11.6125226
  77.4292278  17.4137282  12.3364079  78.1083012  16.8498433  11.1068225
  82.9361725  26.9651294  44.2564678  82.8415871  27.6821136  43.6293936
  82.0537090  26.6045427  44.3428898  29.6647739  44.8752403  24.7687268
  29.7194219  44.8376083  25.7236242  28.7475085  44.6834850  24.5735741
  22.2384214  66.2292337  61.4727306  21.7282081  66.9947433  61.2083387
  23.0534625  66.3014126  60.9760141  12.2047782  32.6724553  28.9962959
  11.4710736  33.2646513  29.1612601  12.9834914  33.2121205  29.1326809
  15.1245308  41.0945272  29.5858121  14.9908280  40.1660967  29.3950820
  15.0185001  41.1617899  30.5347395  11.8063223  52.9666662  65.9666443
  11.2149024  53.6405611  66.3017893  11.2546611  52.1904325  65.8698845
  84.2732906  25.0678325  16.4407825  83.7125778  24.3214846  16.2291288
  84.7010994  24.8210835  17.2607410  74.6177197  58.5209846  25.0406313
  74.6810722  58.1491518  24.1608810  73.7250805  58.3201170  25.3218436
  54.0615797   5.3865230  19.4143808  54.5838213   6.1751705  19.2676449
  54.1628265   5.2025342  20.3482580  44.5026875  60.4623842  26.2745595
  45.2314615  61.0726595  26.3871551  44.1416502  60.3554916  27.1545935
  86.1425781  50.9163141  42.9451609  86.1178589  51.3727474  43.7861681
  86.4535618  51.5750408  42.3241901  81.8339729  43.1047201  34.1410685
  81.4918804  43.9973974  34.0927649  81.5177441  42.7721691  34.9810934
  39.5606184  14.1383576  33.6348534  40.1401520  14.8274219  33.9597583
  39.8800039  13.9534748  32.7516508   7.1338385  71.6116428   0.5690975
   6.7165637  72.2577000  -0.0007480   8.0720234  71.7688131   0.4626151
  31.2890458  39.7875404  22.6721764  31.2240577  40.4979515  23.3103943
  30.4191709  39.3881154  22.6689863  48.6953592  75.3064919  23.7192941
  48.5967350  75.4959965  24.6523499  48.5753870  76.1530447  23.2889676
  46.9443274   7.8079969  53.2135773  46.2320805   7.8904164  52.5794315
  46.5111780   7.8447455  54.0663719  71.4633226   4.4886023  10.8960569
  71.3527346   4.7262955  11.8166566  71.8442917   3.6107945  10.9194314
  71.7102242  58.4033108  25.6828928  71.0089922  57.7694559  25.8336782
  71.3759613  58.9692688  24.9870539  74.2048264  24.4787121   4.6288738
  73.7624884  23.6327720   4.5584917  73.8035059  24.8961592   5.3910488
  57.3745632  27.4018884  61.8825865  57.9763317  28.0940509  62.1564722
  57.6782751  26.6224885  62.3479128   5.9312510  61.1343050  18.3987439
   5.6375051  60.9028769  19.2798710   5.2408755  60.8066368  17.8223360
   2.3543312  53.4410429  34.1093493   2.3631215  52.5994015  33.6535048
   3.2005298  53.4809208  34.5549822  81.5340042  39.2581725  67.6518011
  81.5553284  39.2813849  68.6084795  81.3928032  40.1689005  67.3932076
   8.7782139  63.3936501  57.6249456   8.3344924  63.7069130  56.8367767
   9.1095662  62.5282001  57.3852968  17.2081327  50.3395224  36.3336039
  16.6522396  50.8854437  35.7775593  16.8577623  50.4615402  37.2159791
  30.8998609  58.0496931  13.3990097  30.3121758  58.4628677  12.7664411
  30.3807354  57.9834747  14.2004800   2.2151515  49.6845865  10.6434596
   1.9051242  50.4788399  10.2084053   3.1694722  49.7537518  10.6166422
   0.7972001  56.1171532  37.1063089   0.9000388  55.2217865  36.7838693
   0.6530359  56.6405487  36.3179517  33.8371348  77.9994059  18.4763527
  34.4096756  77.3207951  18.1186962  34.2205429  78.8216209  18.1710756
  23.0808997  29.6344090  21.7355967  23.6322784  28.8614750  21.6139936
  22.2026443  29.3430495  21.4906311  16.1699963  73.1167221  27.4527264
  15.9263289  74.0147591  27.2282505  16.3502085  72.6997280  26.6101885
  10.7999969  29.4657564  21.9414353  11.2652421  29.1645432  21.1610198
   9.8967290  29.1786957  21.8075132  72.2979975  32.4091101  41.5040398
  71.3719416  32.3339176  41.2738132  72.5733709  33.2416534  41.1202765
  27.8489065  51.8142128   6.7389774  27.0321560  51.3818932   6.9884771
  28.3633518  51.8382597   7.5458235  72.1094990  22.7287459   4.3879929
  72.2160196  22.3577905   3.5120493  72.1295643  21.9713259   4.9729246
  45.1872015   1.4946119  26.5668535  45.4885530   1.2849374  25.6828523
  45.6092119   2.3288648  26.7721844  24.3746519  63.7391090  14.9719536
  24.0862417  64.3633699  14.3061101  24.6573925  64.2850161  15.7056224
  22.9562497  59.3876553  46.3557529  22.0620298  59.4507408  46.0201645
  23.3139920  58.6040497  45.9383631  49.3668127  52.9970169  31.0030079
  49.0427208  52.8899622  30.1087284  48.6223412  53.3554173  31.4862704
  10.9807706  79.5273209  67.5584173  10.0326240  79.5320606  67.6896763
  11.3160312  80.1417542  68.2113409  73.1177902  40.1162958  12.9574835
  72.5345850  39.3600178  13.0218887  72.7504730  40.7547569  13.5687733
  58.5202503  52.4081182  37.4880791  59.1243744  52.8897095  38.0531716
  59.0598822  52.1181536  36.7525840  27.4244261  35.0367808  20.7011008
  27.1279073  35.8582020  21.0929918  26.6442442  34.6776557  20.2785158
  70.7622242  36.0268903  25.3227067  71.0714006  36.3041091  24.4602728
  70.2002668  36.7435265  25.6174350  19.6498954  37.8735185  31.4162612
  18.7462485  38.1816983  31.3478684  20.1356602  38.6279368  31.7496037
  23.7045574  35.8057094  24.8283935  23.2858658  35.1654291  24.2530918
  23.7246537  35.3803635  25.6856608  69.9145126  64.9727440  58.6757803
  69.2754459  64.2723703  58.5442352  69.4823217  65.5820274  59.2742968
  28.1205487  60.4512644  41.7248058  27.4332595  60.8011341  42.2917747
  27.6774025  59.7930813  41.1894131  18.2615554  44.2281914  33.7069011
  18.3578455  43.3419037  33.3583999  18.2858753  44.1158438  34.6571755
  25.9415960  74.6721840  58.0758286  26.7378330  74.6782732  57.5446033
  25.9520864  75.5132198  58.5327578  19.3507588  24.4543171  34.1286874
  19.1888499  24.9017167  34.9592614  20.2832627  24.2393637  34.1502261
  10.1807487  47.1679068  31.4712262   9.5936787  47.1496105  30.7154202
   9.9176019  47.9476547  31.9600821  55.5547619   5.6159478  12.6800084
  55.3082085   6.4892840  12.9845202  56.0838985   5.2548307  13.3912325
   4.5962256  52.8153896  12.1867466   4.0590289  53.2884598  11.5512514
   5.4062486  53.3225584  12.2403240   9.5866716  39.5114303  40.2446604
   9.0661263  39.0679026  40.9143972   9.5508873  40.4366827  40.4872751
   0.5977807  60.8467340  14.5044196   0.6440940  61.6847897  14.0442502
   0.1945904  60.2494955  13.8743615  37.5411439  48.8459682   5.6638294
  37.4855781  49.0208673   4.7243857  37.8466201  49.6699762   6.0432076
   2.5528368  43.6114073  18.9552164   3.2371339  43.7220526  19.6153128
   1.7361915  43.7745047  19.4271493  71.8727016  77.5111008  21.2193203
  71.6023064  78.4199572  21.3500500  72.6249361  77.5674009  20.6300759
  30.0879717  48.3146143  40.8842754  29.2537379  48.0239487  40.5157709
  30.6517720  48.4506178  40.1227903  85.6555748  75.0371552   6.0177183
  85.8327007  75.5874252   5.2547890  86.1091328  74.2152405   5.8307099
   9.1721040  47.5551605  34.6105051   9.4256675  48.3743572  34.1852331
   9.9927229  47.1969748  34.9489093  20.2406383  73.8912678  61.0626507
  20.7772207  73.8323021  60.2721882  20.4248619  74.7629070  61.4127159
  57.6549101  71.3141918  65.6036329  57.8233337  71.6257477  66.4929008
  56.9734573  71.8979549  65.2703619  81.1069393  48.5056019  66.9522619
  82.0336723  48.4489346  67.1850348  81.1044121  48.5953569  65.9992790
  26.0653925  68.2852316  53.5342884  25.3666925  68.6995840  54.0406084
  26.2762833  68.9219713  52.8514194  81.3432312  53.6224508  54.5856857
  80.7055950  53.9921188  53.9749527  81.3368034  52.6835585  54.3994856
  87.2279263  56.6211653  21.4690566  87.5495815  57.5129604  21.6012287
  87.1785641  56.5228128  20.5182028  65.8855629  56.6292620  23.9091325
  65.0317717  56.5040827  24.3233848  65.7188702  57.2498131  23.1996560
  31.2396502  67.3748827  43.4741020  31.1632466  67.4608088  44.4243717
  30.3433108  67.4704885  43.1521320   2.1683288  24.4400239  28.6322689
   1.7583212  25.2782631  28.4190130   2.3656446  24.0467620  27.7821851
  15.7907605  62.2186089  18.6446202  16.4557493  61.5327835  18.5840547
  15.5318427  62.3819351  17.7376914  81.3826084  36.5194631  54.2434406
  80.7928276  36.2632918  54.9524975  82.2232056  36.6730165  54.6747732
  25.1602221  22.2264457  30.2699256  26.0148764  22.5047636  30.5990720
  24.6420646  23.0306697  30.2388000  84.9466419  31.1448050   8.5752028
  84.5046616  30.5181193   9.1480434  85.3581905  30.6041265   7.9010147
  84.5602322  23.2961297  43.6310387  84.3528938  22.7704000  42.8584766
  83.8626099  23.0920863  44.2538738   2.0082477  52.4166727  30.4728723
   1.4194331  52.0091867  31.1080766   1.4830907  52.4969339  29.6766305
  17.3934054  56.9308424  25.8862519  17.3321068  56.2711906  25.1953554
  16.4926541  57.0444679  26.1895108  57.3958588  73.7986517  25.0526857
  56.6231918  73.9267874  24.5024157  57.4887466  74.6226835  25.5307817
  74.5458221  35.7345581  25.2876186  74.4732189  36.6346216  24.9700522
  75.4361010  35.6738544  25.6339526  20.6687450  80.0161648  41.7886925
  20.2505374  80.8752823  41.7317486  21.4388847  80.1606369  42.3384571
   1.6572651   9.8816419  51.2273264   2.1372187   9.3533164  50.5895615
   1.0796185   9.2586046  51.6682148  33.7130356  33.1906414  44.0447092
  34.6029615  33.5211134  43.9220142  33.7201190  32.3256564  43.6348534
  69.3888760  78.9819956  58.4364700  69.1557121  78.6670637  59.3097925
  68.9407730  78.3837032  57.8385687   4.8332465  39.0073252  33.6021066
   4.9884725  39.8726273  33.9807725   5.1682037  39.0736103  32.7078795
  32.2414041  56.4243746  35.8554244  31.8852901  57.2187805  35.4575157
  31.9717622  55.7198048  35.2662683  17.0914149  48.1608391  52.3857880
  17.4187350  47.4860334  51.7910337  17.6608849  48.1007767  53.1528139
   3.5297483  64.9790192  21.7574024   3.8253474  65.6345701  21.1256552
   4.0012509  65.1926184  22.5625682  31.9871640  49.8139715  28.4808373
  32.9283905  49.9845934  28.5156322  31.7570138  49.5577812  29.3739390
  29.9031353  68.0311155  30.2723885  30.8137226  68.1794596  30.5274487
  29.9556947  67.7120543  29.3714595  77.7892065  52.1453619  18.5147572
  78.5162497  51.9231987  17.9331350  77.7154684  53.0977154  18.4529841
  35.2026653  43.6342669  19.2132807  34.7164559  44.2351532  18.6486804
  35.1669645  42.7941370  18.7559652  51.5863895  26.0231733  26.0454154
  51.8743849  25.6886148  25.1960874  50.6420040  25.8674765  26.0564518
  41.1667156  60.6232357  24.0549350  40.3803396  60.4816628  24.5820022
  41.1135435  59.9635220  23.3634281   0.3136697  22.5575924  42.6698923
   0.4153441  21.6685581  43.0097628  -0.2325979  23.0010819  43.3188438
  38.4469771  57.2925758  52.8146029  39.3870521  57.1123409  52.8128386
  38.1394625  56.9689560  51.9678831  32.7080703  32.5756693  55.3320503
  32.2242093  32.5479221  54.5066166  33.6249471  32.6573896  55.0695848
  54.2731762  60.6126404  47.7480364  54.8950100  60.2054453  48.3511496
  54.7503757  60.6793690  46.9209576  77.3380756  27.5463486   1.7837554
  77.8225040  27.2021842   2.5341639  76.5101433  27.0660543   1.7924342
  86.9184113  11.2336254  26.7276025  86.8075180  11.9450057  26.0968304
  87.7644539  11.4086318  27.1396899  25.1748109  62.1860981  24.9208450
  25.1186371  61.7296362  25.7603192  25.3673196  63.0941868  25.1543999
  24.3295646  78.2177305  63.2451582  23.8484955  77.4028349  63.1010914
  25.1978731  78.0513191  62.8783035  82.8497505   6.0634243   7.4588513
  82.7467060   5.3201085   6.8646336  82.0297432   6.5504688   7.3776191
  43.8353205  63.9181709  61.6294241  43.8440561  62.9750061  61.4663267
  42.9825974  64.0838146  62.0314980   4.7498050   1.5880358  70.4139709
   5.3568637   1.2396263  71.0669041   4.1278183   2.1107569  70.9200621
  52.6299667   2.2139399  31.5764904  51.7215729   2.0067714  31.7958808
  53.0024242   1.3810021  31.2871456  35.6511903  62.2876835  19.2354441
  34.8522973  62.3103619  18.7086725  35.7778549  63.1935549  19.5175600
  21.9899917  35.2077317  37.2982645  21.3794136  34.4871306  37.4536943
  22.3077273  35.4445934  38.1695700  45.5545807  75.0073576  71.3780403
  44.8922062  75.3308964  70.7674599  46.3732576  75.3979492  71.0723639
  63.0183554  39.8375654  14.9413526  63.9706421  39.8464394  14.8448634
  62.8067160  40.6962299  15.3075981  13.5479987  74.0676928   2.3509254
  13.3441043  74.9925137   2.4900866  14.4503522  73.9728498   2.6558784
   5.0720453  22.0348120  20.7220006   4.3612882  22.0646501  20.0815582
   5.3884232  22.9368901  20.7708883  15.7501245  28.2156396  65.6787395
  16.6569555  28.1706214  65.3756475  15.3276777  28.8312745  65.0797653
  43.1619692  54.4351673  38.8279438  42.3029518  54.8574495  38.8306141
  42.9690361  53.5002327  38.7579370  75.3580379  31.5767169  33.2194710
  75.4462862  30.7926106  33.7613416  74.7010994  31.3421798  32.5639892
  86.3303185  30.7803869  16.9761229  85.7981205  31.4791703  16.5957379
  86.3994789  30.1263762  16.2806237   3.4068599  42.5643921  12.9326534
   3.7846982  41.9602680  12.2935092   2.6818395  42.9821730  12.4678576
  37.2733998  57.3800421  38.9290404  37.3840785  58.1564760  38.3802915
  37.8198385  56.7130804  38.5133481  16.5498674  21.4831090  28.3211255
  16.3526726  20.5504227  28.4073997  16.9605350  21.7190337  29.1529441
  23.4901929  65.7517338  69.7300100  23.1371260  66.0563564  70.5659437
  23.3687925  66.4915466  69.1348839  12.6182699  44.8581505  47.0153761
  12.4630034  44.1793537  47.6721573  11.8790126  44.7813654  46.4121866
  24.3638444  49.0516329  32.1341777  23.7629843  48.3085346  32.0793295
  24.0568018  49.5526505  32.8897810  64.2239285  75.7949114   6.1194491
  64.2296886  74.8718834   5.8660412  64.6325731  76.2482786   5.3820866
  73.6386061  43.4549427  31.1542034  74.4392490  42.9652786  31.3424373
  72.9895020  43.0939102  31.7579889  14.6468580  15.9498179  32.3255968
  14.0643466  16.6913664  32.1612263  15.3521764  16.3133681  32.8609371
  83.7750721  29.0099525   9.9033713  84.4218731  28.3061957   9.8522943
  83.2285595  28.7789273  10.6544936  17.4434352  72.3888016  50.7994699
  17.4765444  71.6940784  51.4571190  17.2990417  71.9290257  49.9724340
  23.3670425  46.0636187  31.2361741  22.6555443  46.0333776  31.8757725
  22.9398298  45.9025764  30.3948760   6.1488426  20.3321266  50.8481979
   6.7977148  20.0531173  50.2021742   5.8014292  21.1530972  50.4995680
  60.3114080  19.8196220  16.2643266  59.4392395  20.0201130  15.9246802
  60.8616114  19.7482228  15.4843211  21.8122506  34.6933699  58.1071424
  21.1652780  34.7925091  58.8055897  22.3874044  35.4523563  58.2039261
  81.3995171  42.4445581  58.2899284  81.9180107  41.8332052  58.8130331
  81.2686062  43.1994724  58.8636923   0.4726525  45.4212046  42.0438385
   0.2897559  44.5749044  42.4519539   0.1379198  45.3340387  41.1513233
  59.4228506   1.5283307   9.6362853  59.9646187   0.8120525   9.3051243
  58.6776304   1.5620494   9.0364999  28.6520362  46.2772274  36.1272717
  29.0712094  47.1226549  35.9666991  28.1491828  46.4080572  36.9311714
  19.5512986  69.2749310  15.7143390  19.7444546  70.0412607  16.2543952
  19.6261954  68.5335064  16.3151014   5.6172800  43.7596798  56.2343454
   6.4084196  44.2468309  56.0041046   5.7620400  42.8842688  55.8752775
  24.8828077  18.4356678  38.0226302  25.4952097  18.3475363  38.7529922
  24.6764994  17.5349092  37.7730250  54.1136456  69.1713619  60.6314993
  53.4259605  68.8681555  60.0387239  53.9555740  68.6938477  61.4458895
  33.2227135  74.5108986  21.2421417  33.7357306  74.7036314  20.4573488
  33.8394833  74.6243048  21.9653034  29.7228932  59.1261721  53.2416296
  30.3934073  59.1977119  53.9209843  30.1819229  58.7497425  52.4907446
  35.7827783  67.6092339  58.0147028  34.8347354  67.6613379  57.8933334
  35.9145427  67.7792978  58.9474154  26.9378161  45.3047848  24.0390992
  27.2650671  46.1019373  23.6223435  26.0396028  45.5181170  24.2919540
  49.3273592  69.9455690   5.2766639  50.0157785  69.5106363   5.7797998
  48.8642740  69.2320108   4.8377842  36.3731909  67.8531742  60.9421539
  35.6585503  68.0488300  61.5481615  36.9422507  68.6215544  60.9868336
  18.4121871  46.5217829  20.3700995  18.5940528  47.4204159  20.0951242
  18.4131253  46.0175133  19.5564985  14.5674646  76.8407249   7.9097080
  14.1271055  76.4067030   7.1789968  14.2578578  76.3751078   8.6866081
  65.2780247  15.6059921  -0.0668126  65.4378128  15.6430137   0.8762296
  65.8760166  16.2554431  -0.4367405  16.2702060  59.1966200  50.5738831
  15.4702878  59.0628004  50.0655031  16.2526894  60.1245451  50.8081532
  73.9114761  63.2104969  43.0936432  73.6212301  63.7782383  42.3797417
  74.5743132  63.7248898  43.5543776  11.1192715  46.0252190  66.2939310
  11.2060940  45.1674509  66.7097759  10.3530598  46.4177752  66.7123175
  34.1451693  36.3225341  28.2479477  34.3352842  36.0417104  29.1430593
  33.2483816  36.6549611  28.2865834  57.7199745  66.6380739  35.3601789
  58.0395126  65.7371712  35.4101562  58.2776117  67.0538616  34.7026110
  24.7696972  65.4621887  17.0823371  25.1968455  66.2873697  17.3122406
  25.1087856  64.8317814  17.7178180  73.2599258  50.1299334  39.8050237
  73.3848667  51.0756826  39.7264171  73.9297915  49.7516823  39.2354298
  38.4354424  38.9747405  37.0242286  39.3684602  39.1772866  36.9558001
  38.4046078  38.0256963  37.1450400  12.1906209  66.0038996  25.6104994
  12.9364610  65.4877090  25.3047204  12.3714697  66.1602974  26.5373588
  20.6681180  39.7787166  33.5988903  20.9300208  40.3615236  34.3116140
  20.0338197  39.1828990  33.9975166  17.3958826  56.6127491  29.9186325
  17.1496475  55.7976341  29.4813871  17.1423495  56.4805794  30.8321333
  30.6367421  70.3376627  16.7380416  31.1132336  69.8562574  16.0617018
  30.5792284  69.7258711  17.4719584  71.4719105  35.4572606  59.3950319
  71.6166162  35.4526162  60.3412199  70.6220722  35.0319123  59.2806196
  32.2362566  30.6660104  38.4051156  31.5760255  31.1001205  37.8648615
  32.3034501  31.2135816  39.1873455  20.8741283  33.1904101  26.7430234
  21.7275929  32.8982902  27.0631742  20.8389044  32.8805161  25.8380604
  17.3115015  38.1053233  41.8166637  16.8635178  38.4446430  41.0418034
  16.6439354  37.5948834  42.2749615  54.8410702  82.5197124  59.8655796
  55.7330370  82.8667641  59.8518991  54.6217012  82.4595737  60.7953596
  85.2698803  64.4880104  29.0150356  85.2074814  64.1623306  29.9129605
  84.3609428  64.6092844  28.7405372  22.6562285  54.1232300  29.6116805
  21.8808985  54.3479347  30.1260734  23.3344865  54.7202730  29.9274921
  41.1774445  66.1729383  44.4734859  41.1801767  66.9202423  43.8753557
  41.1398268  66.5646744  45.3460455  33.3361602  58.0642557  27.9795837
  33.1517196  58.0790281  28.9187288  33.8967609  57.2980404  27.8576183
  59.1389704  65.5552006   0.6127603  59.0287542  66.4828539   0.4040918
  59.7713995  65.2381611  -0.0320280  80.6830883  28.9465690  31.6312432
  80.5592346  27.9974437  31.6238356  81.5210724  29.0752935  32.0755959
  36.7197490  51.9160748  27.8297591  36.9490075  52.6847506  27.3074460
  37.4803162  51.3397980  27.7544403  69.4983435  56.4803314  12.6403105
  69.6380472  55.9150505  13.4000289  68.9950609  55.9413385  12.0300424
  16.9813144  56.3273573  59.2950630  16.6414428  55.4325628  59.2871952
  16.9931555  56.5871716  58.3738708  81.3547897  15.4655123  39.4011045
  81.0692978  14.9883997  38.6219454  81.5536785  16.3461983  39.0831900
  68.1164455  63.9155245  19.1576266  68.1382513  64.8497581  19.3648982
  67.6004982  63.5256004  19.8633134  55.7807064  78.9401674  67.4124098
  56.4677525  79.1035986  68.0585432  55.3285503  78.1608105  67.7355051
   7.0646805  46.2010050  18.1656039   7.2892153  45.9764004  17.2626257
   6.9972676  47.1558285  18.1652367  17.0774090  69.8778725   6.2590212
  16.7653739  68.9733267   6.2847453  17.0609105  70.1629972   7.1726197
  76.4605618  46.5185738   3.3258203  75.5279398  46.3235188   3.4174892
  76.5950155  46.6076565   2.3823068  13.5227811  81.9463825  18.7264216
  12.8409171  81.6263390  19.3170655  14.1605473  81.2336254  18.6883092
   5.2616382  50.2352428  10.8411241   4.9446511  50.9371233  11.4095557
   6.0854137  49.9566698  11.2411535   8.6143947  27.3929262  65.3349018
   7.7465248  27.7704144  65.1915884   8.6122906  27.1301913  66.2553310
  68.3297634  78.0328560  64.8831701  68.3490229  78.2076693  65.8240747
  67.4018288  77.9140282  64.6805811  15.2289045  48.6100483   4.4648349
  15.2271676  48.9641619   5.3541225  14.3656051  48.2087994   4.3651235
  10.1608586  67.0268822  14.8471141  10.9263408  66.8513536  14.2998850
  10.0702953  66.2440729  15.3904736  26.3753128  81.1592865  49.6602345
  27.0197535  80.4979897  49.9124479  26.7270350  81.9801331  50.0048065
  19.4762480  61.8902636  54.0210199  20.2789259  62.0214558  53.5163116
  18.9651299  62.6851749  53.8690233  85.6116772  33.7629986  53.4237146
  86.2126160  33.0311441  53.2840872  84.7818279  33.3494711  53.6615753
  16.1533892  31.0360718  51.7845869  15.3245401  30.6447506  52.0604610
  16.4033830  30.5419850  51.0038042   9.1326368  18.9851654  39.2377973
   9.5402688  19.2105782  38.4015822   9.7556651  18.3904254  39.6553516
  23.8589001  81.3189983  11.9698834  24.0107560  82.1865368  11.5949881
  24.3251300  80.7207775  11.3859355  30.4237533  54.9244785  17.9264414
  29.9871016  54.8404789  17.0787919  31.2331891  55.3974009  17.7330744
  53.4627867  28.8803101   4.7343463  53.6748791  28.0322099   4.3445063
  53.2170963  28.6745882   5.6363153  12.6576102  51.5188456  42.1279526
  13.2822442  52.1782494  41.8258810  11.8306088  51.9933319  42.2125912
  38.8563967  51.1089468   9.1250682  39.1095352  52.0269632   9.2220122
  38.7413335  50.7961798  10.0223815   2.7956840  44.8958731  11.4462042
   3.4036693  44.9421310  10.7083392   2.3242339  45.7285261  11.4206481
  17.0113266  61.8962288  36.5507674  17.6364315  62.5744724  36.2949133
  16.1563551  62.3217297  36.4859104   6.5098584  77.0552254  14.4279802
   6.1589909  76.2663221  14.0147555   5.7784426  77.6726866  14.4250190
  76.4163589  57.7236414  18.7408066  76.1593056  57.1005774  19.4204724
  75.9674454  58.5351849  18.9776695  60.0266886  64.3151808  41.0080624
  60.5605888  63.5427713  41.1939859  59.1711760  64.1116476  41.3860798
  31.3168693  65.8529186  34.1811848  31.3807106  66.7747307  34.4310188
  32.2253466  65.5680704  34.0823746   6.3235086  60.0517321  15.1304030
   6.9711024  60.6391573  15.5199981   5.8171976  59.7260571  15.8745921
  17.2834194  81.9928741  33.0302715  16.8844533  82.0043182  32.1602559
  18.1510484  81.6133499  32.8909206  24.2864156  78.3859873  66.1921644
  23.7182736  77.7481508  66.6241598  24.3055129  78.1081581  65.2763700
  30.8980656  61.9463205  36.5482759  31.1959887  62.7423763  36.9884682
  30.3764820  61.4888573  37.2077513  15.7635105  25.0379992  31.0966277
  16.2030745  24.6508551  31.8536830  15.6868947  25.9671688  31.3134384
   3.6589739  61.0146904  45.7603788   4.2952394  60.5606890  46.3128996
   3.0192679  60.3413486  45.5288267  12.1319938  60.5719757  21.1837053
  12.8449726  60.7144642  21.8062735  12.3813486  61.0821390  20.4131269
  41.7637825  33.9995408  15.7804024  41.1641884  33.2574940  15.8584201
  42.6346827  33.6027956  15.7614613  50.6670284  68.0777121  30.6642509
  50.0280428  67.4024868  30.4362178  51.4167786  67.5917530  31.0076952
  83.4834480  64.0848494  26.1982489  83.7828732  64.8274708  25.6737566
  82.5565529  64.2626238  26.3579106  65.9891462  22.3087668  18.2394397
  65.9815741  21.4144564  18.5805917  66.3334942  22.8369403  18.9596403
  84.3339729  77.9972363   8.2975322  83.4306717  77.7264214   8.4616220
  84.2992878  78.4484148   7.4540472  84.2708015   0.8454367  53.7975550
  84.4178009   1.7772633  53.9597988  83.7421036   0.5535072  54.5401764
  84.3475819  55.7360363   4.3107235  85.1524258  55.8070564   3.7974805
  83.6606693  55.5907393   3.6601290  60.8668423  81.1685753  15.8644187
  61.3949585  80.5657196  15.3410745  60.7884645  81.9523430  15.3205490
  66.4149523  24.1831827  37.8814936  65.8709717  24.8929286  38.2229328
  67.1904516  24.1846156  38.4425855  29.3567920  31.7444849  13.4155273
  28.8287044  32.2118640  12.7682948  30.1516843  32.2708201  13.5012579
  35.5758095  58.0222845  19.5193982  35.0891137  58.2301474  20.3169894
  34.9262929  57.6253128  18.9390731  14.1684747  33.9445877  20.9015608
  13.2904673  33.8087249  21.2577605  14.4599414  33.0703020  20.6429052
  33.8307714  13.5325432  45.5811262  33.8355160  14.4437432  45.2880001
  32.9199696  13.2545280  45.4842806  41.5119886  76.8598080  25.4212832
  40.7646370  76.2625504  25.3899908  41.7282295  77.0211983  24.5029020
  44.7265339  67.0517826  51.3403416  45.0780582  67.7410173  51.9039154
  45.1314354  66.2473869  51.6647387  78.0963326  20.1750922  15.9938633
  78.3821487  21.0678315  15.8000648  78.7850904  19.8197246  16.5556145
   2.4182235  47.2935390  16.8104100   2.6085994  47.1165514  17.7316403
   2.6106912  46.4692926  16.3634157   4.7720334  63.8774347  60.3176022
   3.8305539  63.7875652  60.1700544   5.1338011  64.0617561  59.4507790
  74.9160910  25.2231097  38.0013371  74.8652935  24.3459082  37.6216388
  74.7613668  25.8128309  37.2634220  81.9861031  63.6974764  62.0709705
  82.8223991  63.6279774  62.5314236  81.3631821  63.9684391  62.7453470
  87.0306015  82.3509979  10.2037024  86.1637688  82.7033806  10.0020695
  86.9281197  81.4026546  10.1239467  12.1612728  64.5191383  33.8695669
  12.3473620  64.7073460  34.7894478  12.9642010  64.7615767  33.4083056
  57.9827690  44.9512720  58.0142117  57.7337885  45.7936859  57.6339817
  58.0721140  45.1282024  58.9506626  63.2923841  13.2697046  59.2349005
  62.7384186  13.8661563  59.7384834  63.4796858  12.5502396  59.8378277
  21.9174957  56.3288116  12.3628449  21.8686962  55.3763056  12.2817039
  21.5413046  56.5155029  13.2229948  85.0760174  62.9984951  31.5511417
  84.4934464  62.6594162  32.2307515  84.7627926  62.5926352  30.7428074
  38.1816101  58.1410980  21.8293285  37.9025722  58.7855244  21.1788797
  39.0971255  58.3586788  22.0046115  22.2452784  73.3277464  34.9427605
  21.6914892  72.8481293  34.3267131  22.9861069  73.6272430  34.4157791
  72.3401594  55.6653500  61.0940695  72.7108002  54.7882080  60.9967041
  71.6175079  55.6909847  60.4668999  24.0668869  41.9933987  33.4618139
  25.0059509  41.8708420  33.3226323  24.0078211  42.7521133  34.0424109
  18.2020664   0.2232314  13.9801824  18.9986122   0.4837739  14.4426370
  17.8421724   1.0433183  13.6422992  20.3030562   1.6611406  54.3709278
  20.5578446   0.7538969  54.5389271  19.3476677   1.6563909  54.4295692
  61.7491531   0.4869019  53.6643314  62.4225235   0.6914621  54.3131447
  60.9749222   0.2688931  54.1832399  29.2627931  71.1678600  71.2895298
  29.4703102  71.0061836  70.3691912  29.8089218  71.9161892  71.5303183
  69.1547394   6.3139051  30.9782624  68.2538652   6.1546540  31.2598658
  69.6929646   5.8835441  31.6425896  28.1910682  57.4039459  14.6372926
  28.3587885  58.2106686  15.1244259  27.2454238  57.4058962  14.4890177
  18.6622906  44.2025566  38.1078672  19.3674135  44.5272636  38.6678648
  18.0429864  44.9305773  38.0561352  83.9058208   8.6149329  42.9011297
  84.6798611   8.3256662  43.3842516  83.4405518   7.8060925  42.6877403
   4.3476766  52.8286791  26.2642407   4.8601183  52.8085566  27.0724678
   3.6825657  53.4994364  26.4189839  84.2286396  20.1222706   2.0084581
  84.8437119  20.6317425   2.5360599  83.9298439  20.7318401   1.3336430
   6.4287227  41.2451601  41.7934990   6.4150387  42.1513748  42.1014309
   5.6440234  40.8509111  42.1743488   4.4705635  59.0366364  16.9538844
   4.0973559  58.2714367  17.3913968   3.9358121  59.1475868  16.1677790
  81.9407845  55.2604103  37.7811790  81.2628269  54.6790409  38.1255937
  81.4620209  55.9025860  37.2571230  64.4543409  22.3173785  29.5456386
  65.1663065  22.8416848  29.9123049  64.8883057  21.7094421  28.9470434
  51.1616755   3.0510148   9.8968554  50.3210735   2.9823330  10.3495204
  51.6744757   3.6547232  10.4342592  27.9518080  47.6434422  27.6217222
  27.0849705  47.2540379  27.7365446  28.5579491  46.9072294  27.7042627
  48.1577826  81.5132713  24.3699026  48.1022072  81.8198395  25.2749753
  49.0933847  81.5299702  24.1683912   6.6350996  50.0421476  33.8161540
   6.3239568  49.1418886  33.9107752   6.8445599  50.1266527  32.8859830
   1.1743135   7.8555477  70.7213116   0.8235212   8.7349665  70.5806065
   1.7326364   7.9412049  71.4940786  75.0120497  76.4270592  69.7249556
  75.7871962  76.1132669  69.2592144  74.9460125  75.8572197  70.4912186
  83.0887985  32.6693606  54.1549683  82.5871658  31.8635607  54.0313530
  82.9223061  32.9180455  55.0641823  66.0462618  52.1407461  34.6899629
  65.6128693  51.4582872  35.2024579  65.6696653  52.9590082  35.0137806
  58.1149912  68.8432932  52.7159786  57.3174953  69.2233515  53.0844736
  58.7917566  69.4996643  52.8815079  28.1207323  65.5006647  15.6913555
  28.6189914  65.5808926  14.8780096  27.3169374  65.9945869  15.5295396
  61.3440943   0.7229333  27.3842144  60.7164383   0.2337116  27.9161382
  61.9254446   0.0534970  27.0234942  28.6035752  42.5734854   7.0030403
  28.4815335  43.5158348   6.8876708  28.9809155  42.2776413   6.1745936
  82.8045464  15.9107459  28.0759430  82.3379326  16.5759099  27.5699234
  82.9835320  16.3314033  28.9169216  77.4013948  51.8620539  60.1925707
  78.1876707  52.1457624  59.7261953  77.2137928  52.5758553  60.8020973
  15.5566454  67.9572439  43.4024954  15.1237810  67.4832201  42.6924515
  16.4502358  67.6142025  43.4096336  11.7755711  33.7695742  68.6138201
  10.8772087  33.6416388  68.3091736  11.8209863  34.6979260  68.8425875
  40.8774471  66.1214209  52.7123499  41.5954876  65.5662966  53.0164671
  40.0939035  65.5836773  52.8269148  20.9596252   8.0974001  17.3163295
  20.5108762   7.3542100  17.7194738  21.6485691   7.7006978  16.7832112
   5.2984935  77.1354961  21.3178849   6.0346198  77.0350695  20.7143426
   5.2390593  78.0789375  21.4682674  31.3224053  53.2575560  10.9986794
  30.5090189  53.1514215  10.5053520  31.4310908  52.4274731  11.4627790
  21.5075040  78.9410782  27.1012831  21.5129137  78.9831972  26.1450243
  22.0548630  78.1842852  27.3107934  64.1001892  65.7671499  24.3163848
  63.4214973  66.4158535  24.1298699  64.7669029  66.2513256  24.8035145
  83.9657688   2.7158496  70.5308962  83.7038136   3.6300293  70.4218674
  83.8469982   2.3276523  69.6640444  33.1253433  44.6771765  38.4680367
  32.1932817  44.8758125  38.5576844  33.2192874  43.7981510  38.8350892
  47.3010397   6.4634913  41.4773750  47.6650333   6.6880494  42.3337126
  46.5313339   7.0256686  41.3894033  42.7341700  54.0343714  23.6921740
  42.4532270  53.2071781  23.3009529  43.6729860  54.0784788  23.5107470
  28.6305881  66.6817236  23.0383396  27.9269147  67.0697403  22.5182271
  29.0815616  67.4308205  23.4278393  46.2223673  80.6896019  50.2124119
  45.3720236  80.6880188  50.6519032  46.0381699  81.0264587  49.3355846
  84.4766045  12.8999329  23.4345841  84.5800781  13.0228233  24.3782067
  83.7952709  12.2325504  23.3532524  27.0806623  52.0548153  28.8731933
  27.7415586  51.4350605  28.5644031  26.7455673  52.4647188  28.0757451
  76.4230824  57.8775358  14.8950267  77.3328161  57.9202509  15.1896369
  76.0216284  57.2114706  15.4530811  86.9252491   8.2451147  39.3042684
  86.3022041   8.5109532  38.6279702  87.3018360   7.4288392  38.9754677
  14.7675276  17.0102608  46.9022512  14.9970961  17.8584576  46.5226555
  14.8532569  17.1394813  47.8468037  43.8820601  10.3033507  67.8902292
  43.9008427  10.8788085  68.6548996  44.3326235  10.7989299  67.2063971
  37.0422125  72.4152660  30.7184243  36.9841933  71.9012117  31.5237904
  37.0755816  71.7622566  30.0193548  64.6149826  10.5508018  30.9778833
  63.6954975  10.5135918  30.7144499  64.6075249  10.3199565  31.9068003
   9.6476114  67.2148848  43.7268019   9.8025483  68.1474161  43.5764360
   8.6943555  67.1310425  43.7492800  21.2245107  47.4556351  48.7939692
  21.1984134  46.6805315  48.2329321  22.0986509  47.8209162  48.6572886
  28.9356279  43.1158400   2.3442878  29.4986987  42.7016735   1.6903380
  28.4636569  43.7930155   1.8596110  18.7090015  48.7614155  39.7250485
  18.2595181  47.9795361  39.4043207  18.0377197  49.2417145  40.2097368
  76.8908167   0.0791340  38.3154273  76.0670328   0.4317355  37.9788518
  77.2431374   0.7780455  38.8664484  51.3650274  68.5716772   6.6739458
  52.1444988  68.3074331   7.1626455  50.6496954  68.0837584   7.0819533
  13.2551396  57.9604626  37.8198791  12.6988661  58.3444357  37.1421218
  13.2341588  58.5959435  38.5353875  57.9995298  15.0067997  23.5253072
  58.5384130  15.7879674  23.4003687  58.4834385  14.4814026  24.1625047
  63.1863165  14.5001793  55.0752640  62.4504709  15.0885952  54.9063492
  62.9599190  13.6942065  54.6111727   0.6446597  66.6718245   8.9183456
   0.1470089  67.4850798   9.0031344   0.1978353  66.1889887   8.2230401
  47.4018908  82.0638275  57.5083828  48.3029270  82.2701550  57.7569675
  46.9094515  82.8592873  57.7107954  70.7727718  81.0998917  14.9675405
  71.1952877  80.4839420  14.3689501  71.4981556  81.5690231  15.3798187
  22.2581530  72.5401974  18.7036991  22.1638203  72.8411198  19.6074581
  23.0222058  73.0122471  18.3725977  57.7633333  44.9625969  11.2491834
  58.1868792  45.4134703  10.5187368  57.3408508  44.2026186  10.8489668
  72.2631931  35.7908535  62.4131346  71.7468119  36.1043835  63.1556177
  73.0875206  35.4977083  62.8014517  25.9828401  50.5106068  14.8615777
  25.3511190  51.0027838  14.3372428  25.5320215  50.3491163  15.6903815
  62.0766354  80.2605057  41.9118738  61.8788052  80.7013607  41.0855913
  62.8161955  79.6883869  41.7070198  70.8675194  12.7820539  55.4678440
  70.1345825  12.2120416  55.2351999  70.5654907  13.6629653  55.2464676
  38.2753396  65.7793808  50.7458544  38.5005879  66.6456652  50.4066706
  37.8273368  65.3466415  50.0190401  17.1494210   1.7325436  41.0915899
  17.1152413   1.5274902  40.1572371  16.8940091   0.9182101  41.5250158
  80.2062035   0.7369322  32.2619534  79.8188353   1.3472725  32.8893805
  80.4953766  -0.0034393  32.7952981  52.5070429   2.8943849  36.5583515
  52.5729561   3.7031060  36.0505533  51.8587351   2.3691711  36.0892200
  57.6477814  50.4141998  52.5615358  58.5555458  50.4953861  52.8541231
  57.2199774  51.2069130  52.8852987  85.6326389  46.2794161   2.1572551
  86.3428497  45.8946753   1.6436331  85.5719376  47.1817827   1.8437493
  64.4171619  22.9138398  34.8244643  64.4700909  22.2982502  34.0933824
  63.5619211  23.3318591  34.7241497  87.8097153   2.4754629  33.3872628
  87.3647404   1.6283105  33.3637118  87.1486855   3.1015247  33.0917811
  14.8080564  60.3174400  26.9289684  15.3865552  59.6318245  27.2628927
  14.1071403  59.8427868  26.4821386  75.2610779  55.1596022  63.3942318
  74.3794394  55.0166416  63.7384844  75.1217270  55.5836821  62.5474930
  28.1135869  50.0958300  13.1080341  27.4608254  50.1829815  13.8026857
  27.8109980  49.3520832  12.5869644  27.1963644  74.9178219  64.2048836
  27.4514079  74.9409866  65.1271868  26.2641740  74.7009373  64.2195320
  26.7466331  79.2151594  31.5051079  26.2061238  79.2307472  32.2949433
  26.1269760  79.3500662  30.7881308  29.8945689  67.7630806  67.3184395
  29.8207140  66.8340635  67.5368595  29.5803142  67.8227329  66.4162636
  57.4685812  75.1850128  53.6237478  57.3069429  76.0392475  53.2232618
  56.9885540  75.2138138  54.4513798  40.2665710  19.7630870  14.3690836
  40.2817202  20.4690599  13.7228608  39.9238968  20.1727891  15.1634061
  48.3922720  10.5793560  24.8182797  48.0637217  10.0131071  25.5165982
  49.3386459  10.4358077  24.8188305  69.1903734  63.1592989  46.5240240
  68.3846474  62.8590584  46.9446135  69.1944313  62.7203846  45.6733894
  31.8584180  68.3289194  14.7971356  31.8802977  68.4699488  13.8506341
  32.6210237  67.7784252  14.9749577  29.3096852  46.2924147  66.5513659
  29.3902707  47.1060848  66.0536909  29.1119051  46.5761566  67.4438953
  21.0584188  63.7907314  23.2874203  21.6170406  63.4049129  23.9621902
  21.6191411  64.4311857  22.8496504  43.4244823   0.8833975  21.5633583
  44.3490410   0.8700281  21.3158870  43.2483196  -0.0027490  21.8794942
  75.1866674   7.6554185  34.5753646  75.3275251   7.7756459  33.6362505
  75.5719709   8.4341836  34.9769807  49.8318005  63.5883093   3.7699905
  49.6408510  64.2387152   3.0941668  50.6805086  63.2239008   3.5187235
   2.2122860  37.8653598  62.9514408   2.8111175  38.5905528  62.7733135
   1.3397826  38.2400107  62.8305864  38.3971214   1.3226742  34.3833852
  37.9658389   2.0341286  33.9100337  39.2193818   1.7038007  34.6913767
  68.9434671   6.2810332  27.0300817  68.1373644   6.5238667  27.4855614
  69.5580053   6.9844478  27.2393250  25.2234888  73.2687855  42.6890564
  25.3402567  73.9684677  42.0463753  24.2891955  73.2874584  42.8963661
  13.0810320  66.6832542  28.1076717  13.6318564  65.9832191  28.4580612
  12.4578404  66.8716145  28.8093734  83.9186287  81.9155979  45.6997108
  83.5732174  82.6128483  45.1422548  83.1436729  81.4332294  45.9878111
  19.4603193  50.9672403  25.4704428  19.5792365  50.4335499  26.2561035
  18.5139894  51.0981417  25.4107904  79.9354982  65.4955530  35.3064489
  79.4233036  66.3041592  35.3137636  79.6191359  65.0185728  34.5392227
  56.9370222   9.6055168  30.0905800  56.9115114   9.3350232  31.0084105
  57.5771713  10.3168118  30.0682116  51.5369749  49.3085146  30.0175047
  52.0750761  50.0963974  29.9405837  51.1607218  49.1893625  29.1454577
  33.8644314  47.3122740   7.9106390  34.0676379  46.8967390   7.0726240
  34.2183208  46.7125607   8.5674012  48.0262327  71.9169474  40.1296854
  48.6705256  71.5096092  39.5507312  48.4798670  72.0060110  40.9678507
  76.6972113   4.6752748  22.5460458  77.4792862   4.7000620  23.0973887
  76.7921066   3.8736343  22.0316553  52.6457357  72.4304771  32.2858882
  53.1831741  72.1665478  31.5390730  52.0556211  71.6906643  32.4296594
  41.6147041  72.8283453  41.8403387  42.3171759  72.1835279  41.7568016
  41.3527632  73.0153131  40.9388590  56.3709259   7.1948081  19.5152700
  57.1099758   7.7153009  19.2004323  56.6909790   6.7864585  20.3196645
  17.0585132  57.5761843  19.5146668  16.3469803  56.9457865  19.6267223
  17.2012055  57.9345226  20.3907156  28.0064344  40.8990383  20.8031082
  28.1802392  41.8254185  20.9699726  28.1320715  40.7979393  19.8595905
  55.5199289  55.0432491  38.2393527  56.3196230  54.9417496  38.7555122
  55.8119202  54.9785376  37.3300743  44.0890694  60.7035208  46.1132956
  43.7273932  60.4121017  45.2763367  45.0090027  60.4410028  46.0810947
  12.0623243  27.8102422  55.4526329  12.6635933  28.0009103  56.1725998
  11.9288933  26.8633962  55.4963875  21.7158580  54.8722410  36.4396167
  20.8012795  54.7155190  36.6745949  21.7533064  54.7046709  35.4979420
  28.6323309  47.9769611   7.2659481  29.3148851  47.7526236   7.8984225
  28.0425334  48.5581732   7.7461189  25.3913593  69.3775558  49.4110537
  25.9310937  69.7207642  48.6989260  26.0077715  68.9105082  49.9750853
  43.7466574   0.8571863  41.1511850  43.7761259   0.6936418  42.0938492
  42.8145027   0.8407652  40.9342718  83.3342934  58.5478830  37.7866173
  82.8738689  58.0703974  38.4767270  84.1849709  58.7616587  38.1698632
   3.7314758  63.5730839  45.9492064   3.5059145  62.6431894  45.9237146
   3.2526952  63.9150620  46.7042255   3.8798171  57.7467918  36.0815883
   4.0747809  57.2955227  36.9029140   3.4276882  58.5468578  36.3493657
  35.7073975  62.5255156  32.0075035  36.3932085  61.9708776  31.6356516
  35.0524449  61.9092321  32.3353243  30.8447218   0.9488871  61.0804892
  31.4701939   0.3149638  60.7295513  30.4231715   1.3229305  60.3067827
  46.9023514  66.2411642  36.7059588  47.1543598  66.8482780  37.4017549
  47.4786568  66.4626408  35.9744859  15.3679729  68.6149359  37.0958185
  15.9259236  69.1320038  37.6768231  14.4788718  68.9100122  37.2924423
  81.3419151  57.4052811   5.8586252  81.4986134  56.4760685   5.6905782
  82.1825123  57.8262997   5.6787014  49.6849060  26.8652487  15.3725839
  50.0634432  25.9883976  15.4364061  49.3014240  27.0239401  16.2351334
  28.2309628  58.1874800  23.5534501  28.0498576  57.2881126  23.8265371
  29.1616607  58.1870604  23.3297753  65.0529671  75.4842949  30.6231713
  65.0507021  74.6040964  30.9993100  65.9799242  75.7126427  30.5535936
  55.3315449  55.1779699  35.5249619  55.7186890  55.7983255  34.9072957
  55.8724499  54.3922091  35.4459810  35.8390403  69.1218328  45.9743071
  36.1521983  70.0222349  46.0605478  36.4563870  68.7104368  45.3694391
  57.6354265  13.3996928  34.2418361  58.0732155  14.1780341  34.5864463
  57.9379082  12.6862323  34.8037148  63.5129690  66.8156290  34.0065885
  63.8242626  65.9511805  34.2750168  63.9152718  66.9597483  33.1500769
  24.0813184  41.7152882  58.3436203  24.4692636  40.8565426  58.1754398
  23.2494617  41.6991472  57.8703499  50.1793766  50.7402182  39.5034313
  50.1281929  51.6700649  39.2820835  49.6718311  50.3029728  38.8197327
  49.0628147  53.3307743  46.2423563  48.7923050  52.4256516  46.0880470
  50.0192022  53.3030319  46.2142038  29.8207045  72.3159456  29.7306371
  29.6033168  72.6571274  30.5981421  29.2908645  71.5233374  29.6453142
  10.8880973   2.4694671  37.3034501  10.1682198   2.7224261  36.7255044
  11.2169373   3.2976547  37.6530218  64.6527672  64.3580198  59.5687389
  64.7980022  65.3036928  59.5977688  64.5624208  64.1012907  60.4864311
  52.0685959  61.1736155  66.4245081  51.7448711  61.8188810  65.7959604
  51.3830805  60.5063629  66.4573193  31.8040061  79.9946499  38.5385180
  32.3814821  79.9306679  37.7778220  32.3819160  79.8613119  39.2898321
  17.1927035  74.3612623  61.1126614  16.8732655  74.1208792  60.2429438
  18.1316268  74.1776133  61.0821676  13.8409436  64.9434853  43.2452393
  13.1143641  65.4150248  43.6526251  14.1754842  65.5463839  42.5812912
  30.7808447  70.5530500  34.4876552  30.1402783  70.9952259  35.0447822
  30.3406787  69.7508097  34.2067719  71.5527964  79.2461348  44.9868345
  71.6409159  78.5401583  44.3464708  71.4211655  78.7970448  45.8218336
   6.2181759  76.5484762  57.3419571   6.4467216  76.2491798  56.4619493
   6.4286625  77.4822426  57.3395634  12.0857060  54.4980812  18.4304738
  11.3740957  54.0138531  18.8492382  11.6848576  54.8893738  17.6543009
  37.6544189  65.3524065  59.9664783  38.3899355  65.2609634  60.5721903
  37.3247099  66.2374735  60.1219654  47.7403879  56.4459467  48.9504576
  48.2851601  57.1847725  49.2217445  46.8481207  56.7924690  48.9534330
  52.9694748   4.5550048  11.9453812  52.6357317   5.4233193  12.1709394
  53.9215183   4.6477562  11.9805849  17.8545713  30.9388518  13.7500954
  18.7520504  31.2024617  13.5469413  17.4822521  31.6912103  14.2100585
  32.3381162  67.3144054  21.0389113  31.5638089  66.8056965  20.7982993
  32.0887685  68.2234192  20.8722997  83.4625435  58.5841179  28.4545636
  83.7204266  59.0459061  27.6567626  84.0361023  58.9399481  29.1332817
  19.9363768  73.2058287  23.1157660  20.3712797  73.9208746  23.5803127
  19.1829908  73.6180639  22.6930332  56.2374163  57.7809048  60.9702444
  55.7851267  57.0267773  61.3483381  56.1878920  57.6405430  60.0246859
  26.9474864  73.7260342  46.2798357  27.3580050  74.5907354  46.2802744
  27.5629210  73.1689596  45.8032417  23.6927557  54.8972797  33.8197565
  24.3634605  54.6846294  33.1707835  22.9091573  55.0829792  33.3023381
   7.5706261  22.4636245  25.4092002   6.6881311  22.2851729  25.7341456
   7.4663985  23.2252598  24.8388672  49.3989754   0.6942338  48.8448668
  50.1825476   0.6912678  49.3946314  48.7006044   0.3844931  49.4215584
  87.3349190  62.4413490  42.6632261  88.1658936  62.1730614  42.2711277
  87.5749874  62.7773857  43.5267591  43.7603378  51.9695044  51.2783670
  42.9968596  52.3091125  50.8114624  44.4957924  52.1380377  50.6893587
  74.0787935  63.0206490  26.8473029  73.2101011  62.7408409  27.1359515
  74.2875290  62.4383831  26.1168051  -0.0606785  56.5361643  16.5756369
  -0.4226429  57.0742083  17.2797120   0.6786924  56.0806561  16.9782209
  79.7362900  77.2641039   4.9814409  79.3866682  76.8626976   5.7769686
  78.9888096  77.7203035   4.5949367  52.2598076  62.7211809  42.2612619
  51.4414072  63.1065559  42.5742102  52.5293827  63.2865477  41.5374374
  85.0824928   7.1112913  68.2646561  84.5692635   7.6297826  68.8843298
  85.9628963   7.4839520  68.3120441   1.6386665  17.1724546  59.7503805
   2.0524026  18.0005133  59.5067167   2.2286355  16.5003824  59.4090748
  55.8837223  75.1045895  45.1330185  55.8689022  75.2309132  46.0817289
  56.5564966  75.7099152  44.8212719   2.6619697  48.5852385  30.0988650
   1.7188933  48.5537815  30.2596426   3.0517021  48.6465788  30.9709764
  79.8936415  23.3781147  11.6891217  80.3604889  23.3803725  10.8534908
  80.4782867  23.8382721  12.2913504  41.2729359  15.5623007  35.2470064
  41.9797182  15.2532351  35.8137250  40.5379009  15.7130098  35.8413482
  83.1113148  48.9535379  47.6588535  83.6656475  49.7329998  47.6217127
  83.6668873  48.2832623  48.0567265  53.0238533  10.4804075  44.6044779
  52.4073648  10.9278679  44.0248632  53.6898184  11.1394334  44.8004436
  14.9540949  77.0755053  49.1901255  15.4851162  76.7654562  49.9236917
  15.5781484  77.5122976  48.6104679  79.3018961   1.9681992  24.1851783
  78.8082981   1.8472400  23.3740306  79.3891382   2.9173434  24.2731905
  16.5592873  79.4912910  15.2665269  16.0255265  80.1033497  14.7598553
  16.7701662  78.7901831  14.6499181  15.5945539  36.4983153  45.6823874
  16.2955105  36.4739418  46.3337660  14.8633945  36.9208646  46.1330462
  31.9054151  22.6061535  41.2703896  32.2828650  21.9112539  41.8097210
  31.6828966  22.1748614  40.4453421  70.9983492   8.2438302  29.9999261
  71.3203096   7.8425139  29.1927576  70.3858471   7.6017767  30.3588676
  50.2293730  48.3762980  16.1925519  49.4435978  48.4065485  15.6467748
  50.5298519  49.2843294  16.2303376  31.7575669  48.9985275  30.9981060
  32.2177100  49.4785500  31.6866374  31.0106039  48.5984039  31.4432812
  23.8313437  61.8664360  44.1552067  23.7790704  62.2787142  45.0174904
  24.4184065  61.1209965  44.2813349  30.6036234  39.7896218  71.9041729
  29.9095988  39.1825962  71.6471148  31.1733818  39.8408842  71.1367226
  56.0794973  16.8442738  28.1120729  56.4840460  17.0924509  28.9433241
  56.7247391  17.0896459  27.4489856  49.5801258  59.3728542  27.2218180
  49.6693182  58.6663818  27.8614855  48.6469793  59.3869257  27.0090580
  62.8945637   1.1028411  36.3183618  62.8193331   2.0489065  36.4429903
  62.0201778   0.7653722  36.5127683   5.4161495   6.6314745  69.7436523
   4.7118196   6.0372704  70.0026369   5.5132341   7.2263265  70.4872656
  68.3885050  16.0161173  48.7554932  67.6687479  16.1564386  48.1402731
  68.6814404  15.1216257  48.5814095  13.4307251  13.6427003  -0.0157852
  13.1552992  12.7262288   0.0054102  14.3597994  13.6189443   0.2133350
  16.2642169  46.7205763  58.4567213  16.5429556  45.8061647  58.4078932
  16.7578173  47.0824623  59.1926765  32.7532959  63.8661766  43.1845284
  32.6908612  64.2356634  42.3037243  31.8442130  63.7610483  43.4651518
   6.7548108   7.7833265   9.3102366   6.8786067   7.7952820  10.2593219
   7.3781794   8.4299117   8.9792216  41.7933750  80.4412842  33.5499406
  42.3042870  80.4552460  34.3592668  42.0356560  81.2505245  33.0997586
   9.6952045  21.1717629  54.1818333  10.1213205  20.3316379  54.0119791
   8.8673168  21.1213398  53.7040329  31.6282630  73.9882231  23.3106971
  31.9616222  73.0919886  23.2675123  31.9921780  74.4167233  22.5359797
  83.9789963  16.5624106  68.7919569  83.7173176  15.8573961  68.1997490
  84.8665142  16.7905283  68.5153437  38.8304639  70.0547552  40.2891111
  39.5361590  69.4939804  40.6112194  39.1782928  70.4390812  39.4844103
  70.6251001  80.2649117  33.9083886  70.3694439  80.4543972  33.0056334
  71.2148857  80.9805584  34.1455364  48.1304455  81.8301678  33.3689284
  47.8021336  81.1597538  33.9680839  48.5959435  81.3390923  32.6918864
  61.8427849  72.4644804  38.2839727  62.2871065  72.4503374  37.4362636
  62.0750713  73.3126259  38.6620212  60.1973534  72.5948095  56.8322945
  61.0422182  72.1730566  56.6755867  60.1801825  73.3311605  56.2209606
  -0.3228556  53.0012751  54.4178009   0.5460718  52.7553082  54.1004753
  -0.2121796  53.1050491  55.3629017  24.6349835  57.9952717  37.1263313
  24.0834069  57.9113197  36.3485456  24.1369081  57.5642061  37.8208351
  33.1499553   2.9914966  16.7184865  33.6627364   2.6794320  15.9728968
  32.6405621   2.2295642  16.9945431  60.1895714   7.2739261  62.8539133
  60.5823183   8.0098873  63.3233213  60.0205803   7.6132089  61.9749594
  53.0314684  70.8088923  35.9955502  53.0513573  70.4280901  36.8735170
  52.2647715  70.4138088  35.5804348  28.4911680   4.2874420  54.2902231
  29.3367934   4.7346026  54.3248081  28.5760450   3.5660142  54.9135780
  21.7160606  81.3380623  28.7528038  21.3338780  82.0836258  28.2898736
  21.4488268  80.5752182  28.2400823  37.3599124  50.6832361  22.6891756
  37.3901296  51.3946962  23.3288193  37.1563816  51.1153936  21.8596888
   0.8902228  58.4060574  39.1905189   1.3061750  57.7173090  38.6720228
   0.8470725  58.0459929  40.0763655  14.6631515  17.8325760  24.3442678
  14.6080041  17.3308551  23.5309625  13.7538016  17.9334545  24.6255827
  49.5589924  78.9622211  52.0838356  50.4829168  79.1421652  52.2576761
  49.5695591  78.2341528  51.4625216   3.6160967  59.4223833   6.7359060
   4.3145353  59.0323019   6.2103105   4.0292498  59.6161127   7.5773364
  57.6286030  82.5194454  32.9318500  58.2070923  81.9610214  32.4124765
  57.7183819  82.1909714  33.8264322  66.4909029  17.5245798  32.6776671
  66.1083317  18.1559670  33.2869458  66.6534472  18.0290961  31.8806267
  19.3019044  78.6738586  34.9981952  19.0082252  79.1021109  34.1940928
  18.9616966  79.2264366  35.7018614  38.8755512  75.2739954  43.5072756
  38.8796949  75.5065012  44.4358015  39.1699958  74.3634319  43.4870625
   8.1221741  31.4173245  57.1508551   7.8268236  31.6039085  56.2596846
   8.0456370  32.2544098  57.6087427  58.2168627   4.5619968  71.4258528
  58.7265778   3.7934196  71.1695099  58.1835747   5.1016581  70.6359863
   0.9339040  78.1479931   4.5647374   0.7741839  78.9038754   3.9996195
   1.2468610  78.5254335   5.3868252   6.4948249  17.1462381  20.6378245
   7.0734000  17.8386152  20.3183007   5.9524226  16.9197285  19.8823619
  52.5710726   5.1936978  34.9061942  52.1108341   5.7186514  34.2513394
  53.3000040   5.7467419  35.1873279  60.9679174  78.5518312  46.4435291
  60.9564018  78.2755995  47.3599339  60.2195597  78.1040430  46.0489750
   3.3242229  31.2915063  70.6670475   2.8205460  31.5233898  69.8868084
   4.1985917  31.6439223  70.5011749  71.1698771  63.6031008  69.4378090
  70.2743006  63.3641386  69.1989183  71.7211103  63.0459166  68.8883305
  47.6752043   3.7363026  24.0463305  47.5538874   3.8625845  24.9873757
  46.7870855   3.6508566  23.6996746   5.0808591  47.5791216  34.6071196
   4.6613345  48.0132151  35.3499460   4.7328809  46.6875553  34.6229768
  30.4346871   2.6501101  17.7839708  30.7068920   3.2928601  17.1289837
  30.7017064   1.8070520  17.4176574  10.0156498  65.6289291  19.7221005
  10.0956774  66.5756893  19.6060109  10.1939929  65.4856730  20.6515646
  53.2733870  53.0814648  67.6871014  52.9537344  52.8163862  66.8246698
  53.3424854  54.0347099  67.6343250   6.6137522  20.2879095  43.1310844
   6.2087929  20.0031757  43.9503288   7.5026107  19.9346197  43.1678200
  63.2328606  23.0521774   1.4024337  62.6740265  22.7435374   0.6892194
  64.1185379  23.0285358   1.0401453  55.9652567   7.0765662  23.7154317
  55.9838533   6.9176781  24.6591711  55.7121563   7.9959446  23.6322784
  79.0692091  28.5974193  35.4920626  78.5646725  28.7221956  36.2958717
  79.3783951  29.4743347  35.2647924  40.8587837  72.0966053  19.3613207
  40.4809141  72.9654551  19.4975400  40.1272488  71.4937544  19.4942021
  38.6426950  74.8182535   3.3706048  38.6359429  73.8612986   3.3912131
  38.6600065  75.0775480   4.2918542  83.9901733  27.7726293  22.2516704
  83.7086010  28.6853743  22.1896768  83.2346535  27.2679234  21.9505262
  58.0440044   8.6829358  36.8442345  57.9219389   7.8079575  36.4757991
  58.2057905   8.5303545  37.7752423  68.5663939  15.8651471  33.8429642
  67.8890562  16.4689922  33.5382962  68.0955696  15.2290118  34.3813777
  80.1539326  69.3294144   3.9984372  79.8987865  68.6840534   3.3391646
  79.4324064  69.3273592   4.6274307  61.8541956   3.6072049  19.9989557
  61.0471773   3.1389189  19.7852767  61.6237307   4.1498703  20.7530308
  17.0330703  70.7647848   8.7442762  17.4604845  70.0063515   9.1421831
  17.2512650  71.4943218   9.3242723  50.2176619  58.4808826  18.5735726
  50.6375170  58.3490372  19.4236135  50.8644724  58.1762123  17.9371393
  22.0215535   3.7480724  14.1196752  22.7860427   4.0086725  14.6333635
  21.4592361   4.5226857  14.1172612  78.2547092   6.6359961  30.4610515
  78.9922094   6.3615394  29.9160767  77.5766134   6.8912321  29.8355365
  17.9860497  25.4567719  27.3976564  18.1460094  24.9974465  26.5732408
  17.7421224  26.3440466  27.1340704  56.1238289  11.2063348  63.4177589
  55.3570080  11.7619777  63.2781935  55.8732891  10.6291497  64.1390896
  52.2036743   0.5474523  22.7665591  51.7798138   1.4015795  22.8504753
  52.9650784   0.7115480  22.2101736  82.9135609  22.8843713  15.5659556
  83.1263638  22.7968359  14.6368265  82.9070473  21.9858456  15.8958650
  54.8770428  72.8352499  35.2349019  55.6643915  72.3539114  34.9806786
  54.1912508  72.1686697  35.2748275  79.3270111  16.4986873  27.8290606
  80.0227451  17.1029973  27.5702310  78.7290430  17.0320296  28.3527112
  40.5142879  67.4926090   8.6789960  41.1697197  68.0088425   8.2097977
  40.8709955  66.6044140   8.6886740  45.7064390  53.3495140  18.8041496
  45.1104212  53.6416483  19.4938242  45.5871916  53.9858723  18.0991256
  64.1445446  12.4409783  15.8084607  63.5539484  13.0231023  15.3303850
  63.9513874  11.5687966  15.4646289  83.4388542   1.0220895  25.2030039
  84.2831421   1.4625736  25.2998924  83.0767536   1.0008252  26.0888124
  40.4996920  53.9260292  69.9433947  41.2997198  53.4874487  69.6538448
  40.8057070  54.6270514  70.5188608  24.5891786  73.3953714  16.9936347
  23.9241266  73.8700581  16.4950228  24.8776746  74.0177774  17.6611745
  22.5273085  77.8649521  14.1292417  22.7859092  77.6477766  13.2335901
  23.2795811  78.3354568  14.4883275  80.2138996   1.4158040   7.1505040
  80.3745270   1.3339335   8.0905712  80.7603455   0.7371809   6.7541504
  70.9085178   2.1047533  42.1266794  70.7516336   1.7943537  41.2348986
  71.8445015   2.3038152  42.1498156  40.6892967   0.9212318  40.3491068
  40.7556725   1.8696038  40.4605389  40.7496691   0.5708456  41.2378263
   5.4283398  69.2746687  65.8040333   5.8533025  69.4287634  64.9602938
   5.5269009  70.1013565  66.2763739  49.6607304   0.3003667  46.1382723
  50.4095125  -0.2945965  46.1779642  49.5093346   0.5558771  47.0482302
  68.9106369  70.3611565  55.4294777  68.2460690  70.6794977  54.8185444
  68.6820650  70.7678556  56.2652922  58.2848501  61.0470247  11.7975128
  58.3533764  61.9577503  12.0840716  58.7919188  60.5541515  12.4426389
  22.6281023  11.7524624   2.8553113  22.9457903  12.6321292   2.6516122
  22.8453207  11.6273093   3.7790999  73.6993790  78.6374855  31.4726925
  72.8587246  78.5141468  31.0318708  74.3117476  78.0937672  30.9771061
  47.3152447  45.5215931  63.6942196  48.1726122  45.2912998  64.0521479
  47.0145082  44.7231388  63.2603312   7.7135831  13.7195241   9.5460266
   7.0680612  13.9666867   8.8838750   7.6157510  14.3782997  10.2335405
  16.5065610  43.5964251  15.1380587  16.0968173  42.7850676  15.4381299
  16.1942530  44.2629957  15.7499182  -0.0353393   9.1423893  42.0588255
  -0.0673635   8.7542784  41.1844254   0.4833664   9.9392378  41.9483280
  26.4275169  31.4378262  48.1044197  27.3036551  31.5715218  48.4660006
  26.5362287  30.7308221  47.4683666  14.9593759  12.8187323  12.3189664
  15.5266964  12.0519280  12.3989046  15.5453253  13.5646319  12.4475324
  69.1357851   3.2643798  31.5964174  68.2152462   3.5266441  31.5883088
  69.5509052   3.8663819  32.2140718  80.0634480   7.2099549  61.9104147
  80.8200169   6.8570495  61.4421225  80.0582218   6.7410713  62.7448940
  63.3379364  62.6585770  36.1972570  62.4229050  62.6113605  35.9202814
  63.3873463  63.4549570  36.7260003  37.8566790  30.9096122  48.4836531
  37.5839090  30.3657126  49.2225742  37.0776510  31.4192772  48.2609606
  15.4308665  68.4459591  27.8841591  14.5022941  68.3662415  28.1024027
  15.7905269  69.0090084  28.5696173  66.2009001   1.8756251  24.2031240
  66.9873810   2.2263469  24.6210647  65.5612755   1.8111615  24.9123168
  39.3868470  69.9077988  17.5543737  39.9232197  70.6721544  17.3439217
  39.0307522  70.0967741  18.4225428  48.3707380  76.0707808  26.2188196
  47.5374985  75.7431364  26.5573359  48.7700748  76.5228415  26.9620562
  77.0644474  52.7983046   1.1274295  76.9971704  53.6242628   0.6483676
  76.9233036  52.1238708   0.4630119  59.7806120   6.5441662  10.2623880
  59.0207720   6.8457669  10.7602954  60.5334377   6.8040735  10.7933652
  71.6055584  53.7069464  32.9961467  72.1267986  54.3608856  32.5304174
  71.9470358  53.7209511  33.8902521  49.2134380  24.3946147  18.4132922
  49.8952627  23.7627196  18.1851363  48.7212038  23.9721489  19.1171789
  66.2264490  33.2405400  67.0667601  65.3539419  33.0560493  66.7190123
  66.8089485  32.6669836  66.5688038  69.9206924  21.4230013  10.4843020
  69.4672871  20.7430434  10.9826136  69.4517612  21.4619827   9.6507454
  64.8015356  14.6953189  51.0690498  65.3723764  15.4447675  51.2384605
  64.1972303  15.0024652  50.3932428  67.2633553  72.0150137  38.6076713
  67.7707243  72.2047949  39.3968463  66.3834095  71.8197441  38.9298463
  30.3189588  73.0672073  67.8787279  30.8327198  73.1128073  67.0723772
  30.1680017  72.1317101  68.0139637  61.3385916   0.3853676  31.4145398
  62.1815872   0.6145248  31.8057895  61.0459375  -0.3808879  31.9079328
  62.6753569  23.4749579  27.6359534  62.8972960  22.8819847  26.9180679
  63.3303070  23.2913756  28.3094287  53.0716085  24.3122745   1.9703823
  52.9284811  25.1358986   2.4366343  53.2313251  23.6701322   2.6620299
  50.9575224  53.0812120  13.7784648  51.5744019  52.7495861  13.1259954
  51.3504076  53.8980436  14.0861261  63.2431746   6.4854729  34.3478489
  63.0291700   7.0127177  33.5781431  63.4828424   7.1258396  35.0177169
  15.3883564  31.9665098  67.7367353  14.6989512  32.2104645  67.1191311
  15.1647413  31.0754752  68.0055952  48.6549330  69.8014355  51.9720602
  49.1482449  69.0218687  52.2273016  49.2210293  70.2475071  51.3421488
  29.2944765  80.3154373  41.2276173  29.2043853  81.0347557  41.8526745
  30.0388169  79.8083305  41.5517044  10.1448941   8.3924186  24.9486709
  10.4008949   9.1003275  24.3574357  10.5941069   7.6198095  24.6058679
  78.4297895  43.4644747  69.1075230  78.3225441  43.0732679  68.2405186
  77.6771355  43.1486797  69.6075392  50.5537939  69.4112110  24.8622131
  49.6755409  69.5915699  24.5269847  50.6250000  69.9505949  25.6497574
  50.8916616  80.6169701  23.6605930  50.4422855  79.9601650  24.1924763
  51.3137341  81.1932373  24.2977738  41.3831520  78.1854677  31.6193104
  41.9597149  78.6554050  32.2217751  41.9778252  77.6903820  31.0558486
  83.5679913   9.2609686  30.4614210  82.8307724   9.4506741  29.8811221
  84.3310356   9.6109968  30.0015426  63.9109898  18.0923605  49.6991014
  64.3238068  17.3526251  49.2534494  64.4632673  18.8427210  49.4796085
  81.7271137  24.7438312  64.7218227  81.6730690  23.8137102  64.5023108
  80.8211899  25.0510311  64.6875811  21.4394140  34.1497087   6.0766870
  22.3105192  33.9212537   5.7523167  21.5812492  34.3964434   6.9905996
  38.8291335  62.8751326   6.6773045  38.0601382  63.2808304   7.0776653
  39.5734000  63.3027267   7.1009362  52.5612211  20.6183743  40.9716129
  52.0869541  21.3352299  40.5503988  51.9045210  19.9314821  41.0862970
  38.0247188  23.8211274  25.3448725  37.8220391  22.9813027  25.7570004
  38.9333582  23.9953041  25.5903769  52.1966791   1.6858190  13.2151079
  52.8035879   1.2677117  12.6043093  52.5399828   2.5726086  13.3245456
  34.3207383  55.8592844  42.7541828  34.2979336  56.7587376  43.0808210
  34.6249199  55.9403849  41.8502283  26.8442440  17.4344838  51.7747355
  27.3745394  17.1657801  52.5249434  26.5158582  18.3017504  52.0118904
  16.4560354  22.2316456  11.0486197  16.0282767  21.6673183  10.4045773
  16.9378924  21.6277337  11.6137171  26.7727733  36.4611983  16.2094843
  26.7057896  35.7031655  15.6288540  27.3701644  37.0570660  15.7574904
  28.8099527  10.4054034  17.8582203  29.2824984  10.2190876  18.6695266
  28.8162327  11.3602376  17.7912581  30.9588695   2.8590116  14.3456793
  30.0742650   2.6274148  14.6286452  30.9957004   3.8117445  14.4303846
  36.1915636  35.9411621  24.4526005  35.5860329  35.2045584  24.5361423
  35.8416557  36.6071677  25.0444031  61.8432999  25.5063152  63.5200834
  62.1607924  26.0874081  64.2112827  61.8426085  26.0495877  62.7319908
   9.3861353  68.4220839  30.4215550   9.4204593  69.3435097  30.6785107
   8.6342847  68.0686855  30.8970189  51.2046576  68.3286810  63.9733791
  51.6045475  69.1037273  63.5788965  51.5579700  68.3031940  64.8626232
  35.2149439  28.2793617  61.1545181  34.6785021  28.2556891  60.3621197
  35.8729982  27.5976324  61.0187149  56.4912796  75.1841307  35.3130102
  55.7002449  74.6677208  35.1586962  57.2067022  74.6198034  35.0198627
  36.8764997  75.3910255  48.7233257  36.2891889  76.0704947  49.0544176
  37.5048661  75.2515316  49.4317961   5.7708538   2.1507134  29.2906260
   6.0723323   3.0508620  29.4134068   5.7184625   2.0431085  28.3409357
  12.9761100  78.9695120  36.1639762  12.5477290  79.1050434  37.0091701
  13.8977218  79.1696119  36.3277507  36.4491034  77.3261642  44.4862843
  35.9104395  76.5685081  44.2581844  37.0743036  76.9908094  45.1288509
  43.9280272  15.8160734  27.2042727  44.5999336  15.2977419  27.6471114
  44.0872145  16.7137957  27.4957991  55.2981997   6.3026166  26.3487840
  55.2990961   6.3499349  27.3048139  54.3794775   6.1675394  26.1165309
   5.2013129  79.8512411  64.7836781   4.2638028  79.7560215  64.6156311
   5.3270125  80.7911491  64.9141073  72.1648884  10.4413855  32.8212452
  72.4886322  11.2049973  32.3434186  72.6498079   9.7038484  32.4509382
  11.9925487  45.6516981   7.7598041  11.8654108  45.3997755   6.8451440
  12.9268003  45.8491802   7.8262019  61.5059757  23.4865308  11.9913805
  62.3743248  23.7459397  11.6833127  61.1130667  24.2984486  12.3117590
  48.8626337  82.0780754  44.1284561  48.1703806  82.5139999  44.6254349
  48.4080744  81.3997269  43.6289978  69.5320749   2.2788772  69.1888189
  68.7852812   2.8548965  69.3523121  69.2202902   1.4073922  69.4328213
  74.0005827  15.4715717  60.4859686  73.4185982  14.9367774  61.0258961
  73.4512329  16.1961389  60.1868916  27.4969959  52.5316381  24.3318033
  26.8670583  52.3450851  23.6356640  27.9664254  51.7069530  24.4573498
  27.3676348  53.4322596  20.7014346  26.9576788  53.8318682  19.9343085
  28.2991600  53.3969355  20.4840779  84.7110462  18.2733810  47.0798445
  85.0139809  18.2497430  47.9875374  84.1305065  19.0334332  47.0408154
  37.0742917  77.4853516  39.0007663  37.1642351  76.9666815  39.8002195
  36.9906235  78.3877420  39.3088627  86.5689278  26.2398005  13.1384730
  86.5398598  26.4516044  12.2054529  86.5726089  25.2830291  13.1668818
  73.8205576  61.2805700  38.3036113  73.9990568  62.1850014  38.5612440
  74.5202351  61.0646009  37.6871371  73.4168911  59.7983074  32.6733088
  73.0077362  59.2142200  32.0348215  73.9143944  60.4213333  32.1436262
  23.2945466  33.5681391  42.1190548  23.9423800  32.9421091  42.4425220
  23.7522125  34.4088364  42.1207571  74.6861935  20.3969455  53.9708948
  74.9618483  20.4425669  53.0553818  75.4507685  20.6908202  54.4661665
  66.4946127  50.6201935  37.7829719  65.6964016  51.1482382  37.7989602
  67.1709394  51.1976576  38.1370211   5.9687042  42.2390461  15.3572989
   5.2734762  42.5972605  15.9091783   6.6350222  41.9394255  15.9757495
  63.6441517  66.9395399   8.3508533  64.2958307  66.2561607   8.1941903
  62.8217506  66.5624142   8.0383366  52.0093775  66.8979120  38.2257462
  52.1877098  67.7293587  37.7862787  51.2209225  67.0643377  38.7423444
  52.4341106  76.3309765  29.5458221  52.1522665  77.2121668  29.7913861
  52.3389864  76.3057137  28.5936952  42.6919985  58.3109570  28.5311413
  41.9932365  57.8944445  29.0356040  42.3448610  58.3653736  27.6407671
  48.3604240  15.6707728  45.2332067  48.5720444  14.9662936  44.6207094
  47.4073696  15.6379938  45.3159285  59.9583197   9.6985090  23.6113620
  60.8401155   9.9201447  23.9106011  60.0975847   9.0919405  22.8840995
  51.5309334   3.1601313  27.1418810  51.0868931   2.3121625  27.1449590
  50.8358479   3.7938330  26.9643641  63.3544207   2.9910323  62.6528406
  64.0615273   2.8651920  62.0200729  62.7772188   3.6347535  62.2421169
  36.1230159  74.3911505  59.9822617  35.1678705  74.3504286  60.0298834
  36.3089538  74.5856285  59.0636539  60.7703924  13.2278657  47.8903818
  61.6157722  13.5022926  48.2457066  60.4507399  13.9940572  47.4139309
  71.0377645  59.8776674  68.5017109  71.7377901  59.7612906  67.8593349
  71.4891291  60.1470041  69.3016863  40.3771114  55.5559015  23.8166857
  39.8396087  55.0321293  24.4108081  41.2341118  55.1297665  23.8304543
  36.2760401  43.6590862  14.9542737  37.0468593  44.0523481  15.3634357
  36.6191196  42.9090309  14.4685316  19.2402375   5.7633764  18.3832133
  19.7612154   5.6021851  19.1698706  18.4300458   5.2747071  18.5282087
   2.0745735  26.8072319  14.2436016   2.2082901  26.2114382  14.9807441
   1.4137894  26.3746381  13.7028086   6.6947865  30.0910091  49.1067648
   7.5641209  30.0566125  49.5058966   6.6826850  29.3546963  48.4952688
  37.5905752  60.7656527  31.0132456  38.2368517  60.8275461  31.7166138
  37.2358465  59.8800325  31.0911632  73.3943987  35.1786113   4.5745876
  74.1990376  35.5876088   4.8931906  73.1092787  34.6173167   5.2956218
  70.3221273  11.1334848  20.7261133  70.4551744  10.1859343  20.7521343
  69.4762611  11.2683952  21.1533666  44.2899942  68.2741356  38.0057049
  44.9734783  68.0755424  38.6457372  44.4105625  69.2026567  37.8068542
  51.2333488  78.8038921  31.6803741  51.7735720  78.9611197  30.9059882
  51.5391874  77.9624271  32.0189404  34.5178556  71.5181255  53.0423403
  35.3035712  71.2874746  53.5380030  34.3299794  70.7410145  52.5160027
  70.6327057  80.0739670  21.3410449  70.2273703  80.0694942  20.4739141
  71.2957478  80.7625866  21.2919497  12.7902734  21.7562199  20.9315491
  13.1273377  22.4955869  20.4256272  13.3695054  21.0281348  20.7065701
  66.7820787  58.8765192  24.9730945  66.0575390  58.8883209  25.5985069
  66.7025900  58.0315828  24.5303798  55.1881790  70.4951382  12.4440062
  54.7439718  70.6004238  11.6026843  54.6680355  69.8399019  12.9091418
  36.8222475  65.2431965  71.3431740  37.3614383  65.8458805  70.8310413
  37.4530625  64.6935415  71.8081331  33.6198974  74.8626947  46.7845678
  33.9237928  74.9230862  45.8789015  32.9651880  74.1645432  46.7714643
   6.1526638  63.7368250  44.6662283   5.5583310  63.6259317  45.4083252
   6.9925737  63.4015369  44.9798632  50.2208042  34.5455623  19.2936540
  50.0357008  33.7983990  18.7246931  50.6611395  35.1767349  18.7244821
  78.1233501  28.2080173  58.7358141  77.3977900  27.6065040  58.9030886
  77.8517818  29.0301991  59.1438580   6.0971504  29.4110727  38.1434488
   5.4634023  28.8191175  37.7382517   5.7468718  29.5738816  39.0192509
  23.2147264  23.0793571  10.7050955  23.0746746  22.1366072  10.6165528
  23.9204597  23.2755685  10.0889194   1.5024795  16.1135173  22.0530391
   2.3037624  16.6327798  21.9856358   1.1539406  16.0941505  21.1617589
  65.7585812  32.3078203  38.7355089  66.5940475  31.8797636  38.9225698
  65.6704521  32.2555161  37.7838111  53.1161928  12.8495491  21.9456553
  52.3665142  13.4334600  22.0608115  53.7735033  13.1800771  22.5579667
  16.3434291  13.1038547  35.6683779  15.9672403  13.0886114  36.5484262
  16.9832754  12.3919344  35.6690502   8.1558949  22.9479361  33.3645844
   8.7450671  23.3813000  32.7470851   7.3901457  22.7131248  32.8404427
  62.9757452  57.4298239  59.9536324  62.3157263  57.1517849  59.3185663
  63.7884998  57.0289803  59.6454382  75.2353287   2.9768395  49.8329496
  75.7711363   3.7371153  50.0590563  75.8560753   2.3465279  49.4674158
  11.6919899  32.2991514  19.3063033  11.1506879  31.9525623  18.5970092
  11.0854387  32.4094152  20.0385404  63.7381935  13.2711565  38.3805418
  63.2050514  12.6048422  37.9469323  63.7100363  14.0229166  37.7886820
  65.2229881  37.3881936  39.5036364  65.5385208  36.5230179  39.7646713
  64.8955202  37.7782750  40.3140879  15.2627659  37.9231071  48.8195562
  14.4120347  37.7845359  48.4032774  15.8573127  37.3380876  48.3499813
  34.1560984  70.8343029  70.2074814  34.5608759  70.2984285  69.5254087
  34.6591568  71.6486359  70.2023602  59.9670267  45.9936523  69.8923969
  59.8439646  46.5683126  70.6479454  60.9154749  45.8811283  69.8290253
  75.0151300  73.7667751  37.5136280  74.3124104  73.1169701  37.5266337
  74.5990849  74.5754910  37.8121448   3.6865947  19.9077225  42.5614214
   3.5597697  19.5068717  41.7014980   4.4544286  20.4689240  42.4531794
  23.1667566  18.2905412  25.5288315  23.2102823  17.4977815  24.9941611
  23.3440018  17.9886222  26.4197063  38.8572860   7.1412486  36.7242026
  38.3397388   7.2453648  35.9257436  38.9766169   8.0332440  37.0502973
  85.5409241   1.6559733  11.8998361  86.4364624   1.8979977  12.1357512
  84.9898911   2.1890393  12.4729264  21.1819839  16.1295545  38.6064816
  22.1307182  16.2091827  38.7054563  20.8252454  16.8428183  39.1358423
  22.0479417  14.0399230  10.3713226  23.0000448  14.1316044  10.3348887
  21.7160130  14.7906911   9.8789787  81.5424728  68.5510015  44.3703127
  81.9752502  69.3960905  44.4918346  80.6189156  68.7703705  44.2472553
  55.5929470  58.3431721  24.0459991  55.3180647  58.6545849  24.9083734
  56.5139151  58.5961533  23.9823556  10.9440899  28.5526848  11.5463638
  10.5355120  29.1128373  12.2063076  10.8527887  27.6659560  11.8950868
  85.8172989  82.2354031  37.7991176  86.1996269  83.0821133  37.5685811
  84.8871422  82.4200916  37.9292512  46.3568687  79.9702549  23.2673192
  47.0390892  80.5129719  23.6626291  45.7541466  80.5969810  22.8671050
  23.5940623  70.4920197   1.6985917  24.4364738  70.2891493   2.1053089
  23.6382270  70.0777674   0.8368044   3.5866073  21.1755395  14.7103012
   3.2374284  20.3382039  15.0155509   4.3042922  21.3698173  15.3131413
  17.3940873  75.5622101   9.3621856  16.8173432  75.9257174   8.6902779
  16.9817364  75.8079910  10.1903117   5.2347410  23.7584877  70.5609369
   5.2982306  24.5213532  69.9862766   5.4864293  24.0871501  71.4239931
  81.7091370  64.2692089  44.7013569  81.2539005  64.2450237  43.8596869
  81.1781406  64.8519611  45.2441978  66.3916397  54.0004873  21.0278273
  67.1711397  53.4537125  21.1260796  65.7689142  53.6460495  21.6625071
  80.4728889  17.6788712  17.0217550  80.3629589  16.8762577  17.5316155
  80.0855541  17.4765694  16.1701238  78.5821295   8.4399348  37.2928953
  77.8328085   7.8815567  37.5001717  78.5998392   9.0881264  37.9970026
  77.2087860  17.6508904  16.9332135  76.3574600  17.7272213  17.3640823
  77.0146847  17.7460754  16.0007465  70.7187223  17.3246932  45.5908871
  71.6269588  17.3308969  45.8930492  70.2794266  17.9747283  46.1392546
  75.6430817   3.9704216  10.3628707  75.8138466   3.4240207   9.5957220
  76.4635420   3.9545724  10.8556390  11.1518216  39.4825149  47.8415966
  11.4433336  39.3326664  48.7409306  10.7845378  38.6427140  47.5657988
  78.0797529  27.1117616  22.6791620  77.3994064  26.6106272  23.1288552
  77.9593372  26.9017076  21.7530894  12.6545680  44.5478582  37.3879075
  12.7937400  45.0134706  38.2125711  11.8119550  44.1079044  37.5005054
   4.7136042  26.3451076  60.6402254   4.8899403  27.2311568  60.3239107
   4.4747427  25.8533931  59.8544836  14.6874452   1.1436408  10.5151212
  13.9613473   0.5246544  10.4385054  14.3492389   1.9570893  10.1407552
  33.9982462  10.2354228  39.5091081  33.8648272   9.3445170  39.1855073
  34.8781919  10.4684889  39.2131257  43.5590410  56.6166210  33.9404869
  43.1546545  57.2890186  34.4887400  44.1218233  57.1044159  33.3391809
  61.2141466  31.5029979  39.6646476  60.5815077  30.9610724  40.1361465
  60.9463358  31.4409637  38.7477708   5.7224894  38.9436984  19.1844308
   6.4405620  38.6185741  18.6413860   5.6863362  39.8817134  18.9972079
  65.2948475   3.4493023  12.5456333  65.8482695   2.6838589  12.3905432
  64.4108248   3.1537786  12.3279023  10.6886101  16.6013098  34.7647500
  11.2505853  15.8744264  34.4963169   9.8279929  16.3835406  34.4067717
  16.1496401  63.0956364  31.5864563  15.3206754  62.6212120  31.6494823
  15.9413159  63.9820814  31.8814874  85.2121639  75.0716162  56.1689615
  84.5515728  75.7618141  56.2279844  85.2769852  74.7253752  57.0589876
  77.4482155  38.7122059  51.1512661  77.1167994  38.4351420  50.2970839
  77.4261665  39.6685743  51.1180067  20.1257849  32.6907659  22.2109151
  19.4486928  33.3192730  21.9603968  20.5706692  32.4782443  21.3904619
   8.4404683  21.4260697  16.1182082   8.6678004  22.0518899  15.4305279
   8.1593579  20.6425619  15.6456363  79.6640015  35.0854778  19.1250753
  80.1543236  35.4647541  18.3957160  79.4225454  35.8362746  19.6675086
  25.1629138  33.9474988  19.5504427  24.5496416  34.6586418  19.3649566
  24.6112657  33.2316661  19.8658800   4.6236369  46.3152599  39.5178032
   3.9527518  46.7308331  40.0595093   4.4317734  45.3792334  39.5750427
  54.9703598  78.9620590  44.2550898  54.1188240  78.8012886  44.6616268
  55.0802708  78.2403612  43.6359739  30.4575181  29.5421529  20.9261608
  29.9827957  30.2967381  20.5776286  31.2613440  29.5046115  20.4078102
   7.7299374  35.2674842  30.1272249   7.6379752  34.3315053  30.3053236
   7.6237947  35.6854606  30.9817767  21.8595147  48.3447456  55.4457760
  22.0253301  48.8366795  56.2499809  22.6714373  48.4237051  54.9449968
  60.6711388  46.8977213   6.7898923  59.9419546  46.6094446   6.2408811
  61.3479662  46.2340307   6.6570228   1.4451005  36.9163465  46.6942501
   0.5859297  36.6394734  46.3758230   2.0686194  36.4445186  46.1421347
  83.4028625  18.3700716  35.8502126  84.3319321  18.4579790  36.0631633
  83.3923054  18.0933106  34.9339557  56.7440557   4.2765805  47.9520082
  57.5448513   4.7864795  47.8296757  56.0447359   4.8499846  47.6383352
  32.2800446  66.1186886  64.7587776  31.3648009  66.2126970  64.4947243
  32.2968030  65.3187180  65.2841282  77.0870018   1.7486644  22.3618984
  77.4497652   0.9490920  21.9806886  76.1654377   1.5426481  22.5184464
   6.1977565  13.9463413   0.4119799   6.1268449  13.9560914   1.3665000
   6.5402722  13.0765486   0.2061256  69.7954273   8.1606144  57.2422886
  69.7307205   9.1122848  57.3220873  70.2437592   7.8832018  58.0412054
   4.1319519  22.4799156  56.9839334   3.6623213  23.0717421  56.3962078
   4.0967557  22.9120660  57.8373051  17.6267660   1.9092397  22.1187115
  17.8108370   2.8208497  21.8921804  18.2663679   1.6975689  22.7986646
  33.4210205   8.6936921  53.1546402  32.7178073   8.4849459  53.7695742
  33.8962841   7.8699881  53.0456972  81.0382748  58.8192225  26.0279632
  80.7066345  58.4596920  25.2051759  81.9884872  58.8402319  25.9144163
  75.6073570  41.1474848  55.2317142  76.4798450  41.0155630  54.8607779
  75.0244141  40.6552505  54.6536827  27.0154977  34.2997694  26.6111326
  27.8966808  34.6714067  26.6515541  26.6665006  34.6015954  25.7724833
  45.1728201  11.1979210   9.5247579  45.7647228  10.7735777   8.9036155
  44.3835688  10.6564987   9.5116359  15.5356979  10.9298599  41.5956259
  16.1540473  10.4505956  41.0441017  14.9465287  11.3607025  40.9763670
  85.9038639  43.1922483  20.0515938  85.2259254  42.7160835  20.5310774
  86.3733387  42.5149727  19.5646465  15.7024419  26.8933272  60.2308702
  15.3187251  27.7554417  60.0704050  16.4722347  27.0706391  60.7714319
  71.9505978  37.1135616  22.7002001  72.3618412  36.2496424  22.7276611
  72.5404358  37.6756763  23.2025409  47.2047377  10.7974219   5.2246791
  47.1895027  11.6950345   5.5567831  47.6725769  10.8581030   4.3918064
  72.3098946  12.0350242  22.3619580  72.9528761  11.3435495  22.5190210
  71.7137003  11.6643941  21.7112541  65.7876539  63.8518953  56.9373941
  66.6314602  63.5734844  57.2933531  65.1909113  63.8229179  57.6852465
  41.1343002  72.2253227  24.9032640  41.1801195  73.0885839  24.4922781
  40.4808569  72.3240995  25.5957174  54.7741079  76.6336632  51.0903692
  55.4484367  77.2054577  51.4572001  54.2072725  76.4248419  51.8328810
  33.2746291  37.7060485  23.6129379  33.6792922  37.9181933  24.4540524
  32.8709936  38.5258102  23.3278012   4.1961238  13.8349450  64.2008781
   3.8876787  13.4593153  65.0254965   3.5124740  14.4562244  63.9501476
  38.7732816  49.8271179  11.7249739  39.4521308  49.7819376  12.3982894
  38.7807250  48.9603949  11.3188112  23.9565253  42.9650879  10.9852791
  24.6969867  43.2700825  11.5096140  23.2058334  43.4524250  11.3246858
  22.9233384  72.7160263  52.7870655  23.2981777  71.9196177  52.4109507
  21.9994426  72.5052786  52.9220963   6.8319410  23.7270379  13.7762237
   6.1686611  24.3504357  14.0723097   6.3316709  23.0229974  13.3635640
  12.4300385  18.6436045  38.6093593  12.6982868  19.4674158  39.0163112
  12.6054490  18.7688935  37.6767468  35.0685024  61.3136148   8.9241749
  35.5147600  60.8887815   9.6567082  35.7625318  61.4844751   8.2874954
  45.4735518  74.1382599  52.5054216  46.3519239  74.2040491  52.8800774
  44.8925686  74.4442987  53.2018661  82.0674324  11.4741981  27.0860243
  82.7836704  10.9934306  26.6711712  82.0511150  12.3174119  26.6333032
  15.5167401  74.1382456  64.8036718  16.3810515  73.7994146  64.5704556
  15.6015372  75.0880909  64.7209787  68.0674744  14.7999287  62.2973776
  68.4666586  14.8336542  61.4280415  67.1729374  14.4985378  62.1386480
  51.2141848  79.2452192  14.3248308  51.4407921  78.3373165  14.1233671
  51.9076490  79.5398140  14.9152148  14.5633245  43.4671021   8.8004017
  15.3333998  42.9245234   8.9701796  14.8406386  44.0664005   8.1074601
  28.3650613   1.0743733  33.8956285  28.8352513   1.9045913  33.9723825
  27.4980402   1.3191597  33.5722303  15.2542484  44.5259809  28.2401109
  15.1169610  45.2193356  27.5946307  16.2049341  44.4227552  28.2822084
  12.4532747  47.1755171  51.8795443  13.1701887  47.1233654  52.5116396
  11.8620741  47.8354168  52.2418213  15.4359758  35.5009937  22.9627943
  14.8293805  36.1338377  23.3472180  14.8709548  34.8328304  22.5747943
  34.1125011  28.7948155  16.1712480  33.2406712  29.1875648  16.2147522
  34.0518141  28.0152202  16.7233169  37.4584031  39.9363089   5.4612535
  38.2500815  39.7309422   4.9639603  37.7272987  40.6295156   6.0640705
  81.4521599   1.0618312  22.0933938  81.4001369   0.1245159  22.2803855
  81.4931011   1.4761044  22.9553318  29.2434716   0.9795301   0.3298422
  30.1308250   1.2139211   0.6016805  29.3453455   0.1436850  -0.1253683
   4.2099497  25.3455257  58.0620003   4.6092358  25.8108497  57.3269606
   3.3110008  25.1776195  57.7792788  84.0990543   0.7038338  68.3789206
  83.1873894   0.4286427  68.4756851  84.5480919  -0.0701674  68.0390358
  25.7031250  38.8077593  28.4708548  25.8649898  39.6366477  28.0203271
  25.6157136  39.0494108  29.3929148  33.0064893  32.8351855  18.7617815
  32.8589201  33.7671876  18.6010706  32.4899411  32.3914194  18.0891144
  20.9619832   6.1299998  24.6686697  20.3303337   5.6326139  25.1881480
  21.3828492   6.7147082  25.2989221  36.8076372  57.2084951  15.8096242
  36.7347169  56.3257360  16.1724532  36.8902326  57.0733786  14.8656154
  79.8970747  23.4943700  25.7708144  80.8498096  23.5046077  25.8625984
  79.6593428  24.4120622  25.6383157   2.6002279  56.4311409   1.9137642
   1.8804789  56.1061716   2.4546790   3.2575053  56.7282486   2.5430045
  82.6177883  37.8012943   8.3344764  82.2334003  37.0741963   7.8447795
  82.4730110  38.5672617   7.7789897  16.9289351  21.6568947   4.7859398
  17.4175417  21.5455627   5.6014764  16.4220119  20.8496857   4.6983373
  84.6740627  11.1720586  71.0988998  83.7504196  11.1401176  71.3481140
  85.1086903  11.5884352  71.8431807  42.0168829  77.6687765  61.8063068
  42.8399658  78.1274891  61.9746685  42.2840023  76.8088865  61.4815378
  20.6128812  55.1839542  22.9255962  19.8092937  54.7255230  22.6799917
  20.7183647  54.9991560  23.8588476  80.7915497   6.3920975  28.1550646
  80.9629345   6.8964213  27.3597550  81.6548252   6.0908943  28.4383655
  40.7026625  12.9061139  11.7180836  40.7816172  13.8107646  12.0207465
  40.0089931  12.9337084  11.0590732  76.2396431  80.4142666  64.7206688
  75.7399321  80.6294250  65.5082130  77.1461201  80.6209850  64.9482679
  16.8614280  15.0178099  21.6321158  17.5588429  14.4544744  21.9675231
  16.8618870  14.8629463  20.6875277  24.0081096  74.8995018  54.1003799
  23.6920571  74.9786997  55.0004196  23.4384489  74.2404938  53.7036085
  28.6857295  25.3223276   1.3307726  28.8099980  24.4693661   0.9145441
  27.8326440  25.6207085   1.0154226   5.3590959  55.4317665  16.2134898
   5.5743968  54.4996595  16.2460029   5.1773846  55.6035233  15.2895248
  17.3085666  39.9845695   4.7196752  17.7401376  40.3093147   5.5099398
  17.8836441  40.2556562   4.0041134  13.2969534  29.2530680  32.2180533
  13.6196828  29.8004413  32.9339170  13.2775021  28.3683920  32.5830197
  15.4499102  67.5780487   1.6689615  15.1665044  67.0083332   0.9538823
  15.1467860  67.1359062   2.4619678  17.8327024  49.1860914  13.2115495
  17.2760534  48.5674095  12.7386785  18.4300375  49.5277548  12.5461996
  19.6876597  17.7780402  40.2877760  18.9065552  17.3733890  40.6650877
  19.8072755  18.5832441  40.7913351  61.0122871  54.6153021  66.1222410
  60.0952387  54.3465614  66.1773634  61.3872814  54.0502071  65.4467583
  83.5715294  35.0029182  64.3799496  84.5051670  34.9948239  64.5908880
  83.2233238  35.7523251  64.8630381  35.5036974  80.1458740  56.5543079
  35.9524298  80.5609322  55.8176947  35.9813166  80.4481220  57.3268080
  75.3080559  74.5446491  11.5685785  74.5676851  74.2059660  12.0719385
  76.0804558  74.2069054  12.0219636  22.3066354  27.7690744  18.2786489
  21.7843580  28.1241012  18.9979649  22.1318221  28.3562541  17.5431931
   2.5292334  62.3172331  43.0559921   3.3771747  61.8939543  43.1903934
   2.2688194  62.6140499  43.9279556  12.6395822  34.1804338   5.3852016
  13.0604351  33.5544968   4.7958648  13.0634105  35.0160480   5.1893687
  47.2893953  36.0523987  47.5645256  48.0548763  36.5337276  47.2505331
  47.0051813  35.5360746  46.8102932  82.0044518   7.2983420  71.4583206
  81.2058449   7.3026896  70.9306479  81.7002773   7.4428010  72.3543358
  71.4643192  77.8848267  30.0347090  71.6309261  77.1023273  29.5091891
  70.6713200  78.2636833  29.6554351  30.0054908  38.9946604   0.6154832
  30.3600502  38.4336662  -0.0743017  29.2532396  38.5100365   0.9553207
  22.1205068  21.2535763  41.0073042  22.5630832  21.3201237  40.1611757
  22.0722818  22.1555901  41.3239717  23.5907817  75.6100416  23.6785173
  23.9599633  74.7709274  23.9538789  24.3079829  76.0485935  23.2207727
  20.5484295  22.5474548  12.8236270  21.0104465  21.7871332  12.4705231
  20.7006311  23.2400608  12.1806931  84.0480137   7.1994317  14.1115439
  84.1937160   7.4552035  15.0223589  83.1348228   6.9136339  14.0861750
   4.4205251   0.4387571  11.4583588   3.5516360   0.8381590  11.5000927
   4.2581812  -0.4990663  11.5601611  36.8803382  55.2001572   3.6803749
  37.1958089  55.2895308   2.7810845  35.9772325  55.5159140   3.6498803
  15.5459201  41.9671011  26.7106080  15.6940508  42.7767467  26.2219763
  15.5674076  42.2345352  27.6294398  14.8407221  61.6048622   7.5746775
  15.4952216  62.1666384   7.9897344  15.0664914  60.7205486   7.8632110
  68.9257240  81.1960506  19.0484595  68.5911131  81.2595844  18.1539023
  68.1491947  81.0320091  19.5835531  68.6751080  14.3037617  20.3600335
  69.1854429  13.8916183  21.0571194  68.4874249  13.5922384  19.7478712
  46.2994337  82.0026970  20.9280038  46.7857933  82.7287960  20.5375266
  45.8566380  82.3897076  21.6832471  12.7480316  23.7358928  45.1464796
  11.9915378  23.1663346  45.2863121  12.4091232  24.6211743  45.2793360
  72.9707909  49.5420027  36.8865395  72.2712374  48.9237070  36.6754198
  73.7398148  48.9918613  37.0354414  42.2647619  26.1110330  15.6393540
  41.7886591  25.7025146  14.9163938  42.4760389  25.3857327  16.2271726
  37.9141116  70.3812313  56.4608860  37.0020747  70.5336285  56.7082596
  37.9279661  70.5011272  55.5113268  31.7560124  80.5097866  12.0562756
  31.6563606  81.4607716  12.0125198  30.9704590  80.2073574  12.5119948
  28.7021518  33.1943440   5.6533992  28.1123400  32.4699259   5.8621371
  28.1461954  33.9728570   5.6859714  71.5010738  43.0374622  46.8963814
  72.1252060  43.5882902  47.3689079  70.6615877  43.4862328  46.9968939
   7.1816552  51.2578392  25.4009938   7.2887230  51.0117960  26.3198137
   6.2340271  51.2796164  25.2677345  30.2417135  25.1318836  29.9819946
  30.9561944  25.6057096  30.4077125  30.0418186  25.6499553  29.2023301
  17.7890325  49.8838663  32.7685046  16.9072199  49.8859692  33.1408405
  18.3184552  49.4091797  33.4092975  43.2866526  21.1315584  51.9966030
  43.2387447  20.6518674  52.8235435  42.7877283  20.5959821  51.3797855
  29.0380192  31.6168165  57.4767685  29.8327637  32.0927477  57.7178192
  28.9585853  31.7464042  56.5317154   0.6836430  62.6959038   7.2739708
   1.1780524  62.8054714   6.4616984   0.8396690  61.7864561   7.5285101
  20.6667471  20.0978851  21.0815716  20.8081031  21.0165071  21.3104534
  19.7618151  20.0648594  20.7713485  85.8472157  35.9145331  19.4050252
  84.9804688  35.5313969  19.2701960  86.3917637  35.5209422  18.7232661
  62.2022200  56.6615915  39.5575595  62.8737640  56.4672565  38.9037323
  62.0574427  57.6045322  39.4792318   6.7163241  23.9079452  28.3902574
   6.9802427  23.5973787  27.5241566   6.9321531  24.8404860  28.3863401
  81.8708324   0.2470668  52.2661114  81.3737679   1.0596703  52.1721411
  82.6903725   0.5143652  52.6822138   6.8438935  57.9220581  34.6379805
   6.4844030  57.9964161  35.5219865   6.1410606  58.2318497  34.0667653
  64.0281200  46.1871195   5.3686851  63.4006119  45.5258894   5.6606448
  64.3660259  46.5705252   6.1780363  27.1561480  18.9107692  21.3812137
  27.0376229  19.6906555  21.9233942  27.4703646  19.2478240  20.5422282
   3.9296702  74.3740559  17.7301741   4.3857422  73.6184216  17.3597038
   3.3646378  74.6835232  17.0222187  22.2123122  11.3690007   9.2675442
  22.0414233  12.2115028   9.6885169  23.0028272  11.5166330   8.7483883
  79.7878695  32.2514319   7.4071908  79.9102974  32.9154134   6.7286831
  80.5875111  32.2945404   7.9315495  67.5935364  73.8855267  12.1695721
  66.6603088  73.9550734  11.9683576  67.6775646  73.0509949  12.6308000
  24.0131068  58.2838583   3.2299671  23.2919979  58.8743687   3.0119553
  23.9953256  57.6195574   2.5410393   9.4652134  34.4599390   7.8952420
   9.5638651  33.8582444   8.6331207   8.7973666  35.0829053   8.1818181
  82.8278160  14.6366048  67.2647810  82.7204132  15.2297437  66.5212202
  82.7399254  13.7612736  66.8875504  51.6735077  21.3787651  32.6567841
  51.7296314  22.3295522  32.7521086  52.4962187  21.1313963  32.2346568
  10.2094209  12.9157877  60.1595545   9.3797112  13.1078899  60.5964899
  10.1099384  12.0189106  59.8402643  30.0478911  22.6825666  28.0982161
  29.2939353  23.0567431  27.6423931  30.4014516  23.4084964  28.6122704
  86.8569183  47.8150558  15.3061008  87.2025299  47.6519489  16.1837041
  87.1032810  47.0385456  14.8035347  19.6290171  12.9116571  25.7749200
  18.6814487  12.9918385  25.6657553  19.8857117  12.2341955  25.1493096
  32.6968575  80.4828548  28.8907886  32.7612972  80.0582600  28.0353379
  31.9560051  81.0828876  28.8051605   0.6345188  42.2714233  64.9905491
   0.3543054  41.3735247  64.8131084   0.5086455  42.3797464  65.9332371
  28.1062293  60.9476089   5.8431911  28.8591027  61.2995911   5.3683013
  27.8965473  60.1316643   5.3887653  17.1917820  41.6189575   8.0089080
  17.8012145  40.9178019   7.7782553  16.4389026  41.4805937   7.4342263
  21.3951755  67.7429247  31.1117530  21.5433979  68.6452341  31.3947797
  22.2134709  67.4881268  30.6854868  51.8035555  22.5637174  18.6750865
  52.6894999  22.8525829  18.4562457  51.6276646  22.9570580  19.5298243
   6.9390261  20.8123636  53.5561466   6.7114007  20.5846429  52.6547241
   6.5401751  21.6714907  53.6941576  69.2147875  49.1382074  55.5153227
  69.6273279  49.3559885  54.6794891  68.4186459  49.6692467  55.5350256
  21.4689040  43.8092232   8.3131790  20.6315994  44.1624689   8.0125624
  21.5246272  44.0737295   9.2314184  10.7216549  29.1234112  32.9578829
  11.4790511  29.5625949  32.5709701  10.2612305  29.8146415  33.4337401
   5.3908074  29.9214530  51.8647480   5.2666390  29.7045493  50.9407520
   5.7095808  30.8239889  51.8581629  44.9515152  78.5359097  29.7340655
  44.4461012  77.7388811  29.8938751  44.3141937  79.2449093  29.8199129
  19.9182403  37.4869251  50.8982849  20.7798433  37.0793676  50.9864235
  19.2989564  36.7756486  51.0620070   7.5887275  47.5354671   1.8071519
   7.8968823  48.3015013   2.2913733   7.7176780  47.7658987   0.8870938
  13.3028805   6.3703018  60.5177164  12.4617314   6.3952857  60.0615644
  13.1921828   6.9679493  61.2571764  79.1934919  63.7071228   2.5860667
  78.2476997  63.7929583   2.7058282  79.5624590  63.8987780   3.4482509
  12.5284898  40.5118608  25.6995988  11.5837216  40.6355238  25.6082153
  12.7745211  41.0781336  26.4310622   7.0395714  43.2003498  28.6818719
   7.6591742  43.2328224  27.9529881   6.9410980  42.2672272  28.8711309
   1.2657210  32.2396302   3.9495903   1.5964080  31.3415051   3.9338583
   1.3606301  32.5138640   4.8617420   3.1229565  55.1646137  27.0319009
   2.2625154  55.3422642  26.6520166   3.7315565  55.6705713  26.4935303
  66.0013342  42.2189569  47.0119238  66.7731571  41.6747618  47.1680641
  66.3519669  43.0999231  46.8808413  25.0453138  26.0674739  11.1961854
  25.6605387  25.9617257  11.9218230  24.2059946  26.2503123  11.6184950
  12.1093714  27.9357433  16.4395511  12.2162926  28.8700461  16.2610054
  12.8064764  27.7295876  17.0622671   6.6107714  37.9257298  16.8647623
   6.5173864  38.1929660  15.9503794   5.8103645  37.4361229  17.0541441
  33.7322354  31.1039639  13.1994426  32.9154539  31.5426993  13.4373760
  33.8705397  30.4614806  13.8953710  61.3354397  64.3496132  67.8632593
  61.2168503  64.5068455  68.7999773  61.1428356  65.1925373  67.4526358
  85.2381802   4.9035567  23.8571930  84.4320011   5.3967297  23.7052321
  85.8213329   5.1733440  23.1477046  23.8217306  30.5827713  38.3917952
  24.2936254  30.4486918  39.2137265  23.4158635  31.4444804  38.4864545
  49.8847198  27.8578925  64.1437149  49.1242313  27.5155973  64.6135187
  50.2976465  28.4599447  64.7627926  46.6079044  66.3904428  41.7629814
  46.1424923  65.9376526  42.4662590  46.8013430  67.2562408  42.1224308
  12.2076511  32.4775910  52.1625662  12.0549846  32.0973587  51.2974977
  12.2700131  31.7230463  52.7482319  18.5413754  37.4128056  36.7219472
  18.4420276  38.2763124  37.1228409  17.7346838  36.9496679  36.9477415
  30.4866648  67.7439308  50.8951139  30.4673171  68.2719660  51.6932583
  31.3934755  67.4449778  50.8276320  17.8771651  29.6859527   8.6876905
  18.0591202  29.8045683   9.6199220  17.1479464  30.2795744   8.5085630
   9.7995806  32.8181052  17.1659935  10.1126087  33.0066299  16.2812877
  10.0825703  33.5705400  17.6855981  11.4010835  18.3617163   5.4546237
  11.2278998  17.6450658   4.8441720  11.3587511  19.1513252   4.9152175
  56.3655615  53.3827019  64.3294621  55.8785009  54.1400862  64.6540642
  55.7006121  52.7053547  64.2058706  75.1654243  45.3824997  58.9591646
  75.1138401  44.6155739  58.3887291  74.7338533  46.0787630  58.4639931
  11.2738299  40.2612209  14.5830333  11.1929834  40.1781130  15.5331850
  12.0150995  40.8534813  14.4566238   6.6937196  42.3480415  12.7515244
   7.6190585  42.1088696  12.8042209   6.3887566  42.3265696  13.6585903
  43.8702679  80.1009750  66.3607597  44.3607330  79.6508789  65.6729460
  43.7353992  80.9850121  66.0194159  33.6773634  82.3315525  14.0864873
  33.7227726  81.3820457  13.9741981  33.8884473  82.6852798  13.2224560
  84.6240520  42.3805809  23.9957309  85.4334831  42.2134304  24.4785523
  84.0810680  41.6105938  24.1646147  35.5230784  47.8053999  29.2240453
  34.9377322  48.5324955  29.0120625  36.2633729  47.9119015  28.6266732
  13.5782003  30.2878523  12.1198869  12.8869295  29.7484112  12.5037849
  13.2045805  30.6070447  11.2984526  30.7098460  53.3398581  26.9061565
  30.3954315  53.8539934  27.6498246  30.5710459  52.4297953  27.1683598
  74.4151402  38.6176968   2.7879912  73.8809538  38.8929272   3.5330570
  75.0190830  37.9705954   3.1523347  71.6607237  69.8684692  44.2187595
  70.9629250  69.3289328  43.8469934  71.2010622  70.5501986  44.7088528
  74.5879412  80.2515888  29.0353799  74.5094252  79.4694757  29.5816064
  74.3622351  80.9754181  29.6196389  67.3934364  20.5611253  32.9464841
  68.2390404  20.2437496  32.6295352  67.3840094  20.3306317  33.8754702
  24.6905088  77.4547768  36.7570162  25.2570200  77.8807688  37.4003124
  23.8050961  77.7227640  37.0028996  29.3684673  37.9760742   6.5131003
  29.3093634  37.2776198   7.1649444  28.7352395  38.6313581   6.8061137
  18.9184356  40.4049158   2.4001247  19.5155203  39.6572256   2.4262632
  19.0491331  40.7855511   1.5316398  74.1529846   6.1529851   9.8469102
  73.2707405   5.8009046   9.7289664  74.6553516   5.4236406  10.2101135
   5.7538748  58.9875364   5.2612466   6.3138217  59.2234373   6.0008681
   5.9962791  59.6047115   4.5709091  27.5855184  24.5329642  31.3034892
  28.4315872  24.9530554  31.4581537  27.1365881  24.5806217  32.1475410
  35.2758884  22.4406552  39.4790864  34.3687630  22.3767018  39.1803098
  35.7891154  22.0500422  38.7718010  14.7902417  43.0269194  45.5884600
  15.3587651  43.3871174  46.2690973  14.4903696  42.1906090  45.9446764
  11.8939471  36.0223365  13.5704815  12.5332487  36.2620330  14.2413545
  12.3943317  36.0150385  12.7545190  23.2518148  68.6658716   6.4885980
  23.6850262  68.6312389   5.6357437  22.6813030  67.8973389   6.4988267
  57.7987623  67.1829653  23.3023214  58.3768034  67.6166868  23.9300060
  56.9652367  67.6463461  23.3844900   9.5703709  23.1299138  13.6265051
   9.2935705  22.3154664  13.2066345   8.7623382  23.6324000  13.7305272
  82.4950409  23.0298543  26.7679715  83.0919361  22.4834156  27.2791982
  82.9741573  23.8476539  26.6342449  77.4185133  30.4313660   7.4688756
  78.2286167  30.9312153   7.5694579  76.9196320  30.9138823   6.8096912
  87.5646496  36.3904548  68.5057545  86.8172455  36.6636753  69.0377140
  87.5080776  36.9308758  67.7177334   4.5575470   7.5775540  53.3072853
   3.8469288   7.0112473  53.6081982   4.2258006   8.4663486  53.4346437
  23.5927796  36.6376543  42.4360418  24.3857527  36.8594146  42.9241419
  22.8788447  36.9960690  42.9633617  85.3207779   2.9096055  61.9886875
  85.7574844   2.1799479  62.4281406  85.8716393   3.6686903  62.1799469
  42.0294762  77.9298210  51.7618084  42.0666599  76.9742489  51.7201996
  41.1176968  78.1248331  51.9782829  86.0993385  29.8438311  12.9401720
  86.3978577  29.2033958  13.5858953  86.6611958  29.6965885  12.1793389
   5.5321294   2.7163389  61.1669636   5.5419791   2.7697060  62.1226263
   5.1376575   1.8647669  60.9786892   9.6596056  14.2626810  15.0514007
   9.4569606  15.1579773  15.3227150  10.2821267  14.3656409  14.3316102
  32.1925783  27.5784683   4.5785594  31.7822313  26.7141294   4.5508453
  31.5172291  28.1527615   4.9395606  22.4211454  51.9163704  23.4753108
  23.1069541  52.5705719  23.3414388  21.6808605  52.4132538  23.8236141
  38.3495879  68.0970812  43.7595272  38.1447840  69.0304756  43.7041759
  39.2771006  68.0413437  43.5296535  37.9698825  41.5259457  29.1093373
  38.1528759  42.3304605  28.6240554  37.1656179  41.7153931  29.5925570
  79.5801830  28.8654828  61.3523388  79.5144081  29.1519165  62.2633028
  78.6912584  28.9542127  61.0085869  44.5468855  27.6737118   4.8997045
  43.6447287  27.4453831   5.1237869  44.4955921  27.9980516   4.0005907
  70.5194092   4.8047653  69.9360275  70.2195358   3.8991815  69.8571157
  70.5068731   4.9800831  70.8769560  21.8484068  20.4632163  24.3644547
  22.3771238  19.7397041  24.7009373  20.9730506  20.0908709  24.2579389
  24.1955519  13.8414717   1.7252259  23.5690713  14.3695199   1.2303340
  25.0234866  13.9512861   1.2575734  36.3366437  15.6291342  29.5368171
  35.8741260  16.4637005  29.6130323  37.0892191  15.8225536  28.9778471
   3.2528928  79.9137354  34.8405814   2.6672661  79.3051243  35.2909899
   2.7691466  80.7394028  34.8182750  19.0002167  34.5695639  44.7161674
  18.1750083  34.3251252  45.1351118  19.6094012  34.6972537  45.4433680
  14.4418097   0.4415468  52.5681019  14.0034175   0.9697594  53.2352161
  15.2436090   0.9248458  52.3686743  78.1019497  60.6157446  32.6563621
  79.0508652  60.6797838  32.5482416  77.9633379  59.7543001  33.0499768
  20.3293705  30.6740594  17.1719778  20.7311201  29.9732232  16.6584992
  19.4192982  30.3986788  17.2822738  65.7033682  20.8337188  61.1882353
  66.3727999  20.8626795  61.8717957  66.0830927  21.3255620  60.4601336
  13.3035314  69.8250437  52.6395035  12.6783478  69.5043468  53.2895279
  13.1658769  70.7721281  52.6216698   1.7021270  32.2089887  44.1042805
   0.7835844  31.9886088  44.2590237   2.1245033  32.0857072  44.9543571
  20.7652640  29.4736910  53.6118889  20.4587197  29.7478318  54.4762421
  21.0941029  28.5846925  53.7452316  39.5414901  33.7010241   5.2255177
  40.2333117  34.2653155   4.8802772  39.7659898  33.5843015   6.1486685
   7.1364570  25.6497073  37.5311017   7.6633734  26.4039683  37.2671247
   7.3979199  24.9525666  36.9295478  29.4130039  26.4369178  27.6670647
  29.8518324  27.1280575  27.1710944  28.9849496  25.8990073  27.0009923
   6.6419810  35.2721000  20.7524085   6.9626099  36.1487293  20.9644246
   6.9881302  34.7152972  21.4498210  62.1203375  44.4633055  40.3274393
  62.8009224  44.9768257  39.8923135  62.4941254  44.2448235  41.1811256
  74.9310923  16.4397061  10.0949001  75.7952452  16.5607369  10.4883671
  74.3180847  16.5703845  10.8183515  71.8899679  78.5768652  66.0053396
  72.7318525  78.8590860  65.6478310  71.2929964  79.2994976  65.8112812
  33.1238699  31.1646342  21.6292167  33.9633536  31.1670566  22.0891047
  33.1227899  30.3436852  21.1370039  14.6573508  64.6544933  50.9477186
  14.8860943  64.7619247  50.0244808  14.5453131  65.5480003  51.2722540
   1.6680074   3.8834131  65.6399059   2.0851551   4.7418410  65.7128477
   1.5728714   3.7426180  64.6979094  54.3437052  54.2372084  20.5549526
  53.5733843  54.7764826  20.7339001  53.9871836  53.3793306  20.3243661
  82.0752907  50.2642965  33.9975238  81.2539101  50.1276541  33.5254049
  82.0884609  51.2020969  34.1887903  68.5791492  27.8494382  69.1033649
  68.8929987  27.0117545  68.7627554  68.2134914  27.6369667  69.9620724
  72.3065710  55.9760189  10.0421727  72.8703403  55.6395435  10.7387197
  71.7374325  55.2397680   9.8180240  30.9749579  47.7348709   8.6551964
  30.9105802  48.6010313   9.0575069  31.8812537  47.6781511   8.3524686
   1.6893591  70.2831221  54.9247599   2.2645074  70.2371550  55.6885147
   0.8761303  69.8679304  55.2120018  22.8803778  39.0117621  27.6650190
  22.1948433  38.5269618  28.1246305  23.6970997  38.6974072  28.0528045
  42.0565748   9.6060109   3.3121967  42.6689339   9.5888674   4.0476933
  41.5074873  10.3728628   3.4755194  21.6687059  79.1380835   2.1986444
  21.5368414  78.3998108   1.6038342  21.1977816  78.8914108   2.9946443
   3.0267432  33.0359554  61.0591364   2.7857122  33.7821817  61.6080236
   3.6433589  33.3965635  60.4219723  49.9683428  16.5180326  19.2714512
  49.8236084  17.1592021  18.5756171  49.6950960  16.9669926  20.0714517
  32.4077082  52.5719595  43.4754610  31.8024826  52.1999693  42.8339338
  32.5053239  51.8876076  44.1375542  36.0136557  32.3458242  38.5478377
  36.8217492  32.7685261  38.8385940  36.3050842  31.5409231  38.1195450
  68.0521345  81.5330696   5.9866410  67.3299694  81.8007088   6.5550435
  68.3662224  80.7133675   6.3683116   7.0376629  47.7989960  26.8311453
   6.2252367  47.4574757  26.4575720   7.7285540  47.4246979  26.2845182
  37.3185825  81.8830204  22.9981804  37.1026850  82.7633476  23.3058238
  37.1424985  81.3168144  23.7496042  20.0382924  52.3723698  39.3293405
  20.2170992  51.6590881  39.9421096  19.8915851  51.9360352  38.4901023
  55.2288580  26.2678385  13.4159458  55.1972723  25.3916287  13.0318987
  56.1530685  26.5137315  13.3758843  39.7102714  49.6881390  22.0518708
  39.5280075  48.7508297  22.1186447  38.8828802  50.1101208  22.2833633
  82.5698090  79.4774485  71.2153530  81.6468143  79.2259836  71.1824608
  82.7591133  79.5722342  72.1488476  13.8120949  75.0173187  38.1077719
  14.1363084  75.9170151  38.0670261  14.0694427  74.6318293  37.2702718
  37.8195405  57.3851347   5.4173714  37.6116800  56.7523241   4.7299287
  38.0715847  58.1783056   4.9445236   5.4991722  27.8526354  18.1197143
   6.2457597  27.3356104  18.4222400   5.3735977  28.5132980  18.8008821
  35.4707742  25.8162451  21.3668823  35.4468513  25.6135201  22.3020625
  36.3292837  26.2170100  21.2305689  80.6575298  29.3876576  39.7259831
  79.8452568  29.7253871  39.3486571  81.2945652  30.0890326  39.5899940
  52.6777029  43.2459879  13.4316623  53.1149483  44.0808249  13.2640421
  52.8759336  43.0514717  14.3476868  59.1205597  42.5767183   8.7740922
  58.3769655  42.6060438   9.3761224  59.8786783  42.4207306   9.3372613
  32.5854945  69.3408442  24.9026179  32.6339030  69.5194197  25.8417678
  32.4748087  68.3918333  24.8446608  35.5067849  43.1039190  22.1075034
  36.1443472  43.6711502  22.5410819  35.7363749  43.1510735  21.1794424
  18.8093865  29.3288302  68.1955147  19.0798295  28.5626912  68.7016058
  18.0424035  29.0332961  67.7049780  38.3632636  48.9458609  25.1452899
  39.3087268  49.0928030  25.1724339  38.2047415  48.5652018  24.2814589
  24.0492702  27.6901793  38.4368944  23.5776830  28.4985733  38.2360530
  24.8307204  27.9794765  38.9079309   6.0760637  65.1011027   0.1247339
   5.9032912  64.2760910  -0.3288527   7.0214362  65.0985540   0.2747231
  38.3174086  12.6029611  69.5238113  38.7492490  13.4347320  69.7184944
  38.6999178  12.3234165  68.6920786  84.7635460  52.1295404  60.6009674
  85.2344036  51.7513752  61.3436079  85.1399803  51.6981125  59.8338938
   8.6604106  51.1618042   9.2385089   9.4214022  51.6926193   9.4737971
   8.4301054  50.7021761  10.0459325   8.9555073  55.9339237  14.6397233
   8.4602869  56.2941360  15.3754091   9.2143732  56.6998625  14.1273201
  21.0385156  57.7790403  48.3124113  21.8647957  57.7061033  48.7900877
  20.8085728  58.7063122  48.3718014  27.8505492  64.0264130  50.4893732
  28.6723542  64.3176699  50.0943518  28.1050754  63.3102512  51.0712290
  50.4648924  60.6774378  44.5945740  50.2855396  61.3770723  45.2227259
  51.1297226  60.1369905  45.0213718  19.8406506  50.5910206  30.3221846
  20.5659795  50.7698774  29.7237372  20.2630711  50.2992201  31.1300492
  13.1153548  10.0963521  61.5963602  12.7225673  10.7222354  62.2048140
  14.0518308  10.1275837  61.7919827  46.5115070  44.8428249   4.1013622
  46.9154930  43.9766693   4.1543338  46.5664864  45.1876640   4.9925953
  37.3719668  62.3639154  24.6247411  37.6649642  61.5017939  24.9199176
  37.6274419  62.9582262  25.3302622  37.6346660  37.3293233  12.1812689
  38.0238008  36.9263768  12.9574382  38.3743906  37.4781680  11.5922999
  38.9483833  25.8184385  15.4158497  39.6029091  25.2200723  15.7761049
  38.1165242  25.5057740  15.7714975  40.0130606  39.2665124   3.9466089
  40.7144785  39.2797899   3.2954037  39.4320035  38.5625458   3.6584514
  19.7950685  33.0263758  53.1498718  20.4601073  32.9252887  52.4688911
  20.2415752  32.7783418  53.9594078  33.7333083  64.3354702  54.4088411
  33.4849477  65.2458096  54.5695448  33.1876659  63.8286114  55.0101757
  28.9371109  58.3386612   5.3439558  28.2714534  57.7487183   5.6976473
  29.4618726  58.5907030   6.1037785   1.5778732  31.6730642  23.6662102
   1.5260553  31.7159486  24.6210456   1.5382960  32.5865293  23.3829308
  29.1525841  75.5030107  34.7442770  28.3985162  75.0388241  35.1077938
  29.0601611  76.3995266  35.0666785  33.3997416  35.7410216  16.9351304
  34.2551064  35.6046700  16.5277064  32.7773833  35.3494883  16.3222647
  47.0134544  45.2198601   1.2054992  46.9406700  45.1507235   2.1574208
  47.9512405  45.1410341   1.0306382  34.2411613  40.2064800  13.1813467
  34.1441965  41.1584568  13.1574762  35.1160312  40.0459003  12.8277218
  29.4767857  53.4051847   4.4364962  29.9704242  53.2755661   3.6267108
  29.0028930  52.5830984   4.5623168  26.9821668  56.7212534  38.1454682
  26.3638806  57.0596886  37.4978447  27.8365922  56.7894697  37.7193975
  46.9710970  73.6123037  64.7673225  47.4732685  73.8462639  63.9867353
  47.4113798  72.8350973  65.1113224  79.6914148  13.6190355  53.0674744
  79.9431038  13.1026053  52.3018503  79.0865898  14.2768407  52.7243900
  25.5353713  36.2492442   9.2487788  25.5018091  36.9877577   8.6407453
  25.4378319  36.6467714  10.1140475  24.1535997  71.8894529  26.4866352
  23.9981437  70.9536028  26.3591385  24.0019679  72.0323372  27.4208856
  43.1925392  34.0847802   6.1893970  44.0219402  34.1081929   6.6666532
  43.1570864  34.9235034   5.7294863  75.0848532  68.7903833  22.8765202
  75.3325891  69.5046186  22.2893858  75.4310083  69.0509653  23.7300444
  -0.0901208  22.4649048  39.9695301   0.4432265  21.6850138  39.8160839
  -0.0265802  22.6167989  40.9124613  51.8395567  13.9577532  67.4775839
  52.2012234  13.8937712  68.3615160  51.9050837  14.8872817  67.2586918
  16.1152935  20.1230264  23.7304926  15.2520311  19.7153366  23.7997842
  16.7033017  19.4020343  23.5054374  43.2207489  43.3042240   9.5753205
  42.2702742  43.2607079   9.4707751  43.4465218  44.2044067   9.3409401
  58.3530474  73.0229425  28.9481854  58.7704515  73.4014511  28.1744051
  57.4649477  73.3799410  28.9400339  84.3340492  20.9361362  68.6128998
  84.5022583  20.7534266  67.6884794  83.7874699  20.2068734  68.9055872
  -0.0807441  51.9215250  67.1809959   0.1619595  51.3599539  66.4448166
   0.7503188  52.2789526  67.4937487  64.7125864  21.5900064  32.4116135
  64.7356987  21.7386723  31.4663100  65.5720997  21.2223840  32.6173377
  68.4780550  20.1450753  38.1065893  67.8678465  20.4013658  38.7981057
  69.0479422  19.4956923  38.5186124  42.1472883  54.6792221  16.8257141
  42.3104858  55.4322481  17.3936498  41.4274931  54.9577665  16.2595534
  54.6783113  59.5313501  62.8046370  54.8944521  58.7072897  62.3682499
  55.3340864  59.6149731  63.4968805  14.3407452  38.4795141  20.8811736
  13.6982918  38.6995220  20.2065754  14.7916341  37.7072644  20.5397630
  10.3816164  31.9014597  44.1102171  10.5407190  31.0315847  44.4765997
  10.9421349  31.9411540  43.3353138  30.9908509  58.4580708  24.1250086
  31.6950822  57.9657841  23.7031770  31.0444236  58.2096386  25.0478554
  23.1945944  44.2341089  38.0698633  23.1893730  44.1489649  37.1164703
  24.0041018  43.8033247  38.3443713  30.7539344  54.3265533   6.8049425
  31.1183071  53.5363293   7.2037029  30.4097319  54.0323973   5.9615993
  34.4314504  48.6215067  13.4647584  35.2041292  48.0574226  13.4329772
  33.7479520  48.1164980  13.0242717  46.7516232  60.1689148  33.0608726
  47.0004034  59.9876738  33.9672327  47.2495079  60.9525537  32.8279614
  87.0364094  69.7561073  31.9451022  87.9379749  70.0345659  32.1059346
  86.5289402  70.1739550  32.6408863  77.3619080  41.1714172  25.8567333
  77.6043224  41.3374662  26.7677188  77.5333929  41.9996071  25.4084849
  32.1265841  72.1427441  19.4841778  32.0820665  72.1665192  18.5283089
  32.0478177  73.0587769  19.7504735  65.0258255  59.6011972  42.1295166
  64.3503904  58.9922905  41.8307543  65.0939274  59.4403982  43.0706501
  13.0123138  37.6625609  42.2723866  12.1394229  37.5693917  42.6539755
  12.8721654  37.5748229  41.3295746  40.9374905  54.1129971  42.1198797
  40.5918741  54.9868393  42.3020411  40.9072781  54.0375042  41.1661386
  26.3421965  39.8295355  12.8443778  25.9526038  40.2728605  13.5979795
  27.2627807  39.7180033  13.0816865  23.3257794  56.7374086  18.2991970
  23.8616443  56.8590450  19.0829599  22.5112700  56.3529491  18.6232364
  63.8720846  30.2101088  65.0497723  64.6113586  30.4375148  64.4858646
  64.1934538  30.3613734  65.9386349  23.5018635   3.4558851  45.8282042
  23.6378074   3.1730497  46.7325020  23.4434152   2.6414269  45.3287315
  58.7338972  62.3922682  30.2251172  59.3503237  62.0281315  29.5897818
  59.2092228  63.1166840  30.6319547  17.3344564  29.7626305   4.8996717
  17.2995627  28.9009166   5.3149605  18.0527925  29.6963835   4.2705154
   8.1608468  22.9965115  67.7912188   8.3586293  22.1557117  68.2037354
   8.1650394  23.6245608  68.5135555  19.1061068  66.2163877  36.7510533
  19.3362701  66.5189266  37.6295328  19.2219198  65.2668905  36.7867279
  65.9425783  18.8642228  25.5565095  66.8336964  18.6242020  25.3024817
  65.4724646  18.9516163  24.7272992  79.6531391  24.6852660  55.0599575
  79.7348547  24.8612022  54.1226196  79.1064262  25.3979850  55.3906584
  41.1672020  63.0514908  21.0399294  41.3361597  63.3513165  21.9331193
  40.2157497  62.9568434  20.9950018  34.8833060  58.4029531  43.2780218
  34.3951917  59.1905832  43.0379963  35.5306125  58.7069273  43.9142847
  19.5631242  53.1648540  15.7426834  19.3598604  52.2661734  15.4832852
  19.0378249  53.7083006  15.1553535  40.9683228  79.3055964  48.6785126
  41.1599684  78.4850407  49.1325951  40.8923864  79.0574074  47.7571726
  61.9673300  56.7802668  14.7992957  61.2573147  56.5217972  14.2116654
  62.1336126  56.0018301  15.3309178  42.2485399  42.4868059   1.3950962
  42.0030499  42.6357412   0.4819788  43.0408382  43.0095720   1.5184279
  53.3644485  47.6738882  65.7039690  52.4686623  47.9162645  65.4693508
  53.6877918  48.4166193  66.2138987   6.3107383  41.0076332  26.4864182
   6.5001482  40.6005573  25.6410527   5.3550196  41.0423994  26.5267396
   7.8928512  69.2348433  52.4681711   8.5807842  69.8611546  52.6933670
   8.2970434  68.6578321  51.8201637  45.2932644  42.1605396  15.6120718
  45.0864840  42.0985508  16.5446115  44.6978998  42.8319025  15.2788377
  46.2816763  50.5599070  29.9938488  46.9480848  50.3923273  29.3274808
  45.4925251  50.1372385  29.6549892   8.4616685  15.6738710  19.3243551
   7.9077119  14.9390960  19.5879281   8.6926121  16.1066222  20.1463175
  13.0474794  36.4226556  11.1451602  13.6022568  37.2003198  11.0843956
  13.5970831  35.7102489  10.8185959  12.8005767  25.2688599  36.2708092
  12.4744475  25.9021115  36.9102359  13.6331058  25.6358600  35.9734297
  37.3675561  44.4654322  23.3069086  36.9752097  44.5410585  24.1767216
  37.9797316  43.7335348  23.3831048  29.3036199   9.7485012   6.5851939
  30.0415444   9.6150893   5.9902990  28.9812469  10.6247342   6.3741875
  55.5418062  74.7311974  62.4365187  55.2208233  74.6830559  61.5360260
  54.7490311  74.7582722  62.9722500  28.4424520  49.7070122  37.3835349
  28.9533997  50.3863144  37.8236628  28.4617543  48.9641190  37.9868293
  15.4035604  81.0274029  66.8667126  15.6778312  80.1148129  66.7762327
  15.9121120  81.4970112  66.2055969  20.3578639   8.8374037  69.0191174
  21.2007093   8.4422398  68.7962008  19.8926473   8.8960493  68.1846333
  21.9832802  63.5424948  11.8878019  22.5412464  62.8705549  12.2794640
  22.5929070  64.1283512  11.4390695  44.0171957  72.1033335  33.4742689
  43.2142687  71.6580200  33.2036448  44.2014551  72.7177143  32.7637672
  55.1300907   1.1987836  41.3830471  55.2282715   0.2910677  41.0955667
  54.4257307   1.1700910  42.0305729  62.7672720  20.2818561  70.5632162
  62.0350885  20.8842731  70.6944799  62.4087381  19.4196594  70.7736874
  38.9985895  53.9266825   8.5458076  39.0887022  54.2907333   7.6651382
  38.1573582  54.2601013   8.8578850  23.7206388  64.0159893  39.8994613
  23.0215979  63.3848429  39.7284985  24.5284820  63.5153389  39.7855592
   8.3852011  51.8538666  12.9730451   8.1959522  51.0143661  12.5539362
   9.2735380  51.7556190  13.3157361  50.4926920  34.1460538  15.1054871
  51.3832855  34.0598297  14.7654247  50.3928518  33.4070253  15.7055700
   6.5173334  18.1034243  70.9966040   7.1092129  17.5813103  70.4550266
   6.8709743  18.9916837  70.9500742  27.4337459  34.4271469  14.6451902
  28.2192612  34.4990110  14.1029418  27.5991535  33.6702347  15.2072883
  35.2864623  31.2937999  28.9925766  35.2664495  30.7104492  28.2339382
  34.5201230  31.0425687  29.5081735  23.8509011  54.9153137   7.4707419
  23.2877302  54.2403364   7.0919561  24.0362477  55.5087566   6.7429370
  44.2630291  78.5738373  18.1480479  44.5756721  79.0429735  18.9216089
  45.0311232  78.1005335  17.8282857  78.2542515  81.1584091  66.6797924
  78.0372620  81.7797852  67.3748016  79.1988659  81.0273361  66.7620230
  40.5375624  54.7055054  34.0616894  40.9538698  55.0304890  34.8600054
  40.3020144  53.8004637  34.2657685  74.3735790  22.3494029  43.0377102
  74.8374605  22.8459740  42.3635674  74.6231318  21.4390469  42.8789377
  52.0582962  55.2639484  48.3858252  51.9964457  54.4861889  48.9403534
  51.1491346  55.4968786  48.1976843   8.3273208  46.9131374  24.6449471
   7.6964253  46.9758129  23.9278173   9.0934891  46.4932489  24.2539072
  39.9695563  31.2276745  12.1069491  39.5871973  31.8901491  11.5314853
  39.3860221  31.2035799  12.8653276  49.2390823  60.5816793  19.8849523
  48.8363838  60.3151846  20.7114172  49.1014528  59.8364639  19.3001950
  81.1171722   1.5053660  35.9687304  80.4593468   1.9759889  36.4806032
  81.8378162   1.3590460  36.5815020  47.2741079  52.4843931  15.9462154
  47.7373123  53.0755663  16.5396702  46.3710403  52.8017092  15.9486675
  13.3820021  54.0766764  34.6237445  13.1892872  53.2773447  34.1336775
  12.5345981  54.5126057  34.7137666  68.6503124  69.0354204  47.8004456
  68.9103794  69.0570116  48.7213850  68.6490870  68.1054783  47.5736523
  43.1291580   9.1406554  63.5625839  42.6057673   8.4446871  63.1651831
  43.8658381   9.2584956  62.9628801  72.1801138   4.8793569  43.1845236
  71.5286350   4.2029750  43.3697510  71.7082739   5.5306238  42.6654339
  83.4726334  38.4042931  17.0957708  84.0892601  38.1193590  16.4213753
  83.3906555  39.3485236  16.9618309  48.6154270  51.6752481  28.7195349
  48.2699680  51.7256069  27.8282690  49.2338228  50.9450102  28.6958146
   9.2630750  38.7181067  37.6888895   9.9931270  39.0132499  37.1446943
   9.3392283  39.2335248  38.4918690  28.2827020  78.3546257  22.8205466
  28.6284971  77.6303434  22.2989392  28.0811143  79.0364504  22.1796799
  19.9900091  66.9293070  23.8102031  19.6331143  66.1142540  24.1631103
  19.6957588  66.9451094  22.8994894  26.6434264  46.1651421  31.5517211
  25.7703424  45.8765793  31.2858462  26.6681647  47.0945454  31.3240623
  51.1332846  61.8644381  15.1240623  50.4746914  61.2730312  15.4883778
  51.3143969  61.5133238  14.2521977  16.3586593  62.8874826  41.1131859
  16.9757080  63.2737637  41.7346954  16.2021399  63.5788822  40.4699850
  86.8542480  15.3962469  26.9111323  86.9039822  16.2690938  27.3008728
  87.1180534  15.5253434  26.0001063  36.0448909  46.4069366  21.5409327
  36.4163399  45.5760765  21.8374586  35.1040602  46.2410212  21.4814305
  53.4584713  18.8007355  20.2016330  52.5101185  18.8949609  20.1122689
  53.7395382  18.4112513  19.3736637  61.8630409  54.6246576  10.8741093
  62.0155716  54.2479610  11.7407501  62.4037170  54.0979576  10.2854741
  72.3425722  33.9032435  15.5826151  73.0257177  33.3287787  15.9283531
  72.5847340  34.7762465  15.8915746  69.0037632  74.8885870   2.3495948
  69.1382504  75.1410341   3.2630590  69.0584993  75.7111931   1.8632226
  76.2907124  63.6383295  36.4856529  75.8957958  64.3925953  36.0482049
  76.8969965  63.2768536  35.8391356  51.8107891  40.0766373   4.1543531
  52.5506210  40.4189968   4.6560252  51.0403872  40.4668522   4.5671961
  37.7359176  80.4875088  31.6092229  37.6828361  79.8306084  32.3034120
  37.2615314  81.2425613  31.9571900  64.8987579  73.0134201   5.8601314
  64.2832899  72.4090862   5.4451495  65.3315544  73.4541225   5.1289022
  76.9967461  33.2153130  61.2864065  76.9528818  33.1575584  60.3319597
  76.4834833  33.9936686  61.5031004  50.6653690  76.7165756  37.6998782
  50.8882380  77.5847960  37.3640895  50.4871702  76.1954737  36.9169831
  62.5509691  73.8515854  54.0595293  62.6732683  74.3578053  53.2564020
  61.8328714  74.2925167  54.5135641  79.4336939  62.1712399  46.4723206
  78.8367987  62.5367498  47.1252728  80.2777767  62.1210337  46.9209242
  36.3865685  11.2153316  14.9325991  35.5220461  11.6260982  14.9224520
  36.4681673  10.8507085  15.8138609  35.4313970  35.0377512  30.6235528
  36.0329700  34.3832374  30.9784532  34.8547792  35.2552032  31.3559890
  13.8193631  51.8202496  14.0696704  13.9998555  51.9500399  15.0006962
  14.6821880  51.8265772  13.6552727  68.0262423  64.6372032  13.8344979
  67.1193409  64.8533869  14.0513706  68.2819748  65.2965879  13.1894839
  60.5920076  73.8597441  64.7101164  60.5625486  73.4313440  63.8546419
  59.6747255  73.9301062  64.9744606  75.1616573  34.7005010  18.0717695
  76.0308170  34.8354125  17.6941538  74.8532629  33.8845825  17.6775599
  70.6153536   4.7859871  55.8323002  70.3917217   4.0831363  56.4423990
  70.9411860   4.3332672  55.0544119  39.7409749  66.9680595  31.7841816
  39.5664430  67.1262932  32.7119398  40.6638288  67.1959877  31.6718054
  28.5460091  61.8900251  12.7315998  29.1293359  62.5484180  12.3541296
  27.6772046  62.2900248  12.6940298   9.5236999  58.5311604  39.3605161
   9.6881360  57.7849483  38.7840104   9.1335142  59.1932583  38.7898946
  20.1235533  32.8086638  33.9806342  19.8438096  32.0387888  33.4853888
  21.0669255  32.6915574  34.0927339  24.8820949  57.3276281  11.2358201
  25.6281757  57.8186846  11.5799952  24.1154814  57.8209162  11.5277100
  49.6073008  76.5638590  34.9888229  48.9820099  76.9515228  34.3764830
  50.0683308  75.9019995  34.4734335  30.6295848  52.6162720  14.3629277
  30.3906035  53.4113550  14.8393357  31.5657759  52.5086880  14.5308709
  55.7034016  61.7062998  52.0744228  56.0327435  61.4816713  51.2041855
  54.7700596  61.8721867  51.9418287  16.4649367  71.9410706  36.7446065
  17.1294141  72.0127773  36.0593629  15.8278060  72.6232815  36.5327430
  32.3744297  45.2324963  24.6914792  32.5890160  44.7287655  23.9063430
  31.4405394  45.0744200  24.8296547   4.6810463  31.2293386  25.2633214
   4.3215957  30.4681587  24.8076558   4.5641989  31.0296845  26.1921477
  43.3183432  35.7181835  34.5156407  43.0141211  36.4223146  35.0882483
  44.2715311  35.7344794  34.6016431  38.5946655  25.1850986  12.4498093
  38.8645411  25.1084375  13.3649719  39.3867493  25.4614305  11.9888628
  58.2539034  42.1156263   1.9314411  58.9133644  42.7911997   1.7735176
  58.4825897  41.4112616   1.3249743   6.6659456  38.6439228  27.7644563
   5.8262479  38.6836648  28.2222342   6.7116606  39.4659257  27.2761369
  22.5342464  45.7320356  19.5494938  23.0689025  45.0195885  19.1990781
  22.0556593  45.3363848  20.2779484  20.7732677  61.6066027   4.5531726
  21.3019753  62.3634958   4.8057961  20.9892225  60.9364319   5.2016044
  52.2016859  44.5326805  10.6934285  53.0203724  44.1315365  10.4017639
  52.2857952  44.5835686  11.6455674  18.5084164  56.8720150  46.8545151
  19.1512406  57.2460222  47.4571133  18.2377386  57.6082039  46.3058853
  11.0393143   6.3990855  58.9678907  11.1086249   6.1402071  58.0489731
  10.5271399   7.2075558  58.9509869  35.8347583  47.8576946  32.1698666
  36.3274860  48.2903147  32.8672147  36.3290405  48.0494404  31.3729048
  68.9065027  18.8369274  67.5234938  69.5459890  18.4091592  68.0929708
  68.3729267  18.1196797  67.1813154  49.1633415  48.8965178  34.5221066
  48.3399725  48.9136171  34.0342498  49.8372889  49.0502310  33.8599920
  30.1957488  36.0799789  36.4329743  30.4492712  36.9482851  36.1199212
  30.2635264  36.1397195  37.3859024  59.1170645  65.0680590  65.5475426
  59.5829725  65.1568794  64.7161150  59.3771029  65.8392620  66.0513926
  22.6173568  61.3882160  47.9648542  23.4615493  61.6232824  48.3499670
  22.8252745  60.6980228  47.3350620  22.2117710  37.7897596  45.5089426
  21.7385578  37.3569679  44.7983122  22.1305084  38.7239361  45.3167391
   2.1744287  34.8668218  63.0519962   1.6695903  35.4991078  62.5405407
   2.9889008  35.3239751  63.2614660  49.4185781  78.5611439  24.7315192
  48.9001131  78.5487652  25.5360532  48.7917042  78.3510017  24.0393496
  50.2979946  67.1861267  45.1514435  51.1412716  66.7863798  45.3643274
  49.6885014  66.4494801  45.1056051  44.2412138  42.5905704  18.2621551
  43.3997154  42.9739809  18.5093462  44.1910219  41.6850519  18.5683465
  80.9124660  35.5644774  69.7063112  81.2225914  35.8790493  68.8571358
  81.7091274  35.4473758  70.2238560  29.0718436  43.1124353  17.2016585
  28.6377549  42.3644114  17.6118457  29.9876046  43.0341005  17.4690056
  79.4152927  11.0672820  24.5009780  79.5448303  12.0058084  24.3645215
  79.1705894  10.7314074  23.6386895  38.4021497  12.6119399  41.5180111
  37.9490113  13.4090221  41.2431288  37.7009296  12.0182264  41.7863846
  11.1643541  16.2524629  56.4291573  10.6197023  15.6781578  56.9674492
  12.0560098  16.0988295  56.7415285  39.0735507  47.7040052  15.1343322
  38.8923621  46.8119431  14.8383200  38.6321950  47.7696466  15.9811664
  44.5139170  49.7966099  35.7112813  45.4166079  49.8022652  36.0296297
  44.4111061  50.6385660  35.2676892  22.6224422  12.2826016  64.4642162
  21.9240499  12.5596440  63.8711500  23.3217359  11.9789100  63.8854313
  40.1959419  45.3779411  20.7507229  40.3565216  44.7236538  21.4306927
  39.3839407  45.0932598  20.3313875  69.9401855  58.6635685  41.4838743
  69.1706848  59.1552544  41.7708397  70.5620337  59.3346882  41.2025595
  82.3763657  36.3919997  67.2952366  83.2977772  36.5505838  67.0900774
  81.9655228  37.2543812  67.2341347  69.0735865  36.1645937  10.1805508
  69.1179562  37.0672607  10.4959154  68.1384706  35.9604526  10.1694608
  62.6632452   2.7839819  11.4063370  62.2680855   3.4068754  12.0163238
  62.3048687   1.9350097  11.6652632  61.4306879  68.2355022  18.7124836
  62.3485136  67.9638672  18.7186086  61.0374498  67.7674055  19.4490135
  81.0585785  40.9513903   1.9378720  80.4354382  40.4178953   1.4446157
  80.7534218  41.8504000   1.8158275  33.2852578  78.7039042  26.6368389
  33.8954806  78.1278372  26.1763954  32.4329734  78.2801819  26.5353537
  84.9102592  61.5658283   6.1370820  84.7462559  62.3605204   5.6293416
  85.3666115  60.9834862   5.5297542  69.8444605   0.4861083  22.9387045
  69.4783640  -0.3918885  22.8322816  69.8420811   0.8552670  22.0555592
  22.4391961  47.3943663   2.9933137  22.6695919  46.6467333   2.4417728
  22.1423173  47.0033407   3.8150156   2.1344489  33.9690733  11.7459631
   1.6143519  34.7175765  11.4535987   2.9826120  34.0848303  11.3176501
  63.4298468  13.2445931  33.9456868  63.8367319  13.9915633  33.5066962
  64.1532469  12.6392281  34.1083550  53.2885695  65.8472061  29.6613431
  54.2371655  65.8915138  29.7814941  53.1077003  64.9173307  29.5240712
  49.8128796  41.9452286  15.5552542  50.2554798  42.2700787  16.3393509
  50.4236698  41.3102245  15.1811719  49.7687769  38.7930894   1.5246831
  50.1830721  38.0556774   1.0765584  50.4231501  39.4909549   1.4928816
  35.5688334  72.1629000   8.2162142  36.4179754  71.9957304   8.6251736
  35.3540254  73.0608654   8.4686875  40.9200335  43.2373095  30.2190781
  41.3886452  44.0082884  30.5388021  40.7930374  42.6944637  30.9971666
  58.6952925  56.3743734   9.3053865  58.6699247  55.5850935   8.7644351
  59.3564367  56.9281816   8.8901550  83.8552475   9.9392587  25.5749321
  84.7721100   9.9945867  25.3056145  83.7041092   9.0052313  25.7197809
  55.1993799   2.9741052   1.6956769  55.6913948   3.7482622   1.4221199
  55.4832268   2.8156978   2.5959921  49.8621845  47.7767897  39.2160082
  50.3385925  48.5678768  39.4679070  50.5010700  47.2578144  38.7274146
  78.1243849  63.9636278   7.2791559  77.6665831  64.5531940   6.6799402
  78.6036444  64.5459747   7.8685743  47.8948975  56.7368078  39.5033383
  48.3055925  57.2348976  40.2100658  47.1792078  56.2639475  39.9281096
  82.9278183  81.1590576   4.2074120  82.5345898  80.4932690   3.6431971
  82.5712490  81.9869232   3.8853544  57.7328062  45.3929853  16.3507390
  58.1395149  46.2220049  16.6028190  58.1301498  45.1781130  15.5068326
  37.4431396  18.8084173  21.1500335  37.4744582  19.4227374  21.8834233
  37.2230411  19.3506980  20.3925896  52.4257040  52.2120142  20.4875040
  51.5973997  52.1537590  20.0113249  53.0453062  51.7167187  19.9517763
  17.3104060  56.5048027  16.0014737  17.2698438  57.4220943  15.7309854
  17.6029027  56.5363979  16.9123399  70.4432487  66.7225456  38.0993700
  71.1539268  66.0847425  38.0332613  70.6785393  67.2662497  38.8512063
  56.5067005  46.7674494  13.0430508  57.0617914  46.1252737  12.6006508
  56.4996862  47.5231171  12.4555588  22.9081750  50.8371353  11.3427544
  22.4767470  51.1899710  12.1209645  23.4472132  50.1183319  11.6728878
  22.7099061  62.4124002  16.4320838  22.2569895  63.1300640  16.8748641
  23.2753682  62.8446770  15.7920694  86.9818878   1.1096322  39.6408105
  86.3935184   0.3659876  39.5102453  86.7372417   1.7317659  38.9557314
  37.1849728  60.3113270  20.3523993  36.8765736  59.6896791  19.6930993
  36.4513659  60.9137917  20.4752326  20.1111889  55.3732634  29.3588638
  19.5824504  54.6166325  29.1055346  19.5065880  55.9373140  29.8410821
  39.4753313  56.6966200   3.2206476  40.1039362  56.1556005   2.7427474
  39.9767017  57.0566797   3.9522332  34.0670872   9.5735610  63.6477375
  34.6610260   8.8899577  63.9578247  34.5321655  10.3919029  63.8216639
  36.5209055  37.5848436  30.3899240  36.5738511  36.6495419  30.5864930
  35.5927420  37.7977943  30.4868603  36.8779159  40.0226974  31.9483423
  36.4709187  39.3987942  31.3472319  36.9332528  39.5525193  32.7802706
  49.0718126  54.0190029  11.4896226  49.6688509  54.0144444  12.2377932
  48.7248039  54.9107647  11.4655411  46.5556860  70.8517551  32.4717164
  45.7383394  71.2669706  32.7469802  47.1752024  71.5763140  32.3854303
  33.7384582  51.0846567  12.8601575  33.9838004  50.2553797  13.2704461
  32.9442906  50.8816195  12.3658848  30.2934146  67.1952391  39.8291516
  29.5348716  66.8878126  40.3254700  31.0401249  66.7563009  40.2365685
  38.8107800  55.8863640  43.4474468  39.3327808  56.4957094  42.9254818
  37.9056811  56.0698986  43.1957722  18.3219802  64.6035337  17.1890163
  18.0493796  65.0534344  16.3893235  17.5415325  64.1285324  17.4745119
  51.6963196  52.8720522  32.3376560  51.0984802  52.7756882  31.5963507
  51.1258030  52.8782034  33.1062293  20.2439976  60.3587103  35.6309056
  20.8803511  60.9534168  35.2338982  19.7665250  60.9024191  36.2575078
  33.1512070  23.3866930  33.5912991  32.2427416  23.6744809  33.6812973
  33.3329058  23.4567189  32.6541138  50.6088114  74.7499084   6.3957709
  49.8835564  74.2284441   6.7397392  51.3950920  74.2911959   6.6916949
  39.8962474  45.4173899  25.4172421  39.6607995  45.6869602  26.3050079
  39.1292238  45.6376934  24.8886800  78.9103079  34.2582750  12.2255456
  78.2557535  34.9397683  12.0727110  79.5104980  34.6417451  12.8650379
  68.0729151   1.2759353  56.9665432  68.5965347   0.4822200  56.8566704
  68.6663485   1.8980205  57.3873472  50.3482533  52.5266171  25.0006819
  50.1216507  52.6776743  24.0830398  49.5538950  52.1565628  25.3857636
  37.6438546  48.1868458  27.6043248  38.5046005  48.6055708  27.6083159
  37.4294329  48.0889416  26.6766024  19.5504653  30.2198815   3.4192193
  19.7658539  30.9583592   3.9888576  19.6149075  30.5746102   2.5325143
   2.6512137  18.8711739  71.0356140   2.9616338  19.7753119  71.0846472
   3.3005685  18.4241021  70.4927540  76.9445419  11.1986780  52.8097486
  76.9867659  10.4749823  52.1846819  76.1324930  11.0497212  53.2941294
  46.3245583  55.5636215   8.2035369  46.9391155  55.7666826   7.4983323
  46.3245869  54.6077204   8.2534146  71.9413567  21.5181875  24.3007421
  71.7306232  22.3937321  23.9763308  71.0914278  21.0904527  24.4051337
  19.9258041  67.8149271   5.5636585  20.6139588  67.1632481   5.6977832
  19.5207858  67.9163122   6.4250016  29.5004511  50.9561729  21.5511227
  29.1496396  51.8377686  21.4248252  29.7123528  50.9140301  22.4836230
  40.3724718  63.4226274  30.9427762  40.3528547  62.9322004  31.7645597
  40.9387112  64.1725874  31.1248803   7.3033583  22.1286321  30.2384186
   7.2938097  22.8283095  29.5852780   6.5672725  21.5661216  29.9976039
  25.0241709  63.9621115  47.1958828  25.1709867  63.3616924  47.9267550
  24.1078162  64.2249393  47.2821951   9.6475554  60.9379292  14.9268115
   9.3489748  61.7491484  15.3379226  10.3311110  60.6106091  15.5114853
   5.4091549  82.7397823  31.6291142   5.6763440  82.8298378  32.5438428
   4.4605938  82.6173782  31.6676021  86.0066223  31.2293243  63.9058828
  85.7819080  30.6546617  64.6376610  86.9311142  31.0493660  63.7351561
  37.2784948  53.8881159   6.0342997  37.0864367  54.7163439   6.4740485
  36.9727635  54.0171194   5.1364589  77.6400566  71.2432337  24.7590923
  78.0968332  71.6130543  25.5146170  77.6517344  71.9429827  24.1060638
  33.8156724   1.1389294  11.4831424  33.1318450   0.4890402  11.6451752
  34.4952607   0.9369665  12.1262622  25.6163383  69.2288160  10.3046787
  25.3680515  68.8653612   9.4546872  25.4340792  68.5258293  10.9282362
   4.4899076  80.1890087  48.8436079   5.2461714  79.8580980  48.3590508
   4.8670411  80.7432461  49.5268536  46.6197300  33.2049918  17.0322967
  46.8383265  34.1297841  17.1472275  46.2845612  32.9302454  17.8857648
  42.0496368  68.1440163  31.6004252  42.1770859  68.1413412  32.5490999
  42.6682711  68.7991858  31.2775016  72.5066710  56.0162067  27.7748132
  71.7307472  56.1186504  27.2237420  72.4041748  56.6784811  28.4582758
  72.0953083  19.2265248   9.3820471  71.6716671  19.8210824   8.7629694
  72.8414774  18.8703847   8.8997269  73.8202667  45.7954645  66.5201902
  74.6707582  45.9481573  66.9319963  73.7137890  44.8443365  66.5360451
  38.3646750  63.0666924  11.0968375  38.0015397  63.4655142  11.8876004
  37.7025986  63.2238054  10.4236341  87.9695797  25.6321478  66.2490129
  87.9348660  26.3785744  65.6507921  87.0654011  25.5172729  66.5413952
  43.3871889  81.3905621  58.8393927  43.1241655  82.2014141  59.2747831
  42.6260233  80.8161736  58.9227152  59.0663815  33.2032847   4.9666846
  58.4955549  33.4371638   4.2347738  59.8135519  32.7666330   4.5576635
  38.6166167  36.3546467  18.9858890  37.9084706  36.9630766  18.7747598
  38.4168911  35.5688357  18.4771228  53.7916946  42.4366808  47.8511667
  53.5823584  41.8930197  48.6106682  54.2314386  41.8412352  47.2442865
  72.5387526  13.8756013  58.1725264  72.8269196  14.7706449  57.9933977
  72.0063448  13.6388814  57.4130964   3.7587807   5.4350370  61.7395306
   4.0389973   4.6122903  62.1405268   3.5332230   5.9978592  62.4801970
  79.8084116  81.5570927  70.2866554  78.8925028  81.3540554  70.0966072
  80.2883720  81.2354851  69.5234728  67.0941782   8.1597555  23.3328748
  67.4445105   8.9684474  23.7063980  67.5282812   8.0805385  22.4834561
  48.8454771  64.1578007  44.8577166  47.9302979  64.4195747  44.7569752
  48.8084793  63.3494043  45.3689480  41.3649511  12.8254902  69.6749496
  40.9368277  12.2052693  70.2650881  40.9729338  13.6715269  69.8912334
  25.9186125  67.8781414  17.8681028  25.5278611  68.7468576  17.7738905
  26.8184519  67.9855585  17.5599158  58.7266636  64.6888208  38.7560368
  59.3259096  64.3689585  39.4304419  58.0211687  65.1132536  39.2442656
  48.0412769  70.2566004  24.0330601  48.3219862  71.1389828  23.7905025
  47.4934769  69.9701595  23.3022404  38.6694789  28.4087110   7.0238936
  39.3182135  27.8908944   6.5471953  38.1721473  27.7645135   7.5277799
  57.9241943  69.3428564  32.5143170  57.1353722  69.7083282  32.9148388
  58.2494640  70.0407743  31.9456863  31.0965443  19.3374896  69.8638201
  30.7298350  18.7179673  69.2329931  31.2566471  18.8135457  70.6487322
  57.6491070  58.9579010  16.8581665  58.0847549  58.4833765  17.5661695
  56.7240047  58.9584684  17.1039701  24.0950513  47.2173786  37.5930762
  23.3899879  47.6170063  38.1024051  24.5734143  47.9593039  37.2230196
  45.5583668  15.8187664  36.7687082  45.4363537  16.5709126  36.1893797
  44.8178673  15.8599401  37.3738551  87.6355457  38.9141917  62.6744413
  86.9666100  38.4693694  62.1539688  87.2826481  39.7923088  62.8179979
  62.9699564  25.6878471   5.9171081  62.1503067  26.1683536   5.8008367
  63.2406330  25.8892035   6.8128878  61.3399172  61.4075470  28.8804388
  61.4717865  61.5087414  27.9377818  62.0318127  61.9367504  29.2772436
  18.7857580  81.6881466  44.0390778  18.8198769  82.4391270  44.6316004
  18.9655173  82.0570087  43.1742907  67.1333265  75.4279995  40.9945011
  66.6311169  74.9487877  40.3354311  66.4762926  75.7374287  41.6180277
  22.1933913  43.0491209  23.3986497  21.6251898  42.5158691  23.9545465
  21.6213536  43.3546686  22.6946306   9.6308923  21.6929197  27.2503877
   9.0591878  22.0576048  26.5748191  10.4819274  21.6037464  26.8214130
  69.0137243   2.1471374  25.1019168  69.8638535   2.2694597  25.5244708
  69.2202091   1.7339273  24.2635536  30.0969410  55.3115797  15.2638495
  30.9529948  55.6607771  15.0159240  29.4957042  56.0475016  15.1490998
  29.3726683   6.2203556  70.9569311  28.9817858   6.8449789  70.3459597
  30.1628160   6.6578579  71.2739372  54.2035818   3.0853617  64.9798441
  53.9624357   2.4988881  65.6968737  55.0633335   3.4255493  65.2274990
  16.5547252  68.6417007  15.9454513  16.4517617  69.1036558  16.7774534
  17.4875939  68.7157869  15.7442081  64.9894285  63.6373377  49.5335865
  64.2080927  63.1013393  49.6694136  65.3939676  63.6947107  50.3992033
  41.8818855  68.3095312  18.0662405  40.9471321  68.4961128  17.9787409
  42.2642374  68.6096144  17.2416258  52.8639650  50.6409025  14.8740113
  53.3623028  49.8923445  14.5460677  52.9530668  51.3056755  14.1910970
   5.5367148  57.4251842  52.4015284   6.3703805  57.1742868  52.7993774
   5.3435820  56.7191505  51.7847204  22.5954890  70.0106907  18.2649088
  22.6484585  69.9174118  17.3137379  22.4429154  70.9450865  18.4058082
  72.4481678   8.5452139   8.1409717  73.2243252   9.0996271   8.2211959
  72.6343870   7.7902293   8.6991405   3.5804617  21.7435908  23.1518412
   3.7456280  22.6161909  22.7947378   4.1111663  21.1589646  22.6107335
  25.5082655  14.0588617  17.7847457  25.7545328  14.2564738  16.8811238
  24.9817634  13.2620382  17.7207124  46.2883139   2.8360561  47.8387356
  46.3766479   1.8829417  47.8373337  46.1226654   3.0625901  46.9235992
  80.4087257  60.2899361   9.3905854  79.9275684  59.7559261   8.7584811
  80.2640820  61.1910868   9.1020703  70.9457207  56.6823578  56.3861752
  70.1760006  56.5528202  56.9402313  71.6727686  56.3312817  56.9003534
  15.6029069  25.3240514  65.9124517  14.7337985  25.0020123  65.6733465
  15.4984021  26.2736535  65.9721756  35.9646320  48.8109922  10.1274347
  35.7750607  49.7206593  10.3572071  36.1460233  48.3851385  10.9652758
  11.3096786  40.0763702  36.5716290  12.1015608  40.2217436  37.0893359
  11.4572620  40.5694628  35.7645893  36.5283132  49.8684549  36.0352445
  36.8520021  50.0983238  35.1642585  35.5965304  49.6918344  35.9055662
  11.0182917   4.4722244  56.5578842  10.9945822   3.5318324  56.7348957
  11.3878953   4.5410037  55.6776047  14.7747195  38.1228185   6.9628680
  15.6918323  38.0205584   6.7085463  14.6113276  37.3981404   7.5665045
  50.3451300  63.9408636  57.6430178  51.0606432  63.3050394  57.6439524
  49.7799015  63.6664295  58.3651161  26.6983938  66.7573166  58.5125589
  27.5066566  67.2332382  58.7034655  26.7398047  65.9811687  59.0712261
  57.2542477  68.4433317  65.2246380  57.7754927  68.2864094  64.4372940
  57.2222900  69.3966436  65.3046656   9.6499008   4.3776515  68.4789562
   8.8267744   4.7692177  68.1867695  10.3164923   4.7756135  67.9190302
  54.7923183  48.9357996  13.7912524  55.5318069  49.0098667  14.3944967
  54.1895008  48.3314419  14.2243743  68.9972687  37.6015782  18.5868108
  69.3926907  37.0647168  19.2735815  68.8333750  38.4457350  19.0072465
  11.4505959  45.7100439  26.2218666  11.2028098  46.5932655  25.9484410
  11.3073468  45.1697302  25.4448366  34.8903537  56.0116100  11.0466385
  34.3750620  56.8182707  11.0484183  35.6523728  56.2129736  11.5897858
  12.7742207  40.5570507  68.3382559  12.1658993  39.8837328  68.0335903
  12.8290915  40.4200315  69.2840099  20.1206255  19.6350992  64.8625374
  20.3693223  20.3117037  65.4922867  20.1118898  18.8249898  65.3723192
  19.0344596  65.5870247  10.0130832  18.9420116  66.2069035  10.7365692
  18.7317944  64.7529459  10.3721607  35.6591296  41.8198490  35.5212665
  36.3692260  41.9843578  36.1416960  34.9889660  42.4646759  35.7477903
  53.1300688  37.8350520  51.0876608  54.0306473  37.7383924  51.3972616
  52.6284933  38.0514050  51.8736935  47.4959326  61.0812330  17.4875808
  48.2616329  60.9534216  16.9275844  47.7262402  61.8270063  18.0416679
  31.0670686  53.6122036  39.4750714  31.2337065  54.5501375  39.3815422
  30.4585671  53.5492945  40.2112770  68.9417458  62.0047474  21.6042638
  69.1805553  62.8112841  22.0611024  69.6644783  61.4038658  21.7854643
  58.6027813  11.1097682  35.7006049  58.4001923  10.3316844  36.2200046
  59.1933155  11.6203868  36.2544751  33.8562536  74.1833115  40.5672550
  34.3993211  73.5678101  40.0748491  34.2725992  75.0340080  40.4286623
  30.0822568  65.2730656   9.7219241  30.6635356  64.6940613   9.2288733
  29.4289708  65.5574703   9.0827340   9.1969097  32.3899484  71.6221380
   9.9914932  32.5426888  71.1107254   9.0100509  33.2343864  72.0323086
  45.8168507  47.2723007  65.9853172  45.0704861  46.7565441  65.6800842
  46.5664101  46.9130278  65.5106401  54.9819279  70.3672981  33.2124972
  54.1717434  70.8359623  33.4129715  54.6918583  69.5497417  32.8078985
  72.4151325  51.2328672  16.3725030  73.3035183  51.5668392  16.4968538
  72.2351456  51.3714027  15.4426408  45.7187462  75.4145718  20.0915647
  46.0713100  76.2920856  19.9435914  45.2705526  75.4756308  20.9351420
  33.3780479  56.7206383   2.0779227  33.6796975  56.4532280   2.9460999
  33.8143730  57.5578690   1.9201268  27.4299765  63.2241058  31.4020944
  27.4213910  63.3291245  30.4507113  27.6372051  62.2997141  31.5391636
  27.8259563  51.7872334  33.6175203  27.0768166  52.1628714  34.0800309
  27.5695443  51.8009138  32.6954031  61.8782759  53.3696747  13.3227050
  62.2789288  52.6980257  13.8746107  61.0092974  53.5035849  13.7010956
  31.2583065   5.7812709  57.3548031  32.0965314   6.2434375  57.3510551
  31.4136672   5.0078380  57.8969240  23.0929065  29.6303844  13.4472370
  22.7462721  29.3456888  12.6016438  24.0002894  29.8741651  13.2643211
  54.4347763   8.3979452  56.4813566  54.3533897   7.6023561  57.0073318
  55.3379822   8.6839753  56.6178894  40.3990364  60.1340580  28.9857626
  40.2683449  60.1722956  29.9332261  39.5770502  59.7816420  28.6446261
  67.0857763  33.0793881  62.0061398  67.0240116  32.4178624  62.6951981
  66.4719296  33.7629843  62.2746849   2.2475669  82.2450447  11.7988241
   1.8917137  82.9904556  11.3151193   1.5113217  81.6387749  11.8801546
  45.0996494  59.8366594   1.7018777  44.4331837  59.5046377   2.3033898
  45.3540325  59.0743780   1.1818324  62.6023149   4.7634876  15.5366361
  62.7827215   3.8640577  15.2633035  62.7861357   4.7697851  16.4759994
  61.9600344  56.9088936  22.8710985  62.5787449  56.2501812  23.1865764
  61.1233854  56.4466667  22.8200960  45.9215021  69.3616581  40.1195812
  46.3197660  69.2330265  40.9804392  45.7143354  70.2956581  40.0886679
  54.4034815  49.7984219  23.2873297  53.9610720  50.5763626  23.6269164
  55.2696466  50.1105833  23.0255198  45.7856131  59.7234249  10.6582737
  46.0964441  58.9881754  10.1300514  46.3996458  60.4323387  10.4668605
  55.9954309  61.2759256  19.3177688  56.9445753  61.3587999  19.2256379
  55.7762289  60.4805231  18.8324666  18.0722749  74.8377991  49.7778511
  17.8783047  73.9093351  49.9065542  18.9966750  74.8572683  49.5301867
  27.9348493  25.9446788  69.5396614  27.6639414  25.0814676  69.2270803
  28.7829733  26.0952520  69.1222334  13.3801031  56.5831327  13.7233078
  13.9690566  56.4240313  12.9857087  13.0507529  57.4703550  13.5797739
  49.3283224  70.7643652  16.9700599  49.6983624  71.0091829  17.8182149
  49.8961163  70.0610876  16.6550314  62.4652719  44.4527626   9.3972796
  62.3324585  45.3605604   9.1243464  63.0122852  44.5156527  10.1802564
  43.3125496  61.6756344  20.0592947  42.6693153  62.3387671  20.3097677
  42.7989435  60.8767366  19.9401116  15.6613529  47.1747255  44.2218733
  15.9367657  48.0485296  43.9446545  14.7108102  47.1762037  44.1091824
  53.4369516  31.8564081   1.3035321  53.6103249  32.7545452   1.0215350
  54.3005657  31.4996338   1.5111797  87.1834278  74.1825008  68.0665827
  87.1998501  74.4257689  67.1409559  87.8102589  73.4624529  68.1361437
  47.8481054  52.1859169  26.1291695  47.4300575  53.0463123  26.0946727
  47.1238136  51.5725136  26.2531447  24.6782660  47.9319715  19.6474051
  25.1053643  47.8743219  20.5020952  24.3018222  47.0629072  19.5086610
  71.3587093  26.6727948  54.8872375  70.4042530  26.7259336  54.8381042
  71.6192007  26.2709308  54.0584517  27.7526617  78.7370062   4.8128384
  28.1964135  78.7129593   5.6606233  28.3180571  79.2782497   4.2618242
  34.8652911  59.4743204  26.2709880  34.2718768  59.0035105  26.8561625
  35.6008792  58.8753080  26.1432099  19.1203785  73.0838156   2.6431352
  18.8213992  72.6681709   3.4518883  19.6319234  72.4064875   2.2006664
  49.7996187  41.7618322   5.7058716  49.9733210  42.6004410   5.2783352
  48.8998461  41.5486908   5.4584634  14.2671049  13.2674313  59.3623304
  14.2285621  13.5960293  58.4641266  15.0924385  12.7845311  59.4054937
  27.1384239  70.6494665  19.9634445  27.4790120  69.8749971  20.4111362
  27.7830291  70.8340979  19.2803431  25.7206559  62.2846079  13.0056798
  25.2808475  62.7142763  13.7392926  25.0080633  61.9345474  12.4709868
  47.4494696  64.5730352  39.8495507  47.4491453  65.1319075  39.0724468
  47.0575857  65.1148891  40.5344200  55.8556700  75.5649376  18.4082699
  56.7722940  75.6725788  18.6621320  55.8689404  74.8672056  17.7531135
  49.5658112  37.3927140  15.2624166  49.2159033  38.0468845  14.6575570
  50.5044842  37.3720932  15.0761330  43.6069155   4.6556449  30.1876330
  43.6755896   4.1024274  29.4095159  43.8332415   5.5328512  29.8785758
  58.6295795  45.3305626  22.8003502  58.8787127  44.4304943  22.5904822
  59.4611263  45.8000088  22.8665471  79.4796991   2.9125667  37.6806283
  78.8941002   2.8293893  38.4332132  78.9281178   3.2737818  36.9867206
  73.9311361   2.3846349  35.4698324  73.0141926   2.4935193  35.2176666
  74.3634939   2.0759903  34.6735668   3.2470903  18.1138074  56.4121962
   3.9077863  18.7979925  56.3044739   3.7259710  17.2955430  56.2804794
  44.3504429  42.7481127  47.5984430  43.9162540  43.2804918  48.2649899
  44.1940308  41.8448830  47.8740168  38.7398863  36.9307566  25.6715298
  38.0496907  36.4049649  25.2672958  39.1441369  37.3981357  24.9405265
  43.1707954  54.2204905   8.9174461  42.4635363  53.8238764   9.4260865
  42.9906511  55.1600599   8.9488584  29.6499372  70.1053095  46.8566418
  29.2210102  69.6578550  47.5860500  30.5659485  70.1770401  47.1249914
  83.4148121   0.8748838  49.0269232  83.8008499   0.0106636  49.1695166
  82.5699902   0.6947532  48.6145449  45.6621027  23.4289289  29.5941520
  46.5094137  23.0257368  29.4051027  45.7641649  23.8013530  30.4700041
  47.7016735  50.7672691  40.6822348  48.6294317  50.9912252  40.6091738
  47.6963425  49.8318148  40.8850193  36.3977003  53.4246826  37.4086404
  37.2161007  52.9408979  37.5200224  35.8848906  52.8912735  36.8014097
  32.6629019  68.3545589   8.7779415  32.6883793  68.8024426   9.6235085
  33.5691094  68.3721352   8.4701949  58.2244301  28.9914250  17.7877259
  58.3315754  28.5550761  16.9425333  58.8452387  29.7195458  17.7617693
  52.5760889  15.7243764  19.7765374  52.9720020  16.3587141  20.3741145
  51.6789818  16.0358918  19.6565700  61.1992550  82.1078587   7.1820718
  61.0597134  82.8761387   6.6284364  61.0956192  81.3634682   6.5893054
  50.4750347  70.0369072  42.5123501  50.5010080  70.7383013  41.8615007
  49.6792412  70.2071428  43.0162954  87.0195580   9.0177733  47.1668148
  87.0165253   9.8807901  46.7527819  87.1575451   9.1986656  48.0965853
  85.1021671  36.7936277  66.4644337  85.5826092  36.2635446  65.8284950
  85.4725742  37.6715064  66.3730288   5.7544905  35.5465627  37.9436564
   5.9480405  34.7341919  37.4758697   5.8661270  36.2336826  37.2866678
  37.5365210  71.9255161  51.8895197  36.8124366  71.7155313  51.2997389
  37.6409554  71.1417961  52.4290657  52.5354195  38.3754659  20.0059581
  51.7359066  38.5721207  19.5177579  52.3396444  37.5602198  20.4677796
  53.0450296  56.0638142   6.6437089  53.0132914  55.3548908   6.0013300
  53.5763597  55.7149220   7.3593855  72.9760551   6.3291746  18.3418846
  72.0686388   6.0541385  18.4729671  73.0953503   7.0588768  18.9497781
  74.8477173   8.9300495  40.6927299  75.7579517   8.6419958  40.7614756
  74.3379784   8.1201267  40.7133722  34.9405622  60.8432341  23.8744545
  35.6552672  61.3397217  24.2731190  34.8251343  60.0863457  24.4489288
  40.5506754  58.6376572  71.1956882  40.5207968  58.4623241  70.2551556
  39.8629904  58.0833864  71.5646172  29.2892385  59.0743685  16.4443135
  29.9675536  58.9690256  17.1114147  29.3891549  59.9769211  16.1415768
  65.7412815   1.4299966   8.7170458  66.1971331   1.8075833   7.9648077
  64.8164082   1.4495796   8.4711808  43.3495140  43.0034113  69.3700743
  43.6339045  42.1495581  69.6960926  43.4089518  43.5819817  70.1303101
  14.2020476  35.4414558  56.5168476  14.8019195  36.1873674  56.5187120
  14.7504151  34.6936893  56.2794209  19.0344906   3.3465937  28.7234473
  19.5942414   2.6174980  28.9905238  18.1861949   2.9427168  28.5403872
  64.7722101  17.2443175   2.6728389  64.9220228  17.7662706   3.4610981
  65.5832672  17.3292208   2.1716288   5.1849931  20.2462244  56.2503242
   5.4172546  20.3266191  55.3252172   4.7559896  21.0751867  56.4624786
  74.2992020  46.7990112  36.7372203  75.1668930  46.4921284  36.4742231
  73.7814713  45.9996939  36.8335319  66.7649126   0.9669629  63.3466434
  67.3197126   1.0963745  62.5774336  66.6011477   0.0241172  63.3679485
  27.7761269  35.0411940  62.9060268  26.8460178  34.9005556  62.7289677
  27.8597283  35.9891939  63.0086803  50.2479172  66.7032194  11.7455316
  50.4102182  66.1949396  12.5402296  49.5647526  67.3256683  11.9946730
  85.6059933  53.8942671  16.7318869  85.4754066  54.8423910  16.7163157
  85.9966469  53.6923075  15.8816874  60.1507235  74.1598034  17.4263787
  59.8037863  74.6924353  16.7107201  60.4028797  73.3352232  17.0107865
  50.1958990   7.6325983  14.4171977  49.3612671   7.8822207  14.0205801
  49.9781609   6.8982452  14.9912596  52.2372961  49.2581654  24.8662066
  52.5889587  49.6362400  25.6721973  52.8372717  49.5536232  24.1813946
  75.9610415   6.9738245  42.6721478  76.5849066   7.6992947  42.6454592
  76.4006090   6.2988216  43.1892395  42.0984507  58.4800577  35.1632690
  41.9088840  59.0786171  35.8857799  41.9469309  59.0009737  34.3746519
  17.4573863  62.1386242  14.5718086  16.9764888  62.7266455  15.1542211
  18.3779097  62.3561239  14.7186530   2.9503024   1.0298287  63.9012527
   2.0748952   1.3187549  63.6435413   2.8005993   0.2245045  64.3965054
  53.0856895  59.5483160  57.5933695  54.0134573  59.7158241  57.4277735
  52.7584362  59.1806412  56.7724276  27.5156379  55.5372000  24.3842793
  27.6354909  54.6371937  24.0812016  28.0023623  55.5795574  25.2074051
  73.3625507  80.9348297  21.3307953  73.2115793  81.8790627  21.3738322
  73.2595873  80.7177925  20.4042268  67.9375172  10.0762379  34.1272688
  67.5618362   9.3174541  33.6807919  68.5920477  10.4140246  33.5159445
  53.7676811  76.9971704  34.9674153  53.1777763  77.2020435  35.6928611
  54.6127558  76.8315744  35.3853393  76.5482330  53.6041260  36.6761971
  76.0445786  53.4786510  35.8719444  76.5261269  52.7502966  37.1083117
  48.2865047  76.1642265  40.5117702  48.6419249  75.5421162  39.8770380
  48.3276987  75.7020712  41.3489962  29.3535113  71.8949842  64.2045975
  29.5074201  71.3325787  64.9636984  28.4356475  71.7454481  63.9778900
  76.0609674  15.7185388  14.7957313  76.1260796  16.6104448  14.4544172
  75.5745745  15.2400839  14.1243625  64.7578192  67.7692461  20.3707504
  64.6061087  67.0310926  20.9609580  64.5485640  67.4277210  19.5013821
  57.2436666  44.8175907  70.7202387  57.5884438  43.9534140  70.9450865
  58.0089188  45.3116608  70.4261017  34.6165466  76.0457897  23.2549596
  33.8656259  76.6198921  23.4057999  35.2629948  76.6051483  22.8243113
  58.9254475  59.7585154  38.2289934  58.2412434  60.3887415  38.4546304
  59.6194220  60.2885199  37.8369117  74.5128250  39.7973013   5.8197564
  74.9824810  40.5469418   5.4541123  73.5914564  39.9778295   5.6334084
  36.3707948  68.1303501  40.9365845  37.1393681  67.5810862  40.7821941
  36.0039473  67.8035116  41.7580700  39.6273470  72.6298761  43.9077091
  40.2368879  72.1465302  44.4654417  40.1476049  72.8787613  43.1437540
  30.5752730  58.8454676  39.5712566  31.2816477  59.4498014  39.3431211
  29.7835755  59.3830013  39.5488000  79.5459509   0.2735165   2.3238045
  79.2027521   0.7729536   3.0647564  79.3627834   0.8211605   1.5604123
  25.5264592  10.7245779  70.4372454  24.7598886  11.0960484  70.8738327
  25.2360511  10.5631626  69.5395613   9.8645312  21.2022400  66.0149288
   9.5375323  20.8864021  65.1725817   9.2678201  20.8237886  66.6606426
  36.9028854  69.4620991  35.8388209  36.0539961  69.6203613  35.4258204
  37.2665167  70.3359890  35.9813952  59.9056149  78.9854956  65.4909801
  59.0628910  79.1856956  65.0835943  59.6792889  78.6622143  66.3630438
  52.3522329  58.9699411  20.4196906  53.2097006  59.1982794  20.7786465
  51.7641973  59.6465683  20.7552767  37.0755720  53.6324263  10.6210899
  36.4444089  54.3518162  10.6024182  36.5578794  52.8541803  10.4147804
  54.2792797  76.9649267  12.2612786  54.4428492  77.8956079  12.1086013
  54.4536066  76.8410110  13.1942773  82.3494339  15.1680112  24.0229082
  82.4490166  16.0090005  24.4690609  83.1914616  15.0249612  23.5907555
  10.8970296  51.7193031  58.8265610  11.1609721  51.0091066  59.4115305
  10.3519881  52.2877264  59.3706703  63.1459332  78.9033461   2.0563123
  62.2024393  79.0608692   2.0915897  63.5042381  79.6872759   1.6400199
  42.9243374  67.3592234   5.0639242  42.6359510  68.1304932   5.5519950
  42.7144003  67.5605631   4.1519913  44.9140167  76.7933655  10.2189183
  44.0041590  76.8761158   9.9333680  45.3325033  77.6016235   9.9225831
  33.5307884  19.1236496  61.1631775  32.7551413  19.4039011  61.6490412
  33.1861639  18.7826955  60.3378201  30.8979464  80.7156467  47.7182531
  31.3756919  81.0321140  46.9515467  29.9936295  80.6271267  47.4172449
  34.4216323  82.2147179   6.9688702  35.0499845  81.5021229   7.0855296
  34.8535824  82.8183842   6.3645202  64.2867041  69.6143198   7.9810023
  64.1506195  68.7155390   8.2808483  64.7274399  69.5209122   7.1364552
  70.8671284  60.4321909  11.6186619  71.4958811  61.0910559  11.9132674
  71.0336828  60.3449488  10.6801105  72.0922089  72.1273375  26.3163376
  71.1547089  72.2661591  26.1819816  72.3169708  71.4147329  25.7180810
   0.4251107  32.2128606  20.3140068  -0.4637486  31.8605018  20.3587890
   0.9888120  31.4394236  20.2975869   4.2438713  42.8481102  66.6208315
   4.5517087  43.6749935  66.2497139   5.0406003  42.4055433  66.9133902
  40.6484985  52.6600266   0.7330337  39.7413850  52.9486799   0.6327377
  40.5796862  51.7650270   1.0654031   7.1243858   8.5671091  28.6368704
   6.8191177   8.1299436  27.8419304   7.8048092   9.1681099  28.3334684
  70.4362631  75.1536131  21.1720610  70.9045506  75.9731102  21.0127902
  70.4021072  74.7269773  20.3158808   3.1399360   9.5944136  31.4171743
   2.6433653   9.3304187  32.1917439   2.8721708   8.9749163  30.7383847
  46.7369509  34.5444751  52.8480482  47.2497463  33.7814927  53.1147528
  45.9842539  34.1770983  52.3846722   3.8065729  82.2167683  28.2187581
   3.6702314  83.0619144  27.7905369   2.9289070  81.8423653  28.2946610
  63.7872171  24.9577999   9.8139787  63.8881159  25.3184366  10.6948817
  63.9248466  25.7051754   9.2319834  39.0492368   3.6363724  56.1226845
  38.4547234   4.1168940  55.5465889  39.3347263   2.8865859  55.6006241
  10.0348675  76.1501503   8.4022003  10.4940283  76.1996937   9.2406213
  10.3257310  75.3229332   8.0183452  45.5844927   4.8685038   9.4063681
  45.3459263   5.6560439   9.8953438  46.5326071   4.9350744   9.2928690
  31.5537810  61.0301495  21.8699479  31.5879726  60.8940744  22.8168082
  30.8353019  60.4714727  21.5734768   9.5726591  77.9012060  28.9449430
   9.7741479  78.3098459  28.1031299  10.1052427  78.3823013  29.5782948
  58.6824942  44.3880415  39.5089412  58.3258677  45.0723171  38.9425349
  59.6093750  44.3419504  39.2744279  48.3812523  60.0084496   3.2314342
  49.2780304  59.9954128   3.5658702  48.1422043  60.9352779   3.2230517
  41.7697334  68.0002022  40.2930069  41.8055677  68.6797047  39.6197939
  42.6819515  67.7385283  40.4179859  64.2565727  10.6020880  51.8022060
  64.8202085  10.0218201  52.3139000  63.3749866  10.2505827  51.9266272
  69.8203182  15.6308913  54.7654486  69.9228144  16.1111701  53.9438295
  69.5192432  16.2891877  55.3917360   1.0329239  10.7906175  22.6522970
   1.5822005  10.0262117  22.4784875   1.0986637  10.9227288  23.5980558
  82.4681854  15.3405392  17.0809710  82.5552368  15.9104621  16.3168752
  82.0687294  14.5407367  16.7389500  18.2524312  68.5596991  60.4854679
  18.0233598  68.3123779  61.3813400  17.4295354  68.4938478  60.0009680
  31.7757893  49.1671944  21.3001442  31.9127297  48.4184980  21.8806052
  30.8256221  49.2802858  21.2752080  21.7453051  23.6480188  16.8058348
  22.2952056  23.5912776  16.0244107  20.8509564  23.6874509  16.4669919
  38.9012980  74.2419815  60.6744814  37.9469323  74.2110634  60.6076765
  39.1237068  73.5204792  61.2628698  41.7985725  75.7021523  42.7955151
  41.9078064  74.7731113  42.5925779  41.9581366  75.7619381  43.7374258
  80.8922958  27.7465272  58.5098553  81.1294746  26.9821620  57.9847622
  80.0345516  27.5294280  58.8750505  56.7110491   9.6222770  53.4441280
  56.3550901  10.5096483  53.3983278  57.5723314   9.7302359  53.8475704
  57.2290993  76.5761757  27.0504165  56.5582991  76.4582157  27.7229810
  56.8808842  77.2638083  26.4828444   3.2900771   0.8235479  24.0894890
   3.9530244   0.1422714  24.2017150   2.9620677   0.6942843  23.1995821
  53.6566591  58.6625147   7.4526173  53.3510685  57.9814482   6.8534541
  53.6224890  58.2536554   8.3174288  10.5391598  35.2202964  36.2839699
   9.9172717  34.4961619  36.3554978  10.3318012  35.7882738  37.0260191
  47.8138113  80.1435089   8.2780224  48.3947992  79.3944359   8.4105945
  48.1545448  80.5751896   7.4945760  36.7519116  61.7175865  57.1838284
  36.2343407  62.5053787  57.0172834  37.4421024  62.0062494  57.7809381
  56.7119265  81.8103695  11.1952925  55.9508657  81.4028549  11.6087508
  56.6185617  82.7432346  11.3883996  72.4332380  73.6159849   7.7859604
  72.5662851  73.8615704   8.7015021  73.2640839  73.2216454   7.5205892
  57.9548073  78.7119722  12.5905466  58.8373709  78.7852621  12.9537821
  57.4672079  78.2118368  13.2450271  32.1667504  25.9953976  58.9097404
  32.7333021  26.7521310  59.0600920  32.1882343  25.5122352  59.7357702
  62.8968573  50.3285313  12.6731074  63.4501553  50.4768610  11.9062388
  63.4580469  49.8519230  13.2847798  55.8840561  75.5763006  40.3194427
  56.6097260  75.4231405  39.7143173  55.1476145  75.8124018  39.7554016
  32.6100969  75.2424765  26.8297791  33.0564642  75.5310106  27.6258540
  31.9965124  74.5715046  27.1290231  76.1789989  41.2579298  62.4791002
  76.0091162  40.9463406  63.3680773  75.4430580  40.9266329  61.9644451
  45.1234865  63.2842875  21.8999863  44.7759533  63.5707712  22.7446055
  44.8223543  62.3800230  21.8113542  53.5976648  66.9799089  21.0629201
  53.1233597  66.3974285  20.4696393  54.5164061  66.7329407  20.9573221
  46.2180042  54.6977234  25.6177664  45.7588625  54.7059011  24.7779131
  45.6636906  54.1656446  26.1886048   7.8670675  75.8289671  54.9125051
   7.7348804  76.6916037  54.5192909   8.8180083  75.7281971  54.9548054
  41.0817337   4.7354159  27.3860383  40.1807737   4.7192746  27.0631671
  41.1957502   3.8900000  27.8202081   5.0842273  72.5187969  16.3107288
   5.3237396  72.7147007  15.4049218   5.2407503  71.5788937  16.4019382
  23.4486198   6.2439156  62.1732283  22.8037357   6.7730945  61.7038393
  24.2529511   6.3382560  61.6629505  20.0800657   3.8796219  31.5370131
  20.8745122   4.4073015  31.6185021  20.0396299   3.6493739  30.6087995
  23.8924503   7.8939849   9.7379971  24.6214795   8.0089343  10.3475320
  23.1934047   8.4420711  10.0946021  44.6198606  76.6323757  34.6092606
  44.8555994  75.9894848  35.2781057  45.3510714  76.6147184  33.9918041
  32.1000004  29.6912169  52.4765396  31.9807386  29.1150475  53.2315493
  31.2103152  29.9058771  52.1961641   4.4122699   2.2432229   8.7218082
   5.2320701   2.5777552   8.3581501   4.6646443   1.4462322   9.1880107
  85.5391312  14.8488104  44.3028212  85.0431728  14.0311563  44.3440247
  86.4146709  14.5839167  44.0208864  78.9151907  27.6610184  67.6866913
  79.4946957  26.9010735  67.6329613  78.2109499  27.3842216  68.2729197
   7.1728551   0.3841322  24.8331332   7.8845048   0.7632954  25.3489065
   6.7848140   1.1300547  24.3756890   7.7482462  46.3743830  44.8729181
   8.2418841  47.1672535  44.6633577   6.9745040  46.4184761  44.3111229
   3.7663341   3.6952311  35.6858134   3.1181282   4.1290581  35.1309681
   4.3692842   4.3936116  35.9406614  28.4600878  52.8148842  12.3350096
  28.9874005  53.2284212  13.0184984  28.4512258  51.8865395  12.5681043
  61.1407137  76.2288570  33.7515950  61.5684366  75.4102468  34.0029216
  60.4230356  75.9581327  33.1789875  16.2370932  27.0689416  69.1896057
  16.8793297  27.0763516  69.8993301  16.3427997  26.2103462  68.7798882
  52.7417612  59.2272282   4.9211156  53.4802198  59.6592522   4.4918570
  52.7261066  59.5994091   5.8028573  80.9430981  17.2253156  21.0309815
  80.5261517  18.0131996  21.3797331  80.2154160  16.6872334  20.7192469
  39.3979573  79.9484730   8.5671490  39.8577332  80.3983784   7.8583294
  38.6563015  80.5181885   8.7711215  55.8038330  73.3499908  29.6622348
  55.4216290  72.4753428  29.7339582  55.8556223  73.6635160  30.5651474
  12.2721684   8.0162060  42.5705433  13.1865668   8.2766318  42.4597025
  11.7705643   8.7962949  42.3337173  60.6057882  64.5067549  51.0036039
  59.7205162  64.3400669  50.6799698  60.7506752  65.4379702  50.8360434
  47.2729683  67.3132420   8.5933417  48.1444645  66.9213724   8.5371286
  46.8029976  66.7631960   9.2200869  18.5084081  74.5670271  25.3160596
  18.6536276  73.6403465  25.5068541  17.9818213  74.5673275  24.5167232
  14.2176270  29.0486240   4.5931935  15.1395845  29.0154934   4.3379888
  14.0343070  28.1764865   4.9424848  37.9990578  75.3870916  36.6937399
  38.9258289  75.5105829  36.8988729  37.6636839  76.2732601  36.5578532
  86.6858387  80.4696369  17.7043164  87.4036026  80.9437180  18.1241894
  86.7575264  79.5773363  18.0432630  57.0385361  53.3047390  56.8861151
  57.5982094  52.5544643  57.0863104  56.6657019  53.5575533  57.7306938
  84.5740318   6.9906753  28.3965063  84.8720360   7.8209978  28.7679744
  84.4423389   7.1776581  27.4670315  19.9052978  12.2028935  35.4264760
  20.1819038  12.4452984  36.3101959  19.8189878  13.0371749  34.9652195
  26.8840218  25.1776505  53.5131693  26.5909314  25.8450794  54.1335487
  27.7783370  24.9730515  53.7862396  76.4636564  33.4686780  70.1869965
  76.2194872  34.0413785  70.9140635  77.2130156  32.9715276  70.5149221
  57.7427149  69.6975803  13.0314386  56.8806267  70.0988340  12.9217601
  57.5560427  68.8030434  13.3163834  25.3857327  73.5938597   4.8358744
  25.8403635  73.0441666   5.4741359  24.4637632  73.5407209   5.0876278
  48.4827900   3.9908370  58.3567238  48.6898851   4.3764862  59.2079687
  48.9752769   4.5188892  57.7283573  71.7422628  73.5292578  36.5361285
  72.4836826  73.3439445  35.9597731  70.9844542  73.1703377  36.0744667
  69.2318821   6.2143880  15.0668693  69.1024637   6.9853061  14.5144486
  69.9948740   5.7755458  14.6907079  58.7333202  70.8269167  19.3736732
  58.3929634  70.3493404  20.1301837  58.6493444  71.7493391  19.6151531
  87.4229813  40.2451372  55.1918888  86.5085125  40.0204706  55.3636265
  87.6037598  39.8707175  54.3297005  67.5852156  79.7195530   0.9171440
  67.7370930  79.2435503   0.1006968  67.0067310  79.1488934   1.4230411
  52.3710966  24.5143342  70.7034922  52.4476194  24.0882158  71.5571928
  53.2445145  24.4391894  70.3191423  75.4019833  56.2687397  33.0105805
  74.5807552  56.6555786  33.3141780  75.5257654  56.6282749  32.1321487
  82.5584698  20.4184604  46.6635752  81.9058609  20.9507728  46.2086344
  83.2849503  21.0194802  46.8285990  15.1360178   5.5098832   5.6997257
  15.0113928   4.7460788   5.1364279  14.4882774   5.4021001   6.3961792
  25.7910442  57.7116537  46.5217257  25.2825713  56.9178629  46.3556480
  25.4141951  58.0741215  47.3234940  74.6886969  58.1143379  12.5379336
  75.1877546  58.0684471  13.3534491  73.7952948  58.3175993  12.8149700
  67.5539541  67.9781055  20.8048892  67.8485823  68.6702585  21.3967919
  66.6242790  67.8707170  21.0058975  84.1433811  26.6775084  14.1014755
  84.9985981  26.6940236  13.6718726  84.3118954  26.2789583  14.9552858
  17.2613835  72.8587198  10.4957175  17.3519206  73.6900282  10.0299251
  16.5718555  73.0190277  11.1399877  24.5237160  34.7448421  60.5546522
  24.4026160  33.9557505  60.0265455  24.1580081  35.4494405  60.0198317
  37.7681375  36.7662144  22.5149655  37.3114085  37.2842550  21.8521976
  37.1086693  36.6057968  23.1899476  43.4763050  81.8174648  19.2808473
  42.8265047  81.1407852  19.0908885  43.7572670  81.6347694  20.1774597
  43.9190006  45.6277418  54.0460253  43.8627720  44.8644972  53.4711123
  43.0092430  45.8919287  54.1830540  40.4779577  60.9541130   1.6605543
  41.0010242  61.7396164   1.8206291  41.0834551  60.3452349   1.2376229
  81.4988041  19.2039943   9.2633361  81.8347359  20.0380754   8.9351726
  81.2407494  18.7235570   8.4766853  53.3890104  52.8697729  35.1605892
  54.0397024  53.5096025  35.4494715  53.8024902  52.4250221  34.4206834
  42.9482317  69.8415184  24.6966410  42.5341320  70.5917358  25.1231766
  43.1118107  70.1356792  23.8005686  17.7191448  18.1053174   5.6441474
  17.6371872  17.3380041   6.2104905  16.8241835  18.4323573   5.5529171
  67.3929739  81.6379356  36.5533686  68.3419657  81.5166855  36.5225768
  67.0487022  80.9904003  35.9382200  18.2623684  81.4367771  28.7131667
  18.3420718  80.4887772  28.6075020  18.9025867  81.6570187  29.3898106
  67.4354124  76.6765308  21.4966512  68.1763363  76.2814713  21.9562101
  67.2616720  76.0820341  20.7668400  53.6085463  48.5451841   4.8650664
  53.4175825  47.8473330   4.2383522  53.8732195  49.2882538   4.3228215
  66.5111208  65.6617785  11.5352809  66.4237452  66.1537838  10.7188678
  66.7512465  64.7777557  11.2576497  38.7633538  37.4306035  61.1773825
  38.8220239  38.2483768  61.6713858  39.6059704  37.0009565  61.3244629
  39.5092106  58.4389353  46.4866638  39.9874282  58.8086748  47.2288465
  40.1186419  58.5061407  45.7516050  68.0847836  72.9652071   0.5164905
  68.3529568  73.6064434   1.1746173  68.8471460  72.8757906  -0.0553882
  37.3475432  39.9979877  16.7484665  38.1100774  39.4312882  16.6317427
  36.9721556  40.0780487  15.8715928  61.0559654  77.3442173  16.1316669
  61.6962051  77.8362131  16.6457379  61.5806150  76.7222929  15.6275010
  26.7709041  19.7953165  12.2899222  27.6935291  19.7951376  12.0349813
  26.3985872  19.0355420  11.8423128  12.6682830  11.3996482  13.9287043
  12.5902116  12.0873547  14.5899141  13.6106539  11.3091588  13.7873590
  67.8040075  74.1571379  25.9398198  68.4401369  74.4378901  25.2819848
  67.4254274  74.9719381  26.2699842  40.5325222  55.2479029  26.7014813
  41.1073875  54.5224237  26.9452810  41.1290884  55.9448051  26.4282203
   0.6788784  18.1879711  35.5131364   0.2640526  17.4705756  35.0340796
   1.1722060  18.6669576  34.8472309  25.8336282  52.3344612  42.0180368
  26.4658880  51.6439629  42.2172546  25.6045485  52.1917677  41.0996723
  48.4841013  53.5172606   3.6789078  48.9920235  53.5681057   4.4886357
  47.6315069  53.8875771   3.9073354  32.9681849  66.4251423  50.8325338
  33.8543153  66.7086458  51.0575438  32.9448223  65.4988575  51.0727072
  57.3132515  68.1978130  45.4078388  57.5558758  67.3669052  44.9992371
  58.0529070  68.7781525  45.2279806  60.5445671  10.1393282  33.7895155
  60.6862307  10.9625781  33.3221579  60.1202202  10.3982449  34.6075153
  72.5019312  73.7199402  42.9861546  72.6007223  74.6268320  42.6962852
  71.5836334  73.6506176  43.2472134  77.5651121  35.9929013  32.8262591
  77.7733040  35.5069613  32.0282936  76.9844580  35.4108953  33.3165002
  24.9193454  41.5752363  28.5807800  24.2928934  41.5953732  27.8573275
  25.1283121  42.4952698  28.7423396  59.6449327  51.4634418  69.4114017
  60.5585194  51.7062283  69.2609167  59.4372368  51.8327188  70.2697325
   3.2677501  80.6838036  23.1632948   3.6675322  81.4656639  23.5442233
   2.5546518  80.4632473  23.7625241  65.7300901  66.4348459   3.7901461
  66.1577225  67.0710754   4.3633595  65.0332928  66.0584688   4.3277761
  36.4609575  30.5093765  44.3539143  36.0257840  29.7494555  44.7404051
  36.0899138  30.5760670  43.4740782  77.4731350  36.8097663  15.1205230
  77.0858335  36.0023904  14.7823226  78.3877897  36.7721128  14.8408508
  34.6592116  34.8626018  65.3817129  33.8134861  35.1328206  65.0239944
  34.7329164  33.9370108  65.1491690  35.3379846  80.5289555  36.8175173
  34.3930888  80.6801319  36.8410087  35.5457997  80.4561234  35.8859921
  65.5067492  22.3033524  39.8570156  65.0628424  22.9103041  40.4492903
  65.8289146  22.8560495  39.1449976  16.9986176  57.1109200   3.9316487
  16.2567806  57.6055717   3.5834658  17.5613892  56.9572592   3.1727621
  45.9489632  11.7548871  23.5519934  45.5973387  11.6414702  24.4350171
  46.8914986  11.6200352  23.6503649  29.8810220  42.4321413  63.9149046
  30.6951571  42.0515013  63.5854626  30.1646972  43.1226683  64.5140123
  42.8156900  17.4094760  57.2547007  42.3049259  18.1900656  57.4692440
  43.5690546  17.4467564  57.8440094  82.0204067  66.6279793  21.9765353
  81.7444992  67.1026993  21.1924744  82.3576927  65.7953405  21.6461158
  69.3187141  56.6511345  36.1486506  69.9384260  56.5243721  35.4302359
  69.1084957  57.5845766  36.1217356  85.9550762  41.1499596  63.2206154
  86.2789726  42.0484734  63.2838964  85.0428581  41.2429857  62.9459476
  60.5545425  64.6406984  47.9587173  60.3026676  64.8042297  47.0498419
  59.7282600  64.4625616  48.4078979   1.6458664  82.5693450  34.5001936
   2.0597229  82.9847314  35.2567697   0.7067570  82.6706100  34.6552753
  47.9241991  72.2734785  46.4357376  47.6714373  72.1447277  47.3499393
  48.7848091  71.8605089  46.3647461  70.2499008  71.5651274  21.7237592
  71.0590124  71.6585112  22.2265935  70.4973316  71.7924309  20.8274651
  81.1811447  75.1117945  42.0098877  81.8584633  75.7875967  41.9822407
  80.5126095  75.4665565  42.5959253  68.8824129  62.3426008  10.7897556
  69.2502928  63.2233858  10.8612692  69.6441221  61.7728424  10.6829309
  45.6563568  45.2785587  68.9437580  45.8844090  44.7640419  69.7180319
  46.0706711  44.8137474  68.2167578  57.7438021  66.7128372  51.1248255
  57.9864264  67.4131727  51.7305374  57.9945946  67.0443296  50.2625895
   4.2995888  34.1596675  35.3459716   3.4255129  33.8666654  35.6035995
   4.2511442  35.1150942  35.3783321   3.3419058  26.0507631  70.2195358
   3.5047024  26.9805980  70.3780699   2.3902518  25.9841943  70.1410818
  16.3811874  19.0378809  59.0898275  15.5274117  19.4178557  58.8826656
  16.9079769  19.7799575  59.3865538  66.0790062  64.3726015   8.1701541
  65.5591965  64.3433332   8.9733803  65.5259895  63.9523363   7.5115311
  77.7107191  27.9402089  33.2284307  78.0677652  28.1905937  34.0805197
  78.2506132  28.4122252  32.5944424  61.2058640  66.9560385  65.8470869
  61.3800144  67.8883314  65.9764290  61.4864206  66.7823792  64.9485540
   4.8136160  71.0438871  46.4788818   5.0684559  71.1321688  47.3973036
   5.5052799  70.5094767  46.0887098   4.8692226  33.7036180  45.3091812
   4.1964677  33.0413985  45.4676008   5.6518036  33.3573818  45.7380390
   5.0237000  43.1709146  61.7896318   5.8493268  43.3542538  62.2379112
   4.3895781  43.0485821  62.4961376  64.0902328  78.5619164  55.1120663
  63.6000776  79.3063259  54.7630167  64.4549274  78.8811111  55.9375000
  12.3557687  19.7399354  10.8070707  13.2848608  19.9673259  10.7708192
  12.1430027  19.7498262  11.7402720  44.6669197  75.1939106  15.4247391
  43.9311266  75.6530571  15.0197434  45.1736259  74.8554659  14.6865416
  49.8185730  50.5692816  67.4457359  49.5224905  49.6595716  67.4141550
  49.0316391  51.0699511  67.6608992  61.2454796  76.7060661  11.9497597
  61.7877579  76.3354111  12.6460195  60.4127789  76.2393475  12.0205712
  31.4815164  20.3770328  29.1522980  31.3370585  20.4283214  30.0971437
  30.8884072  21.0315585  28.7834454  84.4347572  60.7829714  20.2191424
  84.1869926  60.8158445  19.2951488  83.6249638  60.9766960  20.6912971
   6.8149412  48.9104176  68.1768131   6.7220283  48.9163685  67.2241545
   7.2132540  49.7558117  68.3838987  71.7790461  11.2266481  26.6038251
  72.1711016  10.6197488  25.9759760  72.1760988  12.0731127  26.3986969
   4.4489384  31.3738108  33.2011008   5.0487238  30.8837271  32.6386881
   4.7692350  32.2751069  33.1649327   2.2817345  49.1918325  42.6949501
   2.3266105  49.9365282  43.2946587   2.5049824  49.5592403  41.8397284
  80.5906582  82.4083710  41.1012316  80.0368690  82.4075127  40.3204966
  81.4746189  82.2539616  40.7680464  49.1182899  82.1854305  49.7487831
  49.9382687  81.6985416  49.6662760  48.4935141  81.5461063  50.0910568
  86.0994339  19.8729050  60.2242708  86.2576771  20.1156521  61.1365604
  86.2393475  18.9262819  60.2005816  74.9088860  25.2624607  19.5152795
  75.1099634  25.5959535  18.6408746  74.1236067  25.7416940  19.7796655
  31.6958332  27.9244471  17.4850392  30.9811187  27.3657370  17.7904153
  31.5621543  27.9889393  16.5394163  26.0659599  30.6633997  21.3805962
  25.6779051  31.0141969  20.5789804  25.7537079  29.7595191  21.4222026
  51.3561726  68.7523508  59.7538328  51.1304951  67.9152727  60.1595402
  50.9806824  68.7014437  58.8748312  17.1561074  39.9950552  13.4031665
  17.8339410  39.9130273  12.7323127  17.5760806  40.4863834  14.1091776
  21.7451692   8.0243003  61.1844254  21.7000484   8.9367086  60.8985806
  20.8460426   7.8051692  61.4289379  55.1454353  53.1748390  69.8639965
  56.0719872  52.9499292  69.7794485  54.7561407  52.9028416  69.0329123
  63.9307261  73.2363510  36.4909434  64.1540051  74.1650677  36.5530729
  64.1882372  72.9869556  35.6034040  55.7855368  43.5149097  66.5813208
  56.4606667  42.9240370  66.2476969  56.2360001  44.3512774  66.6988134
  28.8735437  12.7730632   2.7039608  29.1924548  13.4507108   2.1078734
  28.1165433  12.3963594   2.2553222  46.7858696  30.7305002   8.4736836
  46.6952276  30.7157254   9.4264674  46.3379908  29.9378443   8.1781608
  25.3203464  39.6478438  71.3999510  24.6137929  39.0863371  71.0810041
  24.8735142  40.3489304  71.8743467  32.2947931  47.7359724  23.6027026
  32.0926976  48.4159231  24.2453980  32.3223782  46.9258308  24.1117597
  48.7460423  77.6220036   8.3977544  49.6817398  77.5302839   8.5774642
  48.3597946  76.8063927   8.7168580  31.7723688  56.6183878  -0.0051708
  32.1752250  56.6376890   0.8629112  32.4113893  57.0459403  -0.5753346
  20.7149577  13.2794547  37.8834295  20.9007215  14.1727769  38.1727386
  19.8711133  13.0688298  38.2831764  46.5051651  39.9718165  20.5362201
  46.8080282  39.1127658  20.2420425  46.8751764  40.0686598  21.4136839
  61.6695404  74.9964762  69.0164661  62.6215649  75.0443840  68.9293623
  61.3746738  75.9024143  68.9239550  18.9774060  19.4510567  24.1762638
  18.5114741  18.6667585  23.8864088  18.9423025  19.4110167  25.1319814
  12.3089790  74.2027807  44.5036411  11.5046537  74.5625210  44.1296339
  12.6118350  74.8760605  45.1129103   8.8820767  70.5813980  55.8340836
   8.4786946  71.4341784  55.6719542   9.3141067  70.3600740  55.0091028
  14.9970210  10.2309453   8.6054343  15.7731783  10.4660380   8.0969626
  14.8352933   9.3135512   8.3852857   9.1476196  57.8132582  49.9284601
   9.6245706  57.1708870  49.4029951   8.2680595  57.8258276  49.5510340
  31.9745898  17.2606850  45.9373522  31.0902524  17.5788307  45.7558012
  31.9741940  17.0748055  46.8763351   5.8430976  61.2106943  38.2435179
   5.1579511  61.2623692  37.5770807   5.8593220  62.0824766  38.6384416
  44.6523857  36.9237828   5.6778675  44.6413660  37.8482103   5.4297817
  45.4810238  36.5927005   5.3314829  71.1682177  12.3847854  62.7248526
  71.6630030  12.6860416  63.4868670  70.5267572  11.7712367  63.0830622
  26.0081005  39.8292661   3.4760800  26.1583424  40.7706356   3.5625842
  25.1264119  39.7600913   3.1099245  17.6959085  30.0757217  16.9959486
  16.9695044  29.7147322  16.4877594  17.2967041  30.7627463  17.5296772
  49.4961119  59.6634388  66.4819145  49.5067883  59.2524815  67.3463392
  48.6872244  59.3497229  66.0775423  27.2995138  28.2202554  24.7325635
  26.4000988  28.4590483  24.5083737  27.8413153  28.7638330  24.1605449
  44.2013931  37.0638180  13.6157835  44.7828627  37.7728009  13.3410645
  44.3684483  36.9667053  14.5532763  16.6198659   3.0996442  47.1217299
  16.2503278   2.5890273  46.4013529  16.7671192   3.9686754  46.7484570
  71.5135717  71.9396734  62.2460604  71.0981750  71.7706490  63.0916977
  70.8165550  72.3141909  61.7074203  75.1527977  81.2884712  15.1362371
  75.6211805  80.4537106  15.1415658  75.6960440  81.8644905  14.5983636
  10.6401515  31.6809988  34.3472958  10.9422719  31.9390154  35.2181458
  11.3857090  31.8567872  33.7732983  23.6292887  17.2322023  60.5276012
  23.2045770  17.9724216  60.9611082  24.5595860  17.3405409  60.7251883
  50.0190020  41.2605143  57.3929024  50.5507565  41.4318037  56.6156483
  49.1244745  41.1883211  57.0599699  33.8580537  37.0177412  21.1092401
  33.6301041  36.8968654  22.0310092  34.6278667  37.5863862  21.1254621
  13.0019414   5.0254011  35.0681353  13.5773551   5.5145526  34.4800353
  13.5218549   4.8994336  35.8618951   2.9316854  65.6389141  44.3236160
   2.3227781  64.9834299  43.9833164   3.6149082  65.1284075  44.7581530
  86.7438984   5.1188332  65.4944086  86.9302177   4.3021441  65.9575891
  87.3870754   5.7400191  65.8360100  57.3373795  52.7292156  41.6211557
  56.4214563  52.5648642  41.3968754  57.3114586  53.5058260  42.1801138
  16.9465232   7.0668471  13.8850296  17.1857584   6.3748842  14.5016217
  17.0241654   7.8757524  14.3908715  11.0608721   7.6556760  11.9090354
  11.2214673   7.6692235  10.9655011  10.3579986   7.0160133  12.0231986
  53.4831285  12.1255720  33.2783389  54.3829346  12.2921741  32.9975820
  53.0634403  12.9856694  33.2602310  20.6673932  31.6364980  19.6332324
  19.9488044  32.2530866  19.4929457  20.7024240  31.1220241  18.8268065
  34.9766564  14.0417743  31.3965869  35.0590587  14.6061063  32.1653318
  35.5998135  14.4031680  30.7662654   7.5023484  59.7196722  27.4853039
   8.0409908  60.4174185  27.8584647   6.8543595  60.1776457  26.9499493
  56.8086004  63.8107014  67.5230742  57.7612114  63.8928080  67.4781370
  56.4847422  64.7009897  67.3861885  33.7696791  42.9413748  14.0868556
  33.0989313  43.5631895  14.3691301  34.5670485  43.2317734  14.5296919
  17.8200650  44.1525984  28.9719105  17.8329360  44.3869829  29.8998809
  18.2239938  43.2854557  28.9382720  10.8696246   0.3996082  53.7330627
  11.4348328   1.0694717  54.1178417  11.1335862   0.3627214  52.8137207
   5.0923938  68.1115770  51.4892197   5.8611870  68.6370182  51.7108059
   4.3563753  68.7182426  51.5696335  64.1649008  63.9389038  68.4370947
  64.2435312  64.6923542  67.8519726  63.2632256  63.6390924  68.3216810
  75.9978724  16.8612719  63.1573772  76.7075920  16.2235081  63.2334328
  75.2174473  16.3324773  62.9914045  36.9812346  10.0986946  31.0193992
  37.5622487   9.7542000  31.6976166  37.1618438   9.5567322  30.2513576
  65.9997654  61.9171000  69.3100882  65.4639864  61.2655067  68.8577700
  65.9083080  62.7104568  68.7824011  85.8884239  35.3993201   9.5261562
  85.6456280  34.6990514  10.1318848  85.7305431  36.2058806  10.0168359
  75.5894518  28.1543899   8.0251843  76.2000036  28.8584256   7.8065634
  75.3634167  28.3095574   8.9422786  13.1023943  76.0978746  19.0229249
  13.4756219  75.6393719  18.2701242  12.1652389  76.1453438  18.8339281
  11.7195928  67.7896404  49.6183109  11.9865978  67.5406361  48.7334728
  12.4074972  67.4385595  50.1837873  53.0392075  50.5475855  40.1366138
  53.3891487  50.1719236  39.3287444  52.0938587  50.5881596  39.9920392
   5.0629783  56.1296606  22.8261089   5.3278363  55.2296925  23.0162191
   5.1986516  56.5982962  23.6496425   3.3602732  48.4741449  13.2616043
   2.6974964  48.3432436  12.5835013   3.2136652  49.3682289  13.5703969
  25.9610438  57.0207310   8.0930912  25.3323436  57.0396757   7.3715580
  26.5577030  56.3055944   7.8721625  39.6468902  28.3333063  14.4697154
  40.5603170  28.5403061  14.2721403  39.6678925  27.4273610  14.7780204
  66.8776703  71.1380672  46.6844940  67.5095892  70.4741573  46.9604206
  66.1191559  70.6369162  46.3849354  69.1620493  73.9170265  69.4610929
  68.5770512  73.2154655  69.1750383  69.4992065  73.6182976  70.3056765
  28.4470892  41.3900232  28.7184572  27.5649881  41.5509939  28.3834720
  28.3843112  41.5727377  29.6559572  23.4356976  56.6349936   1.2138735
  23.7763691  56.0632372   0.5259303  22.5355220  56.8209696   0.9467921
  36.4401555  75.2885103  14.3459976  37.1978521  74.7179174  14.4746614
  36.5017796  75.5660295  13.4319866  11.1401844  26.6009521  67.0332909
  10.9912455  25.8005738  66.5298605  11.6500354  26.3156176  67.7914906
  73.3781004  48.7038183  59.3520260  73.8647842  49.2414045  59.9768209
  72.6920223  48.2898855  59.8756599  65.9617329  28.6484790  17.6223099
  65.5873251  28.0663204  16.9611430  65.9522104  29.5135736  17.2127366
  47.1919537  27.2925138  12.7468574  47.2380304  28.1579328  13.1532550
  47.8111315  27.3367929  12.0182359  50.2484083  77.9224920  60.1278496
  50.7980394  78.0354691  59.3523598  49.4603872  78.4320688  59.9392080
  54.7389174  33.9271355   4.0736422  54.5865679  32.9993129   3.8942924
  54.7347975  33.9902830   5.0287479  16.6608822  78.7203264   7.5677574
  16.9061041  78.8868904   6.6576177  15.8140838  78.2777357   7.5105011
  43.1116486  36.8434215   8.0788589  43.6817265  37.0082283   7.3278028
  43.5196877  37.3238206   8.7992418  35.0537658   7.6863611  12.0519972
  34.6582413   7.5977427  11.1848521  35.2882671   8.6122650  12.1147978
  33.5273838   5.9023285   7.0047486  33.4519958   5.1942903   7.6444596
  32.6295662   6.0558617   6.7104954  34.8298764  27.6518989   4.7884676
  33.9134073  27.4558067   4.5938814  34.7959614  28.4364843   5.3357410
  53.8283110  46.8360281   2.7811813  53.1149721  47.3096085   2.3532730
  53.8071346  45.9639645   2.3871177  58.2500029  61.8027735  60.2791834
  58.7271023  60.9837389  60.4125786  57.3655701  61.6190624  60.5958223
  14.8315942  38.8771081  13.1208313  15.7207668  39.1323471  12.8749502
  14.3034375  39.6576858  12.9535651   5.5340743  49.8267412  15.9438932
   6.1199337  49.4628334  16.6076517   4.6545920  49.6449327  16.2750864
  31.6502738  27.4701405  25.8579397  32.4231005  27.8375936  26.2868333
  31.6084599  27.9194641  25.0137877  42.7476311  66.1518764  24.1035151
  42.4676132  66.4477301  23.2373214  42.2030687  65.3852701  24.2823982
  74.8525381  12.6085877  57.3202801  75.5781889  13.1845880  57.0796824
  74.2781067  13.1573021  57.8542948  48.1801653  49.3419361   9.8210716
  47.2277069  49.3616199   9.9141985  48.5091162  49.6889257  10.6502998
  33.3467007  19.9208021  24.7044349  33.8210034  19.4280720  25.3741264
  33.4907389  20.8385110  24.9352956  53.2589769  21.4752245   7.6195717
  54.1320562  21.4156985   7.2317255  52.8209019  20.6685257   7.3483485
  34.6094799  65.6431580   9.8156452  34.9337268  66.2164593  10.5102086
  33.7200308  65.9530020   9.6450406  20.4233670  55.3563023   9.6902645
  20.7976103  55.7881546  10.4581678  20.6706953  55.9176731   8.9554697
  34.2891932   3.5052502  44.2116308  33.8866854   4.3269959  43.9306450
  33.8240290   2.8296891  43.7182045  50.2666092  51.1970043  16.7676210
  50.7854366  51.7851210  16.2188339  49.3613958  51.3563585  16.5003598
  18.0047286  41.3592529  29.7675538  17.2003925  40.8419275  29.7269154
  18.0763161  41.6189575  30.6860638  36.7434645  29.6141648  18.7942064
  37.1877027  29.6371889  17.9466486  36.2325525  28.8049507  18.7749314
  32.8383160   0.6747370  70.1343107  33.7311077   0.4707550  70.4127836
  32.3895097  -0.1707166  70.1306152   4.8390567  10.1212013  67.2196770
   4.9260762  10.3267884  66.2888765   5.6821328  10.3686392  67.5994539
   3.7802389   5.3872401  58.0436087   4.5301092   4.9411279  57.6500225
   3.6084118   4.9009168  58.8499594  84.2025471  35.0940275  27.1348715
  84.6475315  34.7484064  27.9086733  84.3796539  36.0344458  27.1567917
  21.2822962  48.5560369   8.4736234  20.8628464  48.3150053   7.6476711
  20.7827878  49.3110609   8.7845308  68.6893320  19.8631585   6.7914546
  69.1376305  19.2553806   6.2033504  69.3686104  20.4819655   7.0595765
  49.3027925   6.4484715  33.2910490  50.2576399   6.4436883  33.2241249
  49.1213274   6.0765773  34.1541815  67.7506828  66.2022161  65.4852867
  68.0395842  67.0311165  65.1035929  67.7643299  65.5843067  64.7543716
  36.6162300  47.0370436  12.3546493  37.4783516  47.0724392  12.7690494
  36.5471888  46.1423635  12.0214689  78.9653254  73.5449457  71.5972233
  79.7481251  73.0011082  71.5095139  78.7406158  73.7879181  70.6990528
  48.2213497  58.0082512  23.2323432  48.5115385  57.8690863  24.1338181
  48.5345888  57.2379398  22.7582788  12.3185968  29.2201066  67.8032684
  13.2608473  29.1705108  67.9643202  12.0867443  28.3535123  67.4693632
  14.2572606  24.2852998  50.2745581  13.5710919  23.6418462  50.0974369
  13.8205755  24.9665093  50.7859230  46.2287378  75.3792477   5.7704806
  46.8798637  74.6967649   5.6077421  45.3870344  74.9288511   5.7003790
  11.6586864   9.3384475  70.0452471  12.2193909   9.8707199  70.6096315
  10.8097160   9.3332708  70.4873466  19.7706795   7.7047074  57.1838522
  20.6454539   8.0785418  57.0777893  19.7401321   6.9843078  56.5543079
  32.2353029   9.0628189  32.0150018  32.7456665   9.5223457  31.3482213
  32.1570706   9.6917063  32.7323675  36.0261393  72.9854774  19.3216991
  36.2754536  72.1657610  18.8949251  36.1760068  73.6571312  18.6563778
  25.4894733  37.5570607  11.6328180  24.9437070  37.2395015  12.3522103
  25.6300569  38.4832048  11.8296099  27.2995615  35.7419682   5.0621766
  26.6359901  36.4190960   4.9302542  27.2012949  35.1602387   4.3084097
  67.1082592  18.3297598  70.0209045  67.8595638  18.8643718  69.7640753
  66.9313622  17.7820897  69.2560530  46.3751602  45.0283003   6.9229299
  45.9782600  45.5189943   7.6425970  47.2290993  44.7574043   7.2600269
  48.1900072  17.0436084   3.9258772  48.4727669  16.8600607   4.8217514
  48.0882835  17.9949486   3.8969883  57.0018339  25.3495121   3.0121264
  56.7786407  24.4830513   2.6720330  56.8072891  25.2969289   3.9478725
  37.7859306  67.9620886  66.8813229  37.9193687  68.6790562  67.5013113
  38.5506678  67.9968977  66.3066959  29.1488314  62.6941061  66.7586803
  29.6654773  61.9773436  66.3904953  28.3750200  62.2672749  67.1264553
  14.2815781  16.7813897  61.5368223  13.4559774  16.4936745  61.1471653
  14.1168296  17.6846862  61.8072796  31.1958265  74.9290133  69.7430372
  31.9392943  75.4269552  69.4031191  30.9169245  74.3831587  69.0078592
  36.5537381  44.3811798   8.2466352  35.9877110  44.2908764   7.4800265
  36.8321800  45.2968740   8.2322401  53.5626030  53.5389566  58.4073496
  53.7360334  53.8524818  57.5197363  54.4277000  53.4746742  58.8119650
  77.4925709  38.5025167   9.3368387  77.0972776  39.3493104   9.5440030
  78.3514261  38.5295224   9.7585833  37.7700162  80.5634212  54.4612551
  38.2397890  81.3656044  54.2331123  36.8883491  80.6947517  54.1124678
  45.0927496  17.2103739  14.4414580  44.2070675  17.4242163  14.1480863
  45.0787830  16.2625253  14.5741951   3.0453888  15.3745723  37.7773499
   3.4788573  16.1755836  38.0718279   3.0448139  15.4397488  36.8223715
  41.5491438  62.6351309  28.7143445  41.1849546  61.7624426  28.8627124
  41.1129189  63.1898308  29.3610644  76.0701766  60.3669227   0.0949030
  75.6063285  61.1908985   0.2437048  76.9147363  60.6301452  -0.2706928
  45.2050781  65.6286240  20.3429198  45.1723051  64.8174095  20.8499622
  44.4278002  65.5941343  19.7853518  69.9116182   3.2484502  58.0805397
  69.3801928   4.0391472  57.9877090  70.1167870   3.2060492  59.0145302
  56.4802074  53.3599615  21.9262338  55.7921743  53.7312841  21.3740039
  56.6317177  54.0237999  22.5989842  85.6468105  61.1138248  11.3783574
  85.9726620  61.9445801  11.0320938  85.4697990  60.5834627  10.6014323
  64.8744631  52.6063728  22.8640008  63.9714956  52.3151398  22.9907393
  65.3675556  52.1659946  23.5562134  10.9933209   8.9517325  14.2944014
  10.9170437   8.5772699  13.4167957  11.5055466   9.7507495  14.1701865
  57.4867010  27.6242471   1.6963886  57.2948170  26.7415190   2.0129353
  57.2760344  27.5950861   0.7631141  10.7708693  46.8211603   9.9187088
  11.2112367  46.5602207   9.1098720   9.8818362  46.4779758   9.8288393
  56.0493708   9.0965444  66.6770458  55.6908321   8.3657753  67.1806955
  56.9902182   9.0685302  66.8509674  43.2129908  40.8002949  12.8946352
  42.4004841  40.3095341  12.7712846  42.9290342  41.6583729  13.2097590
  19.1843164  67.4641943  17.6511741  19.0492845  67.7695799  18.5482466
  18.5566223  66.7494631  17.5444388  29.9497962  38.6361194   3.9211783
  29.5503449  38.4492469   4.7707361  30.8324528  38.9398074   4.1331342
  71.8347216  62.7356768  53.8531733  71.1922789  62.4433661  53.2066011
  72.4167109  63.3188009  53.3658504  58.1924057  48.4905672  23.2043266
  57.4991274  49.0842581  22.9160047  57.9737377  47.6518297  22.7982044
  35.6637192  42.3340082  30.6557107  35.6224918  43.1912613  31.0795593
  35.9936118  41.7463493  31.3354588  87.0249462   7.5467670   0.7699743
  87.1770954   8.2852745   0.1803212  87.2245789   7.8904635   1.6407509
  73.2484007  25.0456691  10.2604616  73.3018112  25.2244115   9.3216163
  72.3165560  24.9001694  10.4239428  76.4254904  18.2780397   1.0583694
  77.2493649  18.3428323   0.5753946  76.2675095  19.1647220   1.3825119
  15.3735638  78.6142540  22.0731926  14.8883033  77.8004026  21.9375539
  14.7082067  79.3007040  22.0250106  24.9403739  19.8392534   5.4921621
  24.9722385  20.7822442   5.3309673  24.1644597  19.7158158   6.0389268
  45.5534220  18.2459366   9.8583621  45.9075689  17.9444897   9.0217352
  45.1850653  17.4590242  10.2600014  32.7293444  70.7291317  37.7409315
  32.1163368  71.4502382  37.5979161  32.2015142  70.0437641  38.1506920
   5.2992028  25.4982352  65.9526968   4.4855985  25.9075332  65.6581545
   5.8759135  25.5353737  65.1896381  82.0356178  66.4068174   3.0143741
  82.7499104  66.6770983   3.5914022  82.4645710  65.9055567   2.3208562
  74.6472692  79.6924448  42.5125980  74.5410824  78.8519335  42.9581308
  75.4715443  80.0410461  42.8521299   2.9642391  15.0105953  66.6698503
   2.2212921  14.4084704  66.6285419   2.5937274  15.8252120  67.0094872
   2.8594127   2.5700793  56.8244076   3.6681461   2.8268468  57.2674131
   2.9709941   2.8777182  55.9248877  32.9503441   0.3851137  55.0476360
  33.2384133   1.1385194  55.5630255  32.4237895  -0.1337989  55.6556654
  47.4113703  77.8792810  14.0326571  47.6826239  78.7837839  13.8760400
  47.9822731  77.3570299  13.4691334  70.2332592  80.3309345   4.7573522
  69.4592333  80.8670330   4.9297243  70.8855534  80.6435013   5.3842854
  17.6887691  43.4386158  23.7284827  17.1421444  43.5904074  22.9575133
  17.7116704  42.4862814  23.8221097  34.2628908  35.6093168  33.0445266
  33.4978890  36.0191846  32.6407790  33.9538503  35.3182554  33.9024377
  45.4127359  21.9599915  26.2722230  45.1300764  21.1064219  25.9439659
  44.6949387  22.2497463  26.8352842  83.9645195  57.6148319   0.2760671
  84.5608330  58.3108807   0.5520526  84.5397186  56.8912697   0.0274050
  34.1227794  41.8562508  25.7945156  33.3680439  42.3589373  25.4880595
  33.8032269  41.3921118  26.5682673  43.0922794  23.6268806  17.3999596
  42.6410627  23.0776572  18.0410421  43.4746218  23.0061603  16.7796731
  22.1368980  40.4737282   4.5762235  23.0658698  40.2801466   4.7018075
  22.0354509  40.5560398   3.6279809  17.6688135   9.3846411   7.0325363
  17.5023353   9.8113316   6.1920297  17.5816691   8.4494841   6.8478215
  16.0930037  65.9730482  15.4563189  16.1792803  66.9222927  15.3684366
  16.0691869  65.6502962  14.5554900   5.5916113  69.8167849  29.3143082
   5.4331255  70.6025791  29.8374200   6.1401922  70.1178598  28.5899854
  56.0970592  66.0586739  21.2047291  56.4602137  65.9640408  22.0852923
  56.4475870  65.3117180  20.7195330  51.7695999  71.6611576  57.3586893
  51.2020493  71.9867373  58.0573416  51.1663532  71.3041830  56.7068481
  31.3762140  18.5171521  18.3865738  31.6217017  19.3391120  18.8112509
  32.1885514  18.1991899  17.9925680  47.0489216   6.2640852  31.9098783
  47.7995825   6.5620786  32.4236321  46.3625956   6.1060441  32.5581098
  74.4850254  70.8001614  19.4220626  74.8316097  71.0855055  20.2674556
  73.6345005  71.2338591  19.3531787   2.0843394  76.3147449  52.3370266
   1.1745286  76.4654779  52.0805979   2.0520079  75.5304050  52.8847456
  83.1090069  43.8304520  26.6950583  83.9746475  43.5725307  27.0118690
  83.2878304  44.4404888  25.9794402  80.0383186   8.0794370  41.0023594
  79.8359489   7.4487758  40.3113127  80.7446671   8.6139005  40.6395102
  25.2312040  54.8449326   3.2982048  25.9649110  54.8447180   3.9129454
  25.5311251  55.3856182   2.5674942  10.0786269  67.7624702  40.6167507
  10.1390219  67.7323723  41.5715694  10.9882736  67.7882290  40.3199148
  55.8808851  65.3790140  18.1018507  55.3487349  64.7628403  18.6052167
  55.8998489  66.1721754  18.6373544  56.6351271  53.7767029   6.2711650
  56.0765028  53.0069160   6.3788694  57.1962547  53.5630226   5.5257100
   3.7186396  50.0715494  69.8605680   3.2252771  50.3926945  70.6153488
   3.4522057  49.1564512  69.7720289  45.8425617  51.4607048  22.7603221
  45.1829529  51.0544300  22.1981001  45.9851074  50.8241606  23.4608412
  54.4226742  71.1537790  57.1145773  54.7020149  71.7666912  56.4344692
  53.4843731  71.3158417  57.2123289  36.0679245  29.9370933   2.9433113
  36.9449115  29.6457219   2.6938576  36.0305977  29.8010349   3.8900566
  16.5020204  34.8295569  29.6219778  17.2536421  35.0207043  29.0609431
  16.7945528  34.1058373  30.1759505  64.3900585  42.9376411  10.7350290
  63.7052679  42.7722120  11.3830483  65.2037477  42.7029276  11.1811829
  45.4190636  35.2316451  11.0536528  44.6972370  35.0337148  10.4569757
  45.0347090  35.1582122  11.9272137  21.8233705  20.8932281  30.7934189
  21.7974782  20.2010679  30.1327562  21.3368058  21.6178036  30.4003835
  31.3177085  44.6838999  14.8242927  30.6892538  44.0600920  14.4607759
  31.4124465  45.3517437  14.1451442  63.0155039  25.0735116  24.2248869
  63.7760448  24.6122384  24.5784950  62.4746180  24.3838167  23.8401818
  57.6292562  40.9485483   6.8900192  57.8439951  41.7301512   7.3991513
  57.6058388  40.2415848   7.5349092  10.0150800   4.3571967  71.1908245
   9.8273677   4.0539575  70.3025436   9.3809927   5.0577503  71.3437653
  65.4215336  20.0042200  53.0050850  65.9436512  20.2924562  52.2563887
  65.9194708  19.2770481  53.3785963  30.9247017  54.3620062   2.2713019
  30.4493690  55.0981712   2.6564685  31.8013501  54.7061539   2.1001819
  71.3880014  66.9050360  71.3023520  70.6381130  67.0997953  71.8644667
  71.1492014  66.0916996  70.8577299  45.3759623  32.4372435  19.3792272
  45.8045197  31.5875435  19.4820976  44.5050097  32.3134589  19.7565186
  32.3094487   5.9502101  65.4068184  32.6642585   5.1416707  65.0372124
  32.0560026   5.7145780  66.2992716  22.5914383  16.1048853  32.9815292
  22.5853419  17.0358098  33.2041812  22.6515889  16.0874510  32.0263815
  22.6986670  61.6290665  53.0801201  22.5789595  60.9111691  52.4584103
  23.6480474  61.7149544  53.1668997  69.0243053  59.2888832  51.9538546
  68.1693220  59.4288683  51.5468645  69.0382719  59.8935127  52.6957846
  53.8201427  75.4345274  53.9294481  52.9817533  75.7475376  54.2690897
  54.4486809  76.1104441  54.1830397  85.9093285  78.0107689  66.6634083
  85.4034901  78.8232374  66.6793633  86.1120510  77.8367567  67.5825691
  27.1835017  29.7684050  46.3466024  27.3063636  30.0060034  45.4275370
  27.3313117  28.8230133  46.3714075  76.7890263  19.6141911  10.0501299
  76.9125366  19.6987295   9.1047043  77.6131678  19.9214613  10.4277658
  81.0081577  41.9589043  67.3453093  81.0719299  42.7772379  67.8377485
  80.0707722  41.8469810  67.1871376  59.5330477  77.0639277  61.8148232
  59.2574167  76.4094830  61.1729813  59.3881559  76.6438103  62.6626062
  55.6633091  59.1187572  49.3051243  55.3253031  58.3410263  48.8611460
  55.2828693  59.0780067  50.1825285  34.9426866  57.9650784  70.7625961
  34.9656940  57.2734261  71.4238977  34.9961996  57.5000334  69.9276686
  51.6360235  66.7380428   1.0392731  51.0837936  67.0796680   1.7425257
  51.2714481  65.8742142   0.8466171  79.1446877  73.5165882   4.2087567
  78.9650202  74.0861034   4.9568227  78.9405489  74.0544796   3.4437510
  49.4215584  42.6665115  11.1743188  49.0869761  43.5550976  11.0530531
  49.8355055  42.6821327  12.0372427  26.6531396  15.2418518   1.5948528
  27.3391485  15.9091878   1.5779582  27.1255422  14.4151735   1.6932029
  28.0157161  55.4677391  33.8768983  27.2793865  54.8619270  33.7929606
  27.7346039  56.2529325  33.4071398  26.7784119  41.3964176  10.2496254
  26.8279791  40.9856796  11.1127996  26.5604615  42.3105526  10.4315269
  57.9464912  43.8174200  44.7966814  58.8260841  43.4662294  44.6580696
  57.3842144  43.2834721  44.2354488  68.0500555  11.4249837  22.3669696
  68.3031130  11.5968442  23.2739758  67.8648710  10.4861546  22.3437619
  86.5192795  79.4677734  36.9658709  86.1360168  80.3035927  37.2318482
  86.2413502  78.8506460  37.6427341  70.7327366  36.6051102  31.9551730
  70.0859785  36.1792970  32.5178647  71.3524675  35.9099483  31.7339945
  84.4059467  75.1214552  63.5785007  84.3059921  74.1734219  63.4920597
  84.6422863  75.4184866  62.6997852  87.6517773  80.3609562   1.5890911
  86.7351437  80.5862808   1.7479753  88.1049633  80.6217194   2.3908719
  63.8361406  18.2514715   6.1497670  64.5393085  18.2864475   6.7982769
  63.4776115  19.1388988   6.1371350  75.6740808  15.7690871  23.0820203
  75.6100368  14.9266446  23.5319328  75.8521032  16.4001298  23.7793899
  18.7157774  58.8973665  64.4852257  18.3711576  58.2105160  63.9145184
  17.9718184  59.4810820  64.6336699  26.7729354  68.8795710  27.0247459
  26.3564944  69.5233488  26.4517212  27.5807166  69.3036985  27.3142862
  34.3516278  47.8362226  16.5512073  33.5621166  47.2950363  16.5556800
  34.9704695  47.3525286  16.0041165  11.1635256   5.9510732  67.1311808
  11.4858401   6.6441852  66.5550375  11.5547967   6.1461651  67.9826927
  64.9201250  76.2904835  42.7456808  64.3372393  76.9727945  42.4126196
  64.6779442  76.1973333  43.6670399  85.9657955  72.7780676  26.7779922
  85.7302380  72.1027231  27.4141169  85.5420876  72.5003481  25.9658504
  52.0849085  53.8104248  41.5306664  52.3894358  54.7054243  41.3807535
  52.7607441  53.4167433  42.0824718  85.5253601  68.8283634  52.4558783
  86.3656807  68.4223270  52.6685762  85.4135323  69.5091391  53.1194067
  82.1929932  77.1149540  51.8309307  83.1174564  77.3221016  51.9676638
  81.8135452  77.9255819  51.4916229   6.3583934  49.2576456   5.1114196
   5.8095539  48.4904766   5.2740866   5.8282650  49.9982023   5.4059875
  47.3161650  48.2955694  15.4243076  47.6743746  48.4157276  14.5448303
  47.0911169  47.3661518  15.4663444  30.3062654  62.3066282  17.6714277
  29.9777675  61.8351507  16.9059038  30.1060414  61.7323112  18.4105480
  68.8642216  56.2622499  18.0982554  68.1475163  56.1279297  18.7183583
  69.0018177  57.2094917  18.0927491   0.0867538  12.9390430  49.8220587
  -0.6644459  13.3275437  50.2703762   0.8383636  13.1745720  50.3659725
  62.1742296  45.7596064  28.3377457  61.5056419  46.4361763  28.4448385
  62.4463081  45.8343935  27.4230790  16.0248494   9.8887485  61.6635466
  16.3599479   8.9936155  61.6118050  16.3429666  10.3101099  60.8651161
  25.8296824  23.4719419  64.3092203  25.1301575  23.6844993  64.9270487
  25.3876257  23.3966064  63.4635544  12.0523858   6.5504116  69.4904900
  11.6870260   7.4248022  69.6253395  12.9707754   6.6323149  69.7475624
  36.6949534   3.1402895  68.4453058  36.2513685   3.4720176  69.2259598
  37.2565007   2.4363247  68.7698507  77.4939823  79.6730232  59.4671202
  76.6985846  80.1593590  59.2502165  77.2379875  79.1081238  60.1962233
  58.6065674  50.2073765  41.2494612  58.1400251  50.1381922  40.4165220
  58.2806587  51.0182858  41.6398954  21.7352200  36.6730618  62.7751541
  22.6160264  36.3023067  62.7208281  21.8030047  37.3544574  63.4439898
   6.1386096  18.6015832  65.9758997   5.5211198  17.9793870  65.5914354
   5.8886564  18.6478913  66.8987274  22.7884984  21.0085583  60.4347658
  22.1952534  20.2574468  60.4236412  23.6316752  20.6438470  60.7036018
  60.9018183  53.8504362  22.4359012  60.1880360  53.9635038  21.8082380
  61.6715145  53.6756468  21.8943715  17.3576546  80.9084415   5.7399333
  17.9858756  80.7669640   6.4481384  16.8408179  81.6619205   6.0251975
  67.4893570   2.2593248  28.0738664  68.2150269   1.7877643  28.4828496
  67.7216673   2.2983454  27.1461034   9.1339064  13.4363508  69.2202425
   9.1601127  14.3347132  69.5496178   9.4314301  12.9023981  69.9568558
  44.9853516  30.9159851   0.7019689  44.3920374  30.6396079   0.0035244
  44.5506620  31.6695166   1.1013007  68.6452866  79.2999411  68.3762360
  67.9697132  79.6067905  67.7715254  68.7817240  80.0338840  68.9753628
  19.7284496   3.1869447  38.9521956  20.0983882   3.3606130  38.0866241
  18.8255179   3.4992552  38.8938189  52.2250891  30.6910729  10.2609825
  51.4573050  31.1710954   9.9506319  51.8658161  29.9921632  10.8075011
  12.4272358  14.4060123   2.5350565  12.6633906  13.5561931   2.9069045
  12.8889227  14.4374490   1.6971491   4.7452044  69.4761086   7.4548829
   4.7310200  70.3801727   7.1407235   5.6258589  69.3603039   7.8116310
  77.5379705  71.0857916  61.4238071  77.0990181  70.2385139  61.4991522
  77.0541096  71.6598511  62.0175791  25.2183318  70.6580544  16.8953264
  24.8127151  71.4309597  17.2881639  25.9678149  71.0018349  16.4091980
  58.8276291  30.2548456   4.7211373  58.1429386  29.6542954   4.4265616
  59.2618704  30.5364752   3.9159358   7.0085579  18.2028520  62.5448799
   6.9720745  19.0613174  62.9667044   7.0994526  17.5837350  63.2692146
   5.0845093  74.9691057  66.9533587   4.6152946  74.2248487  67.3303843
   5.6523281  75.2770138  67.6597643  46.1743784  44.6036386  18.2386613
  45.5195332  43.9691305  18.5298836  47.0028400  44.2663431  18.5794199
  85.4043293  70.3311729  60.4913187  84.7945309  70.5231619  61.2037182
  84.8445892  70.1970339  59.7265148  82.2978878  72.0454979  68.5404825
  82.6333523  71.9506168  67.6490259  81.4383984  71.6247225  68.5190105
  66.4313698  57.6825047  13.1023240  67.2665930  57.2259665  13.2033551
  66.5364504  58.4887123  13.6075127  38.7308669   3.4078634  26.3703942
  38.2387543   3.6890706  27.1417451  38.9068437   2.4795794  26.5238643
  63.7902641   6.7299378  27.4710226  63.2926702   5.9137911  27.5213695
  63.1914186   7.3503172  27.0554018   2.4284185  79.7019291   6.6457587
   2.9220945  80.0925541   5.9246951   2.6670256  80.2255249   7.4107111
  43.4354639  57.3366356  44.1076517  43.2624912  56.7304659  43.3873224
  43.8609743  58.0868244  43.6924458  60.3538609  36.4332795  14.5731306
  60.9569216  36.0158086  15.1881623  59.9676609  35.7058811  14.0853071
  37.5174665  10.0697160  67.1546936  38.4344149  10.3315806  67.0718193
  37.4287295   9.3190885  66.5673971  50.4735613  11.4028335  37.0489144
  50.3265238  10.7344007  37.7181005  49.7027922  11.3496482  36.4838314
  10.9250128  81.9887543  22.9374576  10.7261229  82.7997971  23.4053159
  10.2183247  81.3914394  23.1824780  46.5048313  38.4595799  16.1661017
  46.8434286  39.3305254  16.3735604  46.9684267  38.2062483  15.3678942
  16.1074626   6.6454965  28.3352232  15.7864451   5.7729357  28.5628605
  17.0589519   6.5792340  28.4158993  20.9933734  18.9342308  67.6362038
  21.8673515  19.3246055  67.6344109  21.0033822  18.3211696  66.9011593
  13.7619865  55.5765009   4.1042614  14.0274251  56.3209581   4.6442217
  13.1942892  55.0576401   4.6741155  22.6558542  63.6974955   2.5200894
  23.2529402  64.1564608   1.9292651  22.9595280  62.7898026   2.5099015
  46.2571096  58.9137983  45.3526974  46.1954451  59.1582346  44.4292879
  46.1982441  57.9584122  45.3520012  28.2281590  15.9759879  60.9567165
  28.2184911  15.1857162  61.4967251  28.5229564  16.6674435  61.5493488
  29.8418236  56.7957687   3.0965379  29.5285702  57.2659540   3.8692155
  30.1532936  57.4832201   2.5077814   3.1547707  68.8636112  48.4410524
   3.8485694  69.2925930  48.9419031   2.5318161  69.5638371  48.2465076
  45.0407314   6.0907578  69.4735146  45.9483910   5.9552491  69.2014503
  44.5348024   6.0188407  68.6641312  68.5649300  46.0406303  20.8873320
  67.8639746  45.5160332  21.2742305  68.1099129  46.6917324  20.3532338
  40.0977898  23.6709881  68.7432528  39.9375749  22.7724195  69.0315866
  39.7387481  24.2150617  69.4441843  77.5108910  34.6181011  30.5079126
  77.1743965  33.7336206  30.3640413  78.2171202  34.7125912  29.8687410
  56.9532871  69.4509840  39.1061449  57.8292513  69.6395588  38.7694573
  56.7002249  68.6361456  38.6722898  65.4978371  49.6639681  18.8384879
  65.1462555  49.6697426  19.7287607  66.1244202  50.3874397  18.8237262
  84.5546436  29.4043612  62.4002981  84.8389053  30.2555513  62.7333212
  83.8479805  29.6104121  61.7884207  50.8007860  55.4947186  25.1759982
  50.1890087  55.8702993  25.8091664  50.7988262  54.5570230  25.3682375
  54.0949106  51.7558289  32.9264426  53.2767296  52.1168089  32.5851154
  54.4095802  51.1772013  32.2318864  50.4897261  29.5923805   6.7889553
  50.2587128  28.9165068   6.1517280  51.3183641  29.2945051   7.1642685
  66.1445427  22.5882077   0.9888947  66.7681742  22.2662282   1.6397746
  65.8200598  21.7981577   0.5567336   0.5416451   8.2090151  27.0456386
   0.4498358   9.1486394  26.8878150  -0.1742198   7.8117746  26.5496874
  66.1492395  77.2425890   8.5784489  65.3811884  77.8110504   8.6348587
  66.5998316  77.3651695   9.4140160  62.2652102  28.0058670  16.7618906
  63.1663418  27.8508639  16.4787519  62.0575619  28.8801432  16.4321113
  36.6697454  64.0095377   8.9933175  36.4575195  64.3546295   8.1260782
  35.9258842  64.2621231   9.5402175  14.3937469  23.1155133  67.9983473
  15.3412783  23.2461905  68.0349541  14.1182363  23.5801721  67.2081423
  77.4075317  36.9363117  23.9457107  76.9880056  36.2105680  23.4836268
  77.1236515  37.7180290  23.4718370  46.9221973  52.5424814   7.1027100
  46.5412617  52.6068878   7.9784793  46.4140987  53.1582737   6.5746307
   4.0978310  43.2342243  39.8762894   3.4044108  43.6182785  39.3397212
   3.7847739  42.3521709  40.0767946  69.6799469  44.6401501  23.6991835
  69.3243980  44.0442467  23.0398560  69.1484737  45.4320669  23.6177683
  46.6948938  61.8519831  26.9820356  46.5468073  61.2621927  27.7212596
  46.4730740  62.7197123  27.3197794  20.8760595  38.5048199   6.0335368
  21.2196851  39.0706468   5.3421664  20.0102901  38.2428384   5.7204235
  55.5186892  76.3816023  65.6094027  56.0147285  76.7329025  64.8699617
  54.9230099  75.7434988  65.2166939  60.5429029  29.0057802  43.9376259
  61.3456678  28.8839793  43.4307098  60.5672216  28.3108091  44.5953941
  17.6275170  46.6366291   3.6145729  17.2443438  47.4967480   3.7866408
  16.9059896  46.1206007   3.2549334  48.7781906  14.3599629  23.9224410
  47.8887892  14.7081769  23.8596296  49.3188858  15.1208436  24.1344357
  70.4413414  66.1053467  15.6974781  69.6052074  65.9042358  16.1177957
  70.2129078  66.2918043  14.7868276  85.0761890  66.7209816  68.0192184
  84.1686726  66.4400911  68.1364536  85.0514221  67.2988892  67.2565651
  73.4026146  33.4973693  34.5901918  73.5343456  32.5545764  34.4900823
  74.1593742  33.8922715  34.1570663   5.3051245  79.8271513  59.6911621
   4.8160344  79.3592167  60.3679609   6.1108691  79.3214369  59.5850420
  48.6739731  66.5534973  30.0847101  48.8488007  65.6124401  30.0758982
  48.1949806  66.7157412  29.2720151  74.5553541  34.5151210  41.2856531
  75.3675890  34.0125251  41.3481379  74.4821835  34.9581194  42.1310091
  50.2721548  75.1735115  59.6155930  50.6728506  75.9963036  59.8960972
  49.3543100  75.2533293  59.8752546  85.9325027  61.0129595  22.5472736
  85.5446148  60.9424686  21.6750288  85.4613590  61.7360973  22.9611897
  14.2715490   2.2073835  67.7407598  13.9181292   2.9708448  68.1973267
  14.5352292   2.5418055  66.8835163  75.1075506  76.8607950  27.5466704
  74.8760509  75.9703350  27.8107309  75.7386971  77.1496344  28.2058024
  49.2668867  37.5182319  46.5135384  49.8617887  38.1154346  46.9670486
  49.0692186  37.9588509  45.6870890  85.0397587  78.0587435  43.6205721
  85.2943611  78.8757086  44.0494871  85.8482456  77.7344513  43.2238150
  76.0389709  70.4982996  44.4508886  75.3270578  70.9798813  44.0295982
  75.7438183  69.5877409  44.4529629  76.0132408  42.3668528   1.9343698
  75.6339359  41.8522358   1.2219574  75.2730846  42.8508377   2.3006444
  17.4240923   4.1043392  66.6984987  16.6878176   4.5819527  67.0806217
  18.1951380   4.6143308  66.9467497   3.6668316  73.9263725  69.0016937
   3.3114982  74.8143244  69.0405798   2.8968588  73.3636522  68.9197445
  68.1512833  43.3482075   5.7930398  68.4937763  42.5904894   6.2671661
  68.9062357  43.9275837   5.6900656   3.8771459  11.4784551  55.4107189
   3.0505109  11.4951253  55.8930349   3.7064192  10.9063268  54.6625519
  24.3462825  64.6666574  26.6299129  24.6910167  64.1916275  27.3860455
  24.2822051  65.5745554  26.9263029  27.9839659  70.1828432  13.0343878
  28.6058974  69.9784279  12.3360693  27.1493196  69.8340321  12.7214527
  83.9000130  49.4132519  59.7270823  83.4791851  48.5617971  59.6080923
  83.3494186  50.0232458  59.2361832  50.3117704  25.4372883  12.8635967
  49.4834280  25.8013558  13.1759012  50.1544046  25.2419329  11.9398510
  80.4123306  57.4389219  69.3788719  79.7496367  56.9323063  69.8483467
  80.7496166  56.8361568  68.7161875  31.6782784  10.9827280  70.2008772
  32.1461368  11.7165995  69.8024130  32.1646142  10.2076721  69.9198151
  32.9817033   9.0307391  66.4682102  33.6894011   9.5907217  66.1491203
  32.9085398   8.3390695  65.8105850  65.2205467  60.4019070  23.0197668
  65.8746481  60.0766754  23.6383224  64.8741293  59.6138954  22.6011229
  66.8068838  62.1345711  26.8737411  66.1010838  61.4881182  26.8870044
  66.9596338  62.3033667  25.9440064  16.9104087  58.2403898   6.8138576
  17.0381892  57.4421644   7.3264408  17.0887852  57.9765177   5.9112036
  83.0214787  26.0596251  66.7601490  83.5853863  26.7366481  66.3861370
  82.6021194  25.6517434  66.0025215  30.1179671  63.3219194  43.0792618
  29.6315527  64.0128565  42.6295567  29.5288658  63.0274916  43.7738895
  65.2633667  74.7749949  22.0179296  65.5338383  74.2533922  22.7735829
  64.8347330  74.1481113  21.4352441  55.5300808  68.5653830  24.3782926
  55.3392124  68.8599062  25.2688313  54.7998381  67.9881144  24.1552615
  35.8654237  42.2620058   3.4602726  35.5055690  41.6135931   4.0654987
  36.4913130  42.7594852   3.9865881  58.8318920  47.9124212  17.3396778
  59.5555973  48.0679607  17.9465461  58.6280680  48.7771320  16.9833481
  57.5853777  76.8129539  23.9079309  58.2958412  77.0236063  24.5138192
  57.0212936  77.5861549  23.9221644  47.0707464  25.1285172  52.0773840
  46.3755703  25.4589558  52.6463938  47.2917557  25.8700299  51.5138721
  11.6681802  12.1075404  50.7710695  11.6512287  13.0362463  50.5398798
  12.4452376  11.7649269  50.3294516  61.4482975  43.9638376   3.7213629
  61.9291449  43.1893444   3.4295130  60.7263088  43.6146879   4.2439121
  26.2300396  48.7382317  21.7942500  26.3690686  49.3966818  21.1135554
  25.8412766  49.2240715  22.5216126  25.1788139  12.8983235  62.8536701
  24.6357822  12.5925136  62.1271515  26.0659766  12.6238215  62.6216698
   9.7892630  72.8017378  20.9933400   9.5183325  72.9515839  21.8990850
   8.9949733  72.9454184  20.4788589  22.5507069  36.2354088  21.8530107
  22.8327894  35.8445096  21.0260534  22.3256373  35.4878473  22.4068403
  53.8186741  69.4614124  38.2577753  54.0296555  69.3039513  39.1780615
  54.5199823  69.0258312  37.7733493  54.9745321  31.7512560   6.8806213
  55.4232025  32.4774671   7.3136854  55.5113983  31.5629053   6.1108625
  44.0273666  73.6911535   2.8979495  44.9782610  73.7420893   2.9951206
  43.8471270  72.7570629   2.7920210  59.6850300  33.0190802  53.6684465
  58.7706804  32.8042054  53.4839725  59.7232676  33.1055665  54.6209621
  84.9888229  64.2852783  61.8075943  85.8154488  64.6781683  61.5273237
  85.1058006  63.3474398  61.6559219  70.8573341   3.8551402  66.3600063
  70.3817034   3.0500421  66.1554956  70.1783800   4.5278850  66.4116669
  83.4383774  77.2884130  34.5421457  83.4257317  76.6249371  35.2319789
  83.3262539  78.1182432  35.0058699  43.7424612  26.8768477  13.0534542
  43.4849691  26.8496442  13.9749694  43.7345743  25.9609485  12.7754283
   6.3289434  78.6034441  51.5270376   7.0846653  78.2975626  51.0254860
   6.4826673  79.5409489  51.6440058  73.6811495  57.3271656  35.2860284
  73.3415651  58.1908369  35.5205345  74.3797302  57.1643019  35.9198189
  26.5007997  12.6727355  54.8898458  26.4755249  12.4309921  53.9640236
  26.0778117  11.9414973  55.3399611  17.9983389  60.1443338  60.5816412
  17.9326248  59.3983936  61.1778641  17.1237087  60.5332088  60.5872393
  52.0107746  16.1113310  35.0220871  52.4462366  15.3711379  34.5993328
  52.0819521  16.8249917  34.3881679  53.9845610  50.0540924  42.8892279
  53.7955236  50.2295208  41.9674253  54.3913317  49.1876221  42.8896189
  52.0041561  63.0793238  26.7699766  52.0270967  62.5722980  25.9584165
  52.6192904  63.7974548  26.6212082  19.8482454  67.7726936  21.1509490
  20.6430221  67.7702332  20.6175113  19.8104143  68.6549568  21.5202928
  22.4558687  21.9514608  54.2977715  21.8476772  21.9760394  55.0365067
  21.9613123  21.5310907  53.5942554  36.7027950  41.9419956   9.7950584
  35.7904649  41.6549444   9.7565246  36.7353320  42.7132368   9.2290533
  47.1286583  44.4275045  47.8490782  46.7365074  45.1425791  47.3479605
  48.0461550  44.4189548  47.5763941  71.6120195  32.5886083  20.8369946
  70.8832884  33.1355858  20.5437469  71.9224834  33.0121446  21.6372824
  42.1162176  43.9576292   5.6028658  42.1709776  43.3324385   4.8801166
  42.9184771  43.8142252   6.1049056  12.0395255   4.8568377  64.3157911
  11.7846417   5.7574427  64.5162344  12.8434241   4.9438012  63.8035250
  34.7724247  54.3533754  24.8223662  35.4845691  53.8596916  24.4157219
  34.1532397  53.6842585  25.1141286  38.2681274  65.3124428  12.8717852
  39.0156102  65.2029800  12.2839761  37.5888824  65.7067442  12.3246264
  65.7412910  78.1045294   2.0960306  64.8659801  78.4914017   2.1158059
  65.5925274  77.1684980   2.2300021  72.6160336  24.5679188  16.0502529
  72.5844669  23.6119890  16.0881102  73.4250641  24.7622943  15.5770457
  42.5867414  57.9017210  17.3046899  43.1671286  57.8564215  16.5448689
  42.8440905  58.7062120  17.7550292  16.3039136  13.0022037  47.7229166
  15.3470290  13.0267191  47.7244568  16.5587306  13.5499668  48.4653854
  36.8923998  12.3659003  53.8238764  36.1359286  12.7078509  53.3473730
  36.5168953  11.9336343  54.5909309  78.6414289   2.5059301  33.3602357
  78.0570459   2.4943045  34.1182542  79.2237186   3.2490662  33.5180926
  42.8107023  15.4055083  68.2615137  42.1915913  16.0707688  68.5621119
  43.2662106  15.1259828  69.0556240  65.6354237  64.1244650  28.5524940
  66.0806751  63.6048698  27.8831601  65.8450222  65.0316048  28.3302426
  30.2834630  18.0662727  51.4121819  30.5600595  18.7710059  51.9979095
  29.6983409  17.5277746  51.9449902  68.8039112  56.6876411  30.5182600
  69.4166327  56.0414219  30.1672602  68.8908625  56.6088724  31.4682412
  49.6169996   0.4024895  26.7042089  49.0038061  -0.1679536  26.2407207
  50.4343081   0.3258283  26.2119079  84.1221428  35.4486012  14.9103415
  84.0390682  36.3883233  14.7483182  85.0661564  35.2916360  14.9309409
  55.3032112  52.5360489  10.8735144  54.8570585  52.0322227  10.1928222
  55.4491663  53.3956099  10.4784393  39.9527478   7.4855596  69.4857836
  39.4439054   8.2173562  69.8347569  40.4439592   7.1551377  70.2379560
  50.7510948  82.7347088  40.6439686  50.9177208  82.1340275  41.3703680
  50.5101156  82.1655941  39.9130273  71.4179230  57.5978708  51.5031147
  71.8029976  57.5089693  52.3749208  70.7000494  58.2200193  51.6206694
  19.3190277  40.3649616  37.8684759  19.9820340  40.9187222  38.2807946
  18.9922667  40.8875084  37.1360803  39.9624443  54.1447687   4.6804911
  39.0787935  54.0887356   5.0441545  40.4551220  54.6523046   5.3254008
  27.5353551  24.3165350  40.7859755  26.9810200  24.5795703  40.0512934
  27.8152585  25.1416683  41.1822557  64.5435476  62.8690386  42.7119350
  64.9057484  63.2321024  41.9037104  63.8005781  62.3384714  42.4243069
  56.0284376  76.0822582   8.5620815  55.5938339  75.6628370   9.3046695
  56.7027998  76.6333437   8.9592838  54.3031359  43.3426189   9.2230552
  54.8887110  43.6685228   8.5395944  53.5938501  42.9122972   8.7455970
  80.3836250  78.6151648  61.8281412  79.8069334  79.2830753  62.1990347
  81.2590027  78.9988804  61.8801117  30.6272459  64.6621275  49.2437935
  30.4482365  65.5964851  49.1381502  31.0541940  64.5951271  50.0978804
  75.1322031  47.8046703   8.8728642  74.3342972  47.7597189   8.3460289
  75.0698709  47.0562077   9.4662911  77.0745325  72.7751064  46.0104465
  76.3644361  73.3727407  46.2446070  76.6587448  72.1145582  45.4563475
  63.9556456  29.4611382  49.3872690  63.1126690  29.4833016  48.9343548
  63.7506819  29.7143149  50.2873373  25.8641124  33.4718633  31.3745213
  25.0973821  33.6915326  31.9037676  25.5267096  33.4021354  30.4814768
  77.9644585  59.4386435  59.1753817  78.5072803  58.6538744  59.0997934
  77.7921104  59.5212269  60.1133060  65.3492594  60.5496645   8.4260714
  64.9504375  59.6820498   8.4925169  65.7693481  60.6858444   9.2753136
  46.4827156  10.2697098  48.7105894  47.1447468  10.0862134  48.0440474
  45.8459616  10.8306146  48.2676840  44.9742317  67.5614738   1.6115862
  45.5806112  68.1917906   2.0004776  44.1308546  67.7572632   2.0197676
  37.7760768  60.7986498   1.2874654  38.6594892  61.1313391   1.4459951
  37.8960848  59.8602247   1.1419197  86.9032288   9.2872036  17.5648677
  86.6653824  10.1511896  17.2284305  86.2543106   8.6951387  17.1846128
  33.7970090   6.1842549  47.4516296  33.3861709   6.7161077  46.7700338
  33.0759788   5.6810170  47.8299141  35.1566696  44.3859243  12.0264256
  34.6268129  43.7625980  12.5233626  36.0200286  43.9762259  11.9717312
  36.6788554  29.6823001  50.4951239  35.9394884  30.1471233  50.8869267
  37.1581292  29.3223643  51.2414312  48.7069035  69.4717312  44.5370436
  48.0015087  69.1348648  45.0894642  49.4791269  68.9731216  44.8040533
  65.2106571   4.7386727  21.1998558  65.4036760   3.8169417  21.0284257
  64.5252609   4.7196522  21.8677664  36.9276905   7.8578138  22.5537086
  36.8733239   7.3877126  23.3857441  36.9955897   8.7794024  22.8033018
  51.2019587   6.1452091  71.1326551  51.3021660   5.5630857  71.8858624
  50.7961702   6.9341534  71.4920092  67.8564835  63.0840015  36.5874982
  67.0641899  62.5897264  36.7977166  68.5278940  62.7158976  37.1619010
  61.9884634  31.3347435  60.2121162  62.2213602  30.8399987  59.4264841
  61.2322092  30.8710790  60.5717325  40.6190920  65.0979280  10.9866560
  41.5660620  65.1771975  11.1015224  40.4418898  64.1636896  11.0963380
   0.5832832  60.8366680  30.4580450   0.6964649  60.0464106  30.9861684
   0.9896715  60.6235886  29.6180010  24.1170502  69.6035957  22.9131079
  24.3671751  68.9806747  22.2307277  24.1931367  70.4609537  22.4943209
  46.9708204  62.6784658  54.7879362  47.0856810  61.7550087  54.5637274
  46.2035561  62.6923800  55.3600788  26.6841793  31.6969228  66.1276627
  25.8177733  31.9270134  66.4632702  27.2915649  32.0098639  66.7980242
  85.0350189  68.2356596   7.7642018  84.6467972  67.4123812   7.4680066
  85.8214664  68.3362246   7.2279090  62.2030210  37.5842047  32.4703264
  62.9936171  38.0627537  32.2209573  61.4830017  38.1294227  32.1532440
  40.1629019  55.6863213  15.3074133  40.2457571  56.6396713  15.3296781
  39.6407461  55.5094957  14.5249057  22.5255060  21.9013643  44.8693657
  22.2157454  22.3647213  45.6475544  21.7665505  21.4001012  44.5711184
  62.1956587  50.6311131  38.8154864  62.3171329  51.5319729  39.1153669
  61.7038536  50.2085495  39.5196152  21.4776063  76.3822746  40.7038355
  21.8319869  76.2223101  39.8291588  20.9813452  75.5900908  40.9097576
  63.0062294  35.6950998  41.6706705  63.7592936  36.2829137  41.7306757
  62.5959730  35.7425165  42.5341988   1.3067144  58.9116049   4.9270949
   2.1513015  59.1250181   5.3237802   0.9366794  58.2390022   5.4988545
  53.0804825  53.9076996   4.7538441  52.7525759  53.0089235   4.7839487
  53.1564665  54.1037798   3.8200292  29.5115924  17.8143644  11.3476229
  30.1933146  17.1628428  11.1832905  28.6904597  17.3376882  11.2261641
   0.2044088  38.8505459  52.9140425   0.9588717  38.6148286  52.3741770
  -0.2602414  38.0247903  53.0499029  63.6067057  79.9772930  14.1850770
  64.0435886  80.8264542  14.1196251  63.1355381  79.8858833  13.3568990
   2.2311953   3.2684180   0.4163234   1.5505308   2.7174205   0.0298914
   2.6435253   3.6999598  -0.3319997  23.8993382  15.4514039  69.5141077
  24.6228671  14.8452389  69.6731710  23.1342793  14.8871088  69.4023609
  56.6685486  53.0447578  15.2616870  56.2765217  53.6342192  14.6174157
  55.9231997  52.5944281  15.6590438  33.4721661  15.0599563  69.8525858
  32.8096437  15.1967657  70.5297709  34.3055534  15.0963926  70.3220224
  67.0735073  51.1906290  10.1099694  66.7401695  51.9579077   9.6447825
  67.4248981  51.5408039  10.9285879  62.8002548  16.4491451  14.5541024
  62.1892691  16.1520720  15.2283978  63.5332775  15.8359659  14.6081531
  13.1577039   2.8529343  58.5092640  13.6902702   3.5314438  58.0942583
  12.7607107   3.2881206  59.2637444   1.2690558  76.7096710  66.0646725
   1.9121753  76.3940954  65.4298210   0.5429890  76.0894394  65.9985876
  28.7402225  59.2925167  20.7080770  28.2175064  59.7519255  20.0508547
  28.1253862  59.1106844  21.4188123  62.7842712  32.6391673   8.2361817
  62.7500200  32.7360725   7.2845161  62.7547073  33.5359812   8.5694706
  85.0377655  20.8619881  10.5064607  84.6957970  19.9946213  10.7231843
  85.7744884  20.9854007  11.1049938  32.7308059  18.7059665  11.2471962
  31.9963861  19.1662359  10.8409786  33.1863594  18.2892084  10.5157483
  71.0012770  63.0893230  35.9716797  71.5800238  62.4582672  35.5438328
  70.3131485  63.2579184  35.3280258  76.8053389  69.1766405  11.7080295
  76.1180639  68.8821507  11.1104000  77.5355339  68.5792398  11.5462911
  61.7405224  58.1708431  17.3595643  61.7376471  57.3354053  17.8267539
  62.5340176  58.1435537  16.8249166  63.1005335  77.2340584  36.2413311
  62.6869249  77.8307772  35.6175637  63.6292219  76.6490507  35.6986690
  26.3346791  76.1506796  51.5873766  26.2039065  75.3089237  52.0239258
  25.9732056  76.7948961  52.1961117  23.8455987  11.5312135  60.9572887
  24.3545461  10.8590138  60.5041313  22.9438615  11.2118292  60.9242201
  80.4067993  60.4739666   4.0044561  79.9254274  59.6516323   4.0954548
  80.7743073  60.4398966   3.1212741  35.0655198  66.6527271  12.2873878
  34.5086598  66.2442827  12.9501927  35.5350804  67.3402500  12.7596748
  29.1721272  47.5397301  17.4099934  29.5025039  48.4307575  17.2952855
  29.9548006  47.0131207  17.5722635  78.3036709   2.5011146  65.2733088
  78.8327169   2.8499168  64.5558977  77.6677656   1.9278739  64.8452330
  69.6357870  82.6169014  13.0840898  69.9041939  82.1445084  13.8721442
  70.0690031  83.4674644  13.1554890  65.3249598  67.3211145  38.0208564
  66.0662889  66.7191076  38.0860281  65.5817413  68.0755568  38.5510588
  27.1759629  75.7051897   4.2150137  26.5680432  75.0207710   4.4947183
  27.3270631  76.2278128   5.0025851  18.6252618  12.0351851  38.9297247
  18.3421969  11.5522766  38.1532550  18.3286357  11.5001178  39.6658945
  54.6595335  59.3175459  13.2288611  55.1288986  58.5920525  13.6406708
  55.1745987  60.0930691  13.4513509  43.5582972  59.9110889  30.4583073
  43.7168074  60.7578516  30.0410485  43.3854055  59.3140173  29.7304058
   9.8775411  15.7891464  70.1989222  10.7591760  16.1616063  70.1839161
   9.5579189  15.9658289  71.0837173  19.3848813  23.2745004  62.7829266
  20.3058934  23.2468104  63.0421591  18.9055979  23.3428812  63.6086655
  85.4099560   3.6094600  13.8297546  85.5706501   3.0513024  14.5905888
  84.5909214   4.0612811  14.0328765  65.4879856  40.6577015  13.7811911
  65.7742596  40.5583858  12.8732193  66.1146736  40.1411247  14.2877841
  24.9816489   1.4320545  11.6802549  25.5352044   1.9196504  12.2902215
  24.1078472   1.8040121  11.8000507  27.4055266  37.9702353   2.0696136
  28.1875920  37.9934239   2.6210368  26.7744565  38.5271811   2.5254586
  54.5664215  70.7551908  42.9405689  54.5784044  71.4922714  43.5511446
  54.7691631  71.1452198  42.0902729  33.1543779  54.9424124  16.7895734
  33.3198571  54.9127531  15.8472526  33.3475566  54.0559530  17.0946932
  84.6561050  62.0541286   1.4624825  85.2099800  61.2767839   1.3905276
  85.0879192  62.5955772   2.1232368  36.9368887  39.2112517  34.7687864
  37.5147867  39.1485095  35.5292678  36.4572382  40.0292587  34.8992991
  38.3283472  21.2660909   3.3987415  37.6430488  21.1194682   4.0507382
  38.6403680  20.3885770   3.1777340  20.8367896  50.2700281  40.6837130
  21.5689635  49.6879816  40.8871269  20.1544833  49.6884394  40.3483963
  82.7180386  29.2702222  66.1412096  83.5884857  29.4907284  66.4727879
  82.2331047  30.0948238  66.1744261   8.5908020  70.2684116  65.6165075
   8.8992244  70.1202822  66.5104675   9.2389739  69.8315191  65.0640345
  36.8532848  70.5153179  42.1591282  36.4985347  69.7110748  41.7802191
  37.6132989  70.7215071  41.6149807   8.4246802  14.8401523  55.0314808
   7.4892759  14.9747384  54.8793650   8.5886788  15.2412009  55.8850002
  58.7592936  60.3490019  33.8839269  59.3838930  60.5747986  33.1946349
  57.9014874  60.5210352  33.4955859  19.1311955  28.5364246  41.4671850
  19.9334598  29.0409350  41.6016150  19.4079340  27.7795839  40.9506130
  70.8050966  49.5998859  17.9234231  71.3993645  50.1292944  17.3916233
  71.2757635  48.7780571  18.0623448  18.1103468  31.8289208  67.2122383
  17.1634376  31.9103551  67.3260927  18.3521771  31.0745072  67.7494621
  33.0729270  10.3359020  61.3237524  33.3077025  10.0441515  62.2046566
  32.9174757  11.2758565  61.4162350  85.5323696  17.8776383  25.6438231
  85.4374027  17.1341157  25.0485182  86.2758541  18.3698058  25.2956295
  13.5891771  67.2883415  54.9882555  14.0214622  66.4709425  55.2356863
  13.9909804  67.9512835  55.5497646  51.4382792  73.6900997   3.2254836
  51.5855646  72.7444935   3.2446355  51.5789318  73.9727592   4.1291171
  20.6416154  51.9918251  69.9240303  21.0300374  51.6065884  70.7094955
  20.2490616  51.2506390  69.4627523  18.1404734  75.9551764  54.9827147
  18.4591711  75.4682064  55.7426643  17.9622996  75.2829504  54.3249941
  24.0536618  39.7994637  47.3166943  24.7561026  39.2284036  47.6276541
  23.2700062  39.4808793  47.7646017  77.0004416  61.1219740   7.9931092
  77.4699163  61.9021749   7.6979733  77.1199656  61.1154509   8.9427954
  36.3798952   8.9218247  51.2930250  36.4755106   8.2092607  50.6610870
  35.7715034   9.5318371  50.8759165  18.6687279  20.8360982  15.9542918
  18.6428785  21.7590117  15.7017183  19.4119465  20.4760551  15.4703212
   7.4237210  77.9001045  69.2806959   7.2801220  76.9670630  69.4389486
   6.7586797  78.3382368  69.8117256  60.0271988  79.6465540  27.0523882
  59.3626738  79.2328358  26.5015030  60.7052422  79.9289227  26.4385819
  19.8834503   7.6109803  37.9356861  20.1785636   6.7028296  37.8693366
  20.6906199   8.1254655  37.9392672  44.2055321  42.8662634   6.7114705
  45.0571966  43.2284784   6.4671355  44.4147968  42.0643187   7.1903551
  71.7214727  62.3389482  40.5870676  72.6734638  62.3019838  40.6796885
  71.4598894  63.1005812  41.1044884   8.5916919  45.6354475  63.9116526
   8.3458549  45.3560448  63.0297613   9.2306083  46.3344002  63.7720633
  69.8118210  51.4155149  67.1050596  70.2827835  51.4500952  67.9376650
  69.7833109  50.4845095  66.8844986   3.8295755  56.3304567  50.0430202
   2.8849053  56.3489914  49.8897648   4.2154047  56.4259434  49.1722441
  72.8808355  15.5502439  63.9702797  72.1705294  15.3470671  63.3616590
  72.5205278  16.2291133  64.5408487  77.7244949  12.9344821  44.2807198
  78.5556507  12.4994385  44.0906000  77.0572805  12.3226798  43.9696646
   0.6052197  76.7867756  46.0940123   0.8094249  75.8605003  46.2226391
   0.7882631  76.9460583  45.1680803  55.9783697  57.2399759  14.6482956
  55.9260130  56.7536545  15.4710865  56.8812132  57.5560904  14.6139526
  71.1457157  51.6692066  61.9072819  70.9356880  51.4055395  61.0114002
  72.1024275  51.6744518  61.9373560  26.6882014  38.3534360  44.8402023
  26.0373759  38.7260294  44.2453623  26.2412024  38.3065438  45.6853199
   2.5656942  44.9796867  67.3454571   1.7781410  44.4378710  67.3947239
   3.2894975  44.3562126  67.4056673   0.7798885  11.6881979  41.8408108
   0.0987813  12.0153260  42.4284410   1.1972343  12.4772334  41.4951563
  68.3730555  20.6370926  48.1605101  68.6166763  21.3169098  48.7887859
  69.1484976  20.0793600  48.0984068  51.2736225  19.9328446  19.2303193
  51.8120527  20.6838012  18.9805377  50.5341482  20.3149629  19.7029698
  49.9502420  17.4648702  61.9610310  49.8143101  16.6324329  61.5084791
  50.6313276  17.9053700  61.4527845  49.7749090  56.9573593  10.2910650
  50.4022837  57.6509714  10.4948628  49.9814653  56.7043638   9.3913102
  47.2130108  41.2541866   7.5896990  47.3847532  40.3274107   7.4229044
  46.5247154  41.2542963   8.2548934  86.0347462  70.1642704  64.0891361
  86.0798740  70.2494907  65.0414705  85.8493519  69.2370939  63.9401531
  62.7968359  61.3453054  69.3566418  63.2830000  61.1799669  68.5488415
  61.9163275  61.0150528  69.1781187  25.4636621  39.9053311  15.3940701
  26.2302637  39.3321347  15.3934264  25.2018356  39.9540973  16.3134730
  63.5205793  64.4262362  12.9733896  64.0328217  65.2200699  13.1272352
  63.7674856  64.1490984  12.0910847  61.4477444  38.5409498  13.0666602
  60.8977985  37.9293323  13.5562706  62.0721054  38.8714385  13.7125540
  17.3884034  21.9979596  68.5040903  17.1565044  21.3021588  69.1191626
  17.8507054  21.5481806  67.7968407  78.4241676  72.8765678  59.4396639
  79.2053986  73.1454134  59.9230146  77.8583097  72.4786615  60.1012564
  11.9166970  31.9920826  41.7641115  11.4712512  31.9929957  40.9168768
  12.5217199  31.2519169  41.7158127  46.9030762  50.2604818  36.9140410
  47.5926065  50.8315659  36.5754437  46.6071224  50.6916952  37.7157235
  51.6390514  68.0375671   4.0530735  52.4402237  67.5153446   4.0125400
  51.5166092  68.2163620   4.9854207  47.5397491  40.3614950   1.3033035
  48.3504820  39.8568439   1.3687076  47.5173187  40.6620026   0.3947754
  54.3679571  54.6008158  14.4044471  54.5765591  55.5099058  14.6195519
  53.9419365  54.2602587  15.1910603   7.2243667  48.9312410  17.9712403
   6.5040600  48.9076853  18.6011887   8.0033278  49.0913486  18.5039866
  46.5896034  18.5999179  38.3979344  45.7049370  18.2631421  38.2558751
  47.1457386  17.8208554  38.3953691  45.6686926  15.3924382  45.4153013
  44.9486732  16.0231543  45.4156542  45.3153849  14.6258688  44.9638844
  28.0048633  78.7415791  53.4760571  28.7979245  78.8250732  54.0055084
  27.7861500  79.6400976  53.2289553  30.4413795   8.3046275  66.5295506
  30.9425998   9.0431100  66.8754578  30.6120896   8.3194256  65.5878115
  22.6523805  32.8660226  39.4151115  21.8310499  33.2037282  39.0578961
  22.7659535  33.3367443  40.2407932  74.2908335  38.9424968   8.3801752
  74.4605160  39.2474461   7.4888575  74.0921450  39.7391939   8.8721406
  60.7692337  43.6398840   0.3938039  60.0127316  44.2260551   0.4121783
  60.9294367  43.4847021  -0.5370482  43.3333731  60.3652334  59.0455675
  43.4930134  61.1492014  58.5200739  43.7473488  60.5531263  59.8879194
  33.5729289   3.8751721  12.1852875  34.2192316   4.2297104  11.5746915
  33.3650994   3.0080339  11.8372774   0.2480934  77.3849583  57.4065208
   0.6103206  76.5952969  57.8083420  -0.5418297  77.5711870  57.9140329
  62.3396969  30.8729982  16.4369714  61.8581104  30.7281137  15.6225288
  63.0187750  31.5061951  16.2042809  65.3285551  20.0637531  19.3511522
  64.8535872  19.6367955  18.6381686  65.8313274  19.3591142  19.7597313
  40.6365728  51.5340185  20.0540805  40.2540874  52.2171116  20.6048250
  40.3083420  50.7151508  20.4254961  79.9140453  76.9503736  58.9517403
  80.5429077  77.6155949  58.6720228  79.7646236  77.1367455  59.8786545
  40.9347820  53.6278391  10.2676940  40.7671070  54.3142891  10.9133780
  40.2708673  53.7669325   9.5923406  59.2492914  64.0243244  59.4377422
  58.7963629  63.2009602  59.6198463  60.1134586  63.7579775  59.1238832
  10.8697808  59.2378664  69.2242861  10.7882166  60.1906824  69.1828299
  11.7216885  59.0529776  68.8289356  58.7353659  46.2010956   8.7856871
  58.6404991  45.7859659   7.9284245  59.4497871  46.8276691   8.6706412
  15.8568192   7.0286077  59.2546701  15.0870609   6.7301339  59.7390413
  16.5241742   7.1664947  59.9268723  70.3376150  81.4579678  47.0438433
  70.4820299  81.0520458  46.1890888  69.4641352  81.1650562  47.3035860
  56.3780355  52.8856087   0.5110960  57.0465565  52.2015190   0.5475801
  55.8063793  52.6236105  -0.2105663  16.3192868  18.6841798  65.9040594
  16.0814679  19.5885217  66.1086082  16.8581665  18.7506795  65.1157570
  40.1364756  20.3839636  42.2880363  39.5810485  20.7149029  42.9938793
  39.5211267  20.1017094  41.6113472  36.6487575  70.0290012   2.8504226
  35.9847856  69.9546671   2.1649683  36.3749218  69.4003773   3.5183129
  16.3980997  70.7843161  66.0251474  16.8251777  70.9854269  65.1924467
  15.5748081  71.2717295  65.9959316  44.1591978  67.9112864  68.9752769
  44.2484045  66.9592190  69.0182638  43.6742067  68.0700827  68.1654644
  87.5527573  81.8862438  69.7639942  86.8965244  81.4743137  69.2019415
  87.4156094  82.8258514  69.6433830  86.3679886  39.7152305  65.6930017
  86.1434555  40.0178289  64.8130846  85.9462166  40.3448772  66.2777090
  46.2296629  67.7699137   6.0224539  46.5451527  67.5861073   6.9072783
  45.3930473  67.3082924   5.9657544  56.2576246  59.6845293   6.8956977
  56.6677713  59.7015238   7.7604079  55.3191090  59.6330976   7.0767313
  26.9610333  18.1257808  44.5096493  26.4479685  17.3526156  44.7446203
  26.3072133  18.8001215  44.3252134   2.9167476  41.2436914  15.1646197
   2.6444775  41.7118311  14.3753505   3.5400400  41.8329000  15.5895567
  50.0878143   7.8048354  56.0136795  51.0155916   7.7519619  56.2431669
  49.8016453   6.8929058  55.9615040  20.9269547  58.7849331  59.9836779
  20.3382730  58.0601406  59.7730446  21.1909175  59.1342258  59.1324711
   6.2021393  82.6663685  71.1564970   5.8933347  81.7627621  71.0903883
   6.5383637  82.7398396  72.0496845  55.7569933  41.0173655  16.7820454
  55.9019852  41.2086105  15.8554196  56.4228058  40.3647757  16.9989550
  16.5165341  78.7284708  66.4342928  16.5097654  78.2221413  65.6220007
  16.2903881  78.0936861  67.1141005  58.1921053  62.9267502   1.2473165
  58.7953043  62.7935648   1.9785103  58.2685566  63.8581800   1.0403661
  76.8421507  67.6092529  69.6843052  76.4373779  67.8582001  68.8533926
  77.3245335  68.3890915  69.9588728  61.9642448   6.1389303  31.2394261
  62.5976610   5.4214543  31.2238622  62.4659443   6.9072974  30.9671402
  52.7675200  55.7964516  36.8965364  53.7205791  55.7190895  36.8526602
  52.5224113  56.2098265  36.0687208  35.3347182  63.6077881  65.9546804
  34.4269538  63.6595154  66.2538767  35.8451700  63.9828873  66.6722965
  82.5650692  58.3607101  19.0695751  83.0964947  57.5665140  19.0141857
  83.2027817  59.0715694  19.1346335  47.7187920  68.0690193  38.5885191
  47.0896244  68.6728907  38.9831281  48.5102558  68.1682110  39.1176534
  52.2045040  57.3450518  23.6700416  52.5654173  57.8322506  24.4107246
  51.7872286  56.5804005  24.0668058  40.7053852   6.7147207  44.9285412
  40.8074379   5.7740605  45.0733709  40.7029772   7.0935267  45.8075905
  31.3212585  62.8370667   1.9142924  31.8729377  63.2087803   1.2260269
  30.4896140  63.3039474   1.8329398  25.2381492  46.3327599  27.4328876
  24.3441534  46.5748119  27.6745749  25.2028680  46.2013483  26.4854074
  23.6507106  82.3541641  33.7925267  23.7456179  83.2699394  34.0543818
  24.1839528  82.2747135  33.0015945   2.8272304  70.8125496  20.4680920
   2.8219286  70.2050209  21.2077594   3.7552649  70.9557581  20.2824163
  47.5360107  61.1776066  46.5972042  48.4527969  61.2732887  46.8552351
  47.4653912  60.2719641  46.2954473  16.5489149  78.9331675  26.9436550
  16.3373184  79.3667269  26.1169243  15.8005273  79.1199350  27.5104570
   4.3828988  39.3420029  42.4536610   4.5021570  38.4381604  42.1619749
   3.8985011  39.2664266  43.2757759  18.4312654  53.0975151  28.2389307
  17.5164652  53.3293676  28.0788779  18.4360075  52.1405172  28.2579327
  13.8294399   0.4136330  34.6483374  14.7305143   0.6838099  34.4714165
  13.3039880   1.1894360  34.4527316  79.5390177  58.4516096   1.3966280
  79.8138523  59.1414356   0.7926068  80.3371620  57.9520607   1.5688309
   6.2421471  82.2611904  26.2729836   6.3832927  82.1425629  27.2122574
   5.8637500  83.1370735  26.1963773   0.5579752  71.0905504  13.8899672
   1.1036681  71.5597153  13.2588303   0.0658699  71.7780304  14.3387842
   5.4280323  75.5943966  30.8669710   4.7331873  74.9990511  30.5859303
   5.0969070  76.4667463  30.6534457  53.8436413   6.4412767  58.2622433
  53.2506609   5.8512044  58.7274551  54.5345259   5.8704358  57.9260159
  22.9709148  75.1843214  46.6398239  23.7257624  75.0314522  46.0714340
  23.2130051  75.9516573  47.1583033  71.1739254  56.6890383  34.1020083
  71.8597364  57.0082951  34.6884990  71.6362429  56.4577532  33.2963991
  49.0695047   4.3801194  26.4352393  48.1467676   4.1959247  26.6109085
  49.0733337   5.2704835  26.0838580  40.8973885  33.6386824  44.3519735
  41.4825010  33.7519956  43.6029482  41.3137102  34.1330147  45.0580502
  80.6622696  65.3159285  64.7778034  80.4572010  64.5272636  65.2799845
  81.5490627  65.5503082  65.0514793  15.6949198  79.7132206  31.5204215
  15.1087689  79.6498966  32.2745109  15.6692863  78.8426304  31.1233664
  79.4388151  31.4989376  11.7601597  79.1460037  32.4048829  11.8589365
  79.5585775  31.1867929  12.6570737  24.2913318   9.7285086  31.4879847
  23.9790106  10.6075740  31.2736678  25.2405238   9.7772664  31.3744617
  33.9957500   6.5043968  36.0025263  34.8278785   6.0619074  36.1698532
  34.0919018   6.8709397  35.1235294  14.1417801  53.8723707  41.7187595
  14.3469322  54.7240496  42.1044874  14.9600101  53.5916996  41.3089371
  71.3355398  47.5301647  39.0938807  72.0819569  46.9485092  39.2380023
  71.6607857  48.3995771  39.3274832  43.0843735  22.7087951   6.7611611
  43.5720301  22.1234035   6.1817288  42.2989416  22.9379034   6.2643325
  12.3596931  42.8023100  42.1544933  12.6471591  43.5432482  42.6879787
  12.7440441  42.0365334  42.5812101  84.3779373  66.4506912  15.8589315
  84.7319698  65.8127594  16.4785588  85.0628948  67.1147919  15.7812846
  75.6434011   3.3576348  44.0754271  75.7136917   4.1044235  44.6700716
  75.5362225   3.7504977  43.2091713  81.1756039  69.6211386  30.3359914
  81.1690998  68.6782885  30.5009866  82.0641994  69.8974133  30.5602551
  36.2960768  63.4779978  15.4079473  35.7912159  64.2776299  15.5560493
  35.9817719  63.1488085  14.5658803  78.5660172  69.3943214  44.2193508
  77.9002333  70.0339317  43.9666271  78.1904125  68.9437914  44.9757767
  72.0215893  49.6086645   3.5577324  71.2491369  49.1382313   3.2443041
  72.4031162  49.9948025   2.7693388  60.5191040   0.9308735  42.9332590
  60.8694839   1.7679282  43.2379007  60.7342291   0.9062736  42.0008707
  22.1370792  52.7476931  65.0296116  21.7663145  51.8775129  64.8828125
  21.4225054  53.3503628  64.8236895  18.0024278   9.6558279  57.9625320
  18.5078394  10.4179192  58.2453871  18.6347401   8.9372212  57.9583120
  24.8532629  24.4130850  45.6186533  24.8006892  25.1102781  44.9649048
  24.2310333  24.6739864  46.2976170  51.7005491  65.2165556   9.8156542
  51.0351324  65.5765963  10.4020166  51.5280104  65.6347275   8.9720953
  80.6818771  68.9759064  12.8023589  80.4907322  68.3366299  13.4886670
  80.5311012  69.8251724  13.2173848  63.3509588  74.0262794  42.3673344
  63.5553885  74.8682213  41.9604254  64.2029381  73.6661339  42.6136160
  70.7421923  50.3624439   0.6985841  70.4726744  49.4588232   0.8631001
  71.3979578  50.2942276   0.0046483   8.8730890  65.9149122  53.4241247
   9.1129738  66.4300299  52.6538372   8.7551254  66.5631151  54.1184950
  30.3515863   4.2845371  62.9686499  29.4289327   4.5180848  63.0706310
  30.3911781   3.3571875  63.2025003  62.6685286  69.2294598  32.8899145
  62.7157021  68.5129499  33.5228586  61.8782854  69.0479946  32.3811746
  74.6708822  61.2215090  24.8027825  74.0000582  61.4819527  24.1715932
  74.4153643  60.3397322  25.0737214  34.1076922  80.1597881  21.4166808
  33.7298012  80.9295177  21.8420529  33.3736658  79.7587967  20.9512377
  25.1154780  54.6712160  31.5358353  25.9761834  55.0199413  31.3038731
  24.4959736  55.3175735  31.1971998  18.7067163  65.5595541  32.7083969
  18.5619295  64.6926785  33.0875969  18.8782454  65.3901577  31.7820525
  25.7017493   6.8132579   8.1618613  26.2868023   7.5570202   8.3059555
  24.8877192   7.0603281   8.6006594  13.6905968  21.7070866  28.3416128
  13.4344077  22.2649360  29.0760517  14.6460652  21.7610788  28.3217311
  52.9385853  67.3193550  27.5216174  53.1245565  66.6924238  28.2206202
  52.5929976  68.0881929  27.9751444  18.9256501  75.5618334   2.9165652
  18.7380385  76.1364794   2.1743974  18.8389087  74.6768856   2.5621986
   5.0876302  59.3964720  21.4711380   5.6296253  58.9756632  20.8037615
   4.4654992  58.7191486  21.7364979  30.2288008  72.1169424  40.7497263
  29.8680806  72.6022053  40.0076818  31.1048055  71.8581390  40.4636002
   6.7987305  57.1605253  26.6944623   6.0927081  57.2255659  26.0513973
   7.2147101  58.0225134  26.6814518  37.1971369   4.1919923  28.4198236
  36.5071821   3.7600043  28.9233947  37.5948453   4.8064995  29.0366220
  85.7552719  41.9439316  37.1039629  84.9535465  41.9658327  37.6264548
  85.5217648  42.3871374  36.2883186  30.1897192  26.8489027  57.3013306
  30.9750009  26.5362573  57.7505732  29.4802094  26.3161087  57.6604366
  25.9091759  78.1704187  40.8088255  26.7068601  77.9161453  41.2728071
  25.3588343  78.5722303  41.4810610  57.6984501  65.0847054  53.2642698
  57.6840305  65.3339672  52.3402071  57.9388142  65.8883333  53.7253952
  19.1066742  13.2828641  31.3797641  19.7687650  13.3037400  30.6887984
  19.0473139  12.3599982  31.6267991  81.6636658  80.0710583  47.1226645
  81.4080429  79.4722319  46.4210272  81.1465359  79.7901344  47.8775787
  61.8438530  55.8844519  19.1536009  62.4556255  55.6789017  19.8605072
  60.9851694  55.6463432  19.5031726  79.2900896  72.5205755  26.6918516
  79.5894957  72.1655178  27.5288248  78.9085674  73.3697176  26.9146371
  32.0165849  20.6920886  19.7055316  32.1132541  20.5353737  20.6448531
  32.4450135  21.5352535  19.5580435  25.0923824  47.1113014  46.2178564
  25.6405640  47.4519539  45.5109692  25.5745459  47.3217678  47.0175171
  10.3532231  30.2126718  54.0454197  10.5598724  29.3483591  53.6897612
   9.4112968  30.3101778  53.9057732   5.1066440  82.5426579  50.5978394
   5.4448301  83.1054688  49.9013424   5.8586568  82.0141983  50.8651161
   9.9378377  68.3927536  34.7323155  10.0513506  69.3412685  34.7928977
  10.1099050  68.1891775  33.8129783  48.1582355   1.5178539  28.8503408
  47.3855543   0.9590559  28.7670064  48.7393284   1.2295951  28.1464458
   8.6070228  65.9477854   7.3851955   8.5722786  65.7146740   8.3129257
   7.7112645  66.2074947   7.1697861  32.5815964   0.4432264   6.0586613
  32.3595858   0.0731261   6.9130439  33.0798554  -0.2469091   5.6208473
  80.1088905  80.1417446  35.4138374  80.4532623  80.2837372  36.2955856
  80.8437824  79.7688913  34.9268556  46.8719292  57.0817852  10.4728031
  47.8174877  56.9871187  10.3579497  46.4912367  56.5141678   9.8026407
  62.8925657   6.1997038  49.1365957  63.3035469   5.3440332  49.2597055
  63.4918022   6.8160284  49.5576572  41.5342712  75.8531952  45.6797075
  41.7876196  75.2445936  46.3737154  41.3609266  76.6770744  46.1351299
  50.5717945  18.6959946  55.2870226  49.9729538  18.4496188  55.9919453
  50.3223848  19.5926416  55.0633001   1.3209216   6.7420018   3.6804646
   1.5428378   6.2191951   2.9099727   2.1547887   6.8665886   4.1336489
  85.0689125  55.1035833  63.0928707  85.8668804  55.6030798  63.2660103
  85.2912807  54.2049646  63.3363104  78.1412649  78.2185936  11.2366974
  78.5574722  77.9683924  10.4118311  78.5132885  77.6196051  11.8840349
   4.8271155  74.5789814  50.5474615   4.0025616  75.0645590  50.5238914
   5.3416216  75.0135326  51.2276649  14.1219342   3.9662835  28.9544702
  13.4751761   4.0128806  28.2503629  14.6420717   3.1889597  28.7508583
  52.3216915  26.1461520  17.6295960  52.4496222  25.2811813  17.2401202
  53.0083942  26.6878653  17.2407281  79.4957447  68.3988857  33.7712049
  78.7971592  67.9635906  34.2598009  80.1088428  68.6962080  34.4434714
  35.5501318  60.3519630  16.1250746  35.2171612  59.5103502  16.4366055
  34.9516106  60.9992075  16.4980042  42.3454857   8.4747475  14.2585135
  41.5429115   8.9607430  14.4480157  43.0422640   9.1276467  14.3252695
  22.1916890  66.3406372  16.1826324  23.0785108  65.9899139  16.1003423
  22.2948527  67.2841930  16.0589707  87.5586700   1.1182851  23.6652541
  87.5000572   2.0116241  24.0039897  87.7541733   0.5828889  24.4342542
  85.6816578  62.0255232  26.1081624  84.9590874  62.6411390  26.2312126
  86.0062408  62.2102499  25.2268267   8.3921438  47.1021366  29.1650867
   7.6352149  46.6816139  29.5730710   8.0478078  47.4836588  28.3575583
   0.9461734  55.8723021  31.5041304   1.4913347  55.5756617  30.7754064
   1.1988460  55.3102255  32.2365642  10.1536930  40.3373671  17.1812558
   9.2549115  40.3796244  16.8547022  10.4319203  41.2516117  17.2358549
  67.2371626  38.3977985  35.6514549  66.9079590  37.4999428  35.6101084
  67.6306820  38.4688067  36.5211272  86.7603397   9.2596668  31.9070172
  86.3802433   9.9631393  31.3808203  86.7928314   9.6155411  32.7950096
  79.3100882  48.0241346  14.3236971  79.7311974  47.2052622  14.0622556
  79.5723963  48.6534882  13.6518764   4.4437531  78.5856819  15.1933014
   3.8328806  77.8504944  15.2439368   3.8970101  79.3356895  14.9592304
  16.5357327  42.3878717  38.0125070  16.7061818  41.9758844  38.8595271
  17.3186707  42.9102898  37.8383875  11.0109723  79.6967316  30.7051182
  11.0286641  79.8295164  31.6528988  11.8730402  79.9864340  30.4065466
  59.6559668   7.0585549  29.2874599  58.8556051   7.1756637  28.7756634
  59.6458721   6.1353099  29.5399451  53.3528709   0.2320972  55.0045300
  53.9429283   0.6665142  55.6204414  53.3999825   0.7653718  54.2110395
  73.4466648  33.2017493   9.6978819  73.0301857  33.9394617   9.2522854
  74.3050528  33.5341454   9.9603903   8.2888931  42.3549557   2.2943507
   7.5233078  42.1292925   2.8227329   8.2343489  41.7758942   1.5341231
  78.3570385  43.3469057  24.5020485  79.2037296  43.4877348  24.9257421
  78.0879498  44.2176008  24.2092776  74.7831726  61.5941286  45.7568884
  74.3168449  62.2684717  46.2508869  75.0295687  60.9431744  46.4139891
  16.5819561  18.1745362  33.5818982  16.7069840  17.3235261  34.0018773
  17.2464609  18.2018232  32.8934789  57.9447985  62.0364237  57.3670197
  58.4715176  62.3560810  58.0995607  57.7702904  62.8158045  56.8394375
  83.6257839   9.6879715   6.8754810  83.3511448   9.5375776   5.9709448
  84.4511890   9.2103022   6.9577420  45.4133749  54.4950438  34.5738268
  44.7806740  55.1529026  34.2854810  45.9988403  54.9686289  35.1647425
  70.4055977  22.6439333  36.1223650  69.8852205  23.1300735  35.4827499
  70.1317501  21.7334557  36.0115862  32.5404620  51.7231321   7.1921271
  32.9123735  50.9433985   6.7798984  33.2621765  52.0922947   7.7011263
  38.6019588  74.7085238  55.9965944  38.2662868  74.4570065  55.1361895
  39.0890217  75.5168819  55.8367348  77.1363354  67.4248648   3.5465136
  76.7059851  67.4611998   2.6922831  78.0682564  67.3475599   3.3421177
  15.2484334  41.5734720  16.3894117  15.8360100  40.9025431  16.0417938
  15.0927639  41.3090801  17.2961056  21.2527251  32.7879596  30.0312424
  21.8006229  32.0835495  30.3774285  20.6384182  32.3471403  29.4442677
  79.2524290  38.5362244  26.1103988  80.1518345  38.8637996  26.1116099
  78.8815594  38.8576746  25.2885985  36.0468221  26.9999003  18.5364270
  36.2347174  26.6768503  17.6551974  35.1303029  26.7679620  18.6861920
   0.7799329  49.8652363   6.7903751  -0.1450328  49.9777079   7.0095092
   0.8962892  48.9176178   6.7216820  26.7685604  13.0981791  43.6184168
  27.1812415  12.5049675  44.2461300  25.8539033  13.1431472  43.8970089
  56.7967796  34.7649980   0.4541110  57.2091913  34.9075651   1.3060641
  55.8578062  34.8280931   0.6289870   0.1412191   9.8258901  67.1965647
  -0.4692477  10.2747154  67.7814722   0.9044112  10.4023814  67.1587801
  12.5760853  25.7570386  26.7106128  12.4881721  25.0376749  26.0852957
  13.5038340  25.7575488  26.9462252   6.3026768  32.5087857  52.2337532
   5.6457603  33.0954170  52.6086617   6.8658471  33.0814171  51.7130184
   9.7507060  80.7866669  70.4719591  10.5069947  81.1374950  70.0016689
   9.0068054  81.2868214  70.1362705   5.1631755  22.5461602  36.8878746
   6.0070926  22.9936361  36.8262196   5.2046490  22.0698595  37.7171206
  50.9660053  77.3064995  55.0497198  50.0739193  77.5749969  55.2695608
  50.9677935  77.2404242  54.0948057  25.4443431  43.5627508   7.0008236
  25.0023413  44.3377209   6.6539937  26.3649178  43.8183117   7.0596808
   2.6271063  19.5435345  53.3787394   1.7785487  19.4210374  53.8043880
   2.4870151  20.2683496  52.7694368  17.3008966  67.5940943  22.0759463
  17.6990008  68.4225607  22.3431230  17.9580808  67.1825647  21.5147090
   3.9420089  39.5591331  21.8099618   3.0860364  39.4314432  21.4010143
   4.5435932  39.0442610  21.2721562  11.9414699  19.1763687  29.1176963
  11.4718091  18.6985707  28.4340596  12.0108342  20.0697207  28.7810302
  79.0979719  67.5024223  11.0760796  79.9713135  67.1125269  11.0375679
  79.2126083  68.2954931  11.5996492  82.8327084  52.7198935  42.6331282
  82.2868919  51.9444036  42.7632380  83.7186909  52.4279308  42.8476620
  14.0426004  15.9828079   4.7424966  13.7247038  15.7469475   5.6140149
  14.8305809  15.4525936   4.6233705  27.6074362  63.8113642  56.4205313
  27.4856472  63.8834667  55.4738569  26.7627215  63.5022306  56.7478323
  23.5720134  64.9710512   4.8554727  24.0146089  65.7689524   4.5661673
  23.3349681  64.5211697   4.0445173  33.2684970  59.7844124   7.7074981
  34.0483785  60.2938604   7.9276717  32.7105570  60.3961134   7.2271287
  24.3439746  74.8422050  60.6866503  24.9835730  75.2433252  60.0982189
  24.2179012  75.4894781  61.3804626  77.9753208  28.0235291  43.3792830
  78.8886452  27.8988814  43.6372280  77.9707336  28.8576818  42.9098129
  13.7321806  52.4038219  25.7913375  14.5268190  52.2945786  26.3136864
  13.2726479  51.5685034  25.8768129  25.0682306  63.5755730  37.1019864
  25.7421803  64.0150642  36.5834570  25.3770351  62.6729584  37.1804547
  44.1654730  79.4468164  62.5508690  44.0184641  80.3187084  62.9175138
  44.7213364  79.0070629  63.1941938  42.2728729   7.5624192  18.5657585
  41.8817997   6.7209947  18.3306050  41.9150114   8.1795692  17.9275620
  61.9608402  54.1522026   5.7121682  62.8366852  53.7679911   5.6732547
  61.3745928  53.4377432   5.4629940  70.0837469  71.0502577   5.6159294
  70.9836626  70.7791328   5.4346293  69.5431376  70.4189301   5.1411629
   5.7613474  44.3638754   4.4682023   5.4946154  43.5447979   4.8855752
   5.5280870  44.2502403   3.5468394  26.6577673  48.7380409  30.9929514
  25.8776236  48.8960886  31.5245795  27.1108294  49.5810556  30.9759355
  80.2536011  52.6346493  64.8348856  80.8316135  53.3473349  64.5624781
  80.0207710  52.1902132  64.0197134  77.7683783  17.6226401  65.8571243
  77.3605728  16.7728150  66.0236311  78.6230516  17.5659990  66.2843895
  86.8068981  14.3855989  69.1207743  87.3392010  14.1412830  69.8778725
  86.5009975  15.2707529  69.3186712   7.8810191   9.2597133  18.6283946
   8.4262443   9.4833964  17.8741217   7.0065814   9.1292322  18.2615626
  68.1106663   1.9215214  42.4382544  69.0616322   1.9261236  42.3292637
  67.9684591   1.4942151  43.2828951  73.3734083  55.6902075  50.8887911
  74.2250109  56.1215830  50.8186531  72.7496338  56.4079571  50.9982252
  35.3885150  62.9462481  12.9098988  35.1128078  62.4825573  12.1191955
  34.8792672  63.7567043  12.9021394   5.4848218  37.3393750  24.4512773
   4.9935499  37.2484875  25.2677464   6.2550259  36.7840195  24.5720935
   0.9679084  45.8114147   2.4769066   1.6904859  46.4147425   2.6504317
   0.6355435  46.0761690   1.6191943  42.2549200  19.3054295  70.2144623
  42.8652430  18.6401296  70.5324459  42.7091312  19.7146893  69.4779634
  20.6409073  24.8037076   0.8394521  20.9857464  25.2918315   1.5871494
  21.0694408  25.1963043   0.0788872   9.2295718  68.9931345  12.4905002
   9.3534428  69.4945908  11.6846287   9.9871308  69.2173243  13.0309379
  22.4500370  44.2029333  28.8028097  23.2675672  43.8616562  28.4403110
  21.9531512  43.4227657  29.0491366  80.5033016  58.0827618  23.3815026
  80.9471130  57.4516439  22.8149748  79.6215963  57.7268934  23.4918976
  28.2031274  74.5035696  69.9618149  29.0801406  74.8837233  70.0124693
  27.8801537  74.7606707  69.0982103  35.9921384  44.9234104  29.9639487
  36.6713929  45.1534557  30.5979252  35.6589055  45.7654333  29.6538162
  58.6910868  65.5041504  17.2931671  58.1258631  66.2738752  17.2277522
  58.3664560  65.0331402  18.0606270  29.4834781  74.6425581  38.1394982
  29.2627835  75.5049038  38.4914780  28.6824107  74.1291046  38.2438278
  86.8518162  80.6792736  33.7862182  87.6552486  80.9710789  34.2170119
  87.0279694  79.7709990  33.5407710   6.4406425  82.4486065  41.4224052
   6.0817403  82.4199867  40.5355024   5.6833506  82.3122692  41.9917536
  79.1234827  70.0456142  20.9056783  79.4530773  69.2097902  21.2358260
  79.3560982  70.6795883  21.5840554  10.8092940  37.1358991  52.8240919
  11.5786088  37.5839734  52.4725008  11.0880721  36.8200207  53.6835861
   5.0478142  73.5094023  35.3939676   4.1921785  73.8966894  35.5787086
   5.4234022  74.0707636  34.7157049  24.3943477   8.3814675   4.1515523
  24.7005749   9.2150599   4.5087373  25.1011491   7.7649081   4.3426508
  61.3644600  45.2362585  59.1721678  61.7595720  44.4357395  59.5175505
  60.9338760  45.6361294  59.9277687  58.8338375  54.0904999  39.7849655
  58.4513521  54.9675894  39.8104739  58.2671976  53.5655689  40.3502941
  86.8252659  80.6155300   6.6334921  86.6947174  80.5178261   7.5766999
  86.1427689  80.0720978   6.2396663  57.8030396  19.1964924  14.9976182
  57.5446177  18.3616555  15.3881252  57.0342970  19.7573853  15.1009011
  84.6368027  50.9374571  25.7925987  84.1772461  50.5835152  25.0311732
  84.3657398  51.8546772  25.8309245  87.6049614  44.2174006  47.4207926
  87.3017883  43.5443830  46.8113899  87.2018909  45.0259590  47.1045542
   7.0907474  55.6120825  45.5508709   7.1657866  55.4084492  44.6185970
   6.9704670  54.7614145  45.9729147  29.0047240  61.6168737  15.3281331
  28.0626678  61.4541578  15.3759265  29.2509604  61.3409138  14.4452715
  20.7999611  71.9861698   9.1726673  20.3952360  72.8070879   8.8924611
  21.4464355  71.7937899   8.4934813  66.7464447  70.8972549  11.1316657
  67.3114300  70.1320934  11.0241890  66.6446781  71.2461185  10.2461338
  69.5513964  51.1159086  32.2640491  70.4378271  50.7547474  32.2583842
  69.1758871  50.8421755  31.4272141   4.8915535  52.3121166  30.8045173
   5.0667816  52.9891443  31.4580917   3.9424068  52.3364305  30.6830239
  68.2037306  57.4652624  20.6951261  68.1601524  56.6291237  21.1590266
  67.3440218  57.5562763  20.2842140  31.0479784  36.5101337   2.4294804
  30.6325078  37.3714471   2.3875929  30.7271028  36.1289215   3.2467610
  75.1873970  37.4850774  21.2072134  74.9964809  37.6944637  22.1215105
  75.7713604  38.1861377  20.9178495  69.9411154  15.9493136  64.5837069
  69.7659826  16.0923076  63.6535931  70.4075670  16.7369640  64.8634577
  29.3095899  23.9226675  53.7904882  29.9111795  23.4057808  53.2546234
  29.8485708  24.6333098  54.1379356  72.8045464  60.8327341  44.0814018
  73.2627344  60.7880068  44.9206209  73.2258749  61.5557718  43.6167192
  79.5767736  21.7546034   7.2408241  80.3519630  21.3531899   6.8481708
  79.8470068  21.9758415   8.1320357   3.5097834  24.7135544  45.4751205
   3.3368608  24.1126657  44.7503710   2.7226001  25.2553630  45.5300570
  35.0038505  44.3789196   6.1601847  34.4284749  44.9427176   5.6431699
  34.6149755  43.5074186   6.0860300  54.6651077  45.0711346  48.8038397
  55.3198910  45.1734352  48.1131697  54.3607426  44.1681242  48.7134743
   0.0914083  52.5144339  38.6154222   0.8716097  52.6149464  39.1607809
   0.2630288  53.0612183  37.8487372  12.6424229  45.9128857  39.8053479
  12.0019686  45.5160332  40.3957367  13.4205329  46.0417271  40.3477287
  84.3761539  47.1260023  11.3520980  84.1684914  47.6078367  12.1526873
  85.2778530  47.3753214  11.1495757  82.3340511  16.3680828  53.3207798
  82.1866131  16.1975396  54.2510557  81.9553089  17.2346830  53.1731796
  83.0112553  52.4971628  39.3672872  83.4845257  53.3242369  39.2767835
  82.4214458  52.6385069  40.1078129  73.4053707   4.1800472  51.3141012
  74.1675186   3.7956163  50.8809996  73.5831833   5.1205581  51.3215256
  79.2937374  26.8408918   7.6158059  78.8574934  27.3122644   6.9060665
  80.2276039  26.9735909   7.4529535  67.1033621  81.9295406  28.5972428
  67.2873116  81.0623837  28.2361031  67.5048399  82.5376034  27.9765058
  24.6778798  41.7977047  20.4472208  24.6383405  42.7233982  20.2068853
  25.2889228  41.7672682  21.1833811  28.3780289  44.4402313  30.2239370
  27.9782486  45.0461292  30.8478737  28.6846352  43.7102413  30.7618380
  17.0935607  76.4941740  27.7354026  16.8175185  77.3301458  27.3596573
  18.0442572  76.5703726  27.8166509  59.6010351  68.7968063  34.5576191
  59.5544243  69.6343851  35.0186181  58.9114475  68.8489628  33.8958144
   8.9788795  40.3651953  55.3244352   8.8295144  39.6650481  54.6890497
   8.5061848  40.0829029  56.1074448  70.6125212  36.2957382   4.7446010
  71.5347481  36.0398030   4.7293314  70.6282425  37.2382307   4.9110028
  83.6266422  70.7606983  44.4258976  84.3253803  70.5233717  43.8162470
  83.7519360  71.6968775  44.5811176  13.4467018  52.6405478  16.6743052
  12.7882087  52.7442503  17.3612285  13.8286769  53.5126019  16.5750694
  33.1471133  71.0677004   7.3033726  34.0745997  71.1397266   7.5287849
  32.9458737  70.1381445   7.4113500  70.3215408  40.0596142  13.7010694
  70.0681925  39.1679001  13.4625566  70.1465988  40.1151419  14.6405077
   4.9429169  55.5770683  69.4572163   5.4601467  56.2462759  69.9054003
   4.3928772  55.1998043  70.1437712  52.2280359  56.6978598  42.6850557
  52.3032331  57.3678160  42.0055485  51.2921095  56.5011740  42.7249622
  76.8893862   5.4847884  71.3982153  77.0762396   6.4011323  71.1941767
  77.5598526   5.2398860  72.0359659   8.1530195  55.9636545  51.8733120
   8.4204680  56.5266228  51.1468315   8.6363924  56.3003683  52.6277685
  86.8080997  34.1497540  17.4998975  86.9732761  34.6534538  16.7028797
  86.9114399  33.2366657  17.2319043  25.3358626  75.2199602  40.7538462
  25.6290317  76.1308956  40.7318687  24.7063565  75.1535559  40.0358343
  70.0333834  73.9438248  18.7454605  69.9033499  74.7384357  18.2278538
  69.1559219  73.7077332  19.0463829   9.0117121  55.6303263   8.4924436
   9.1236049  56.5787792   8.5568815   9.1580355  55.3108501   9.3828124
  83.0807209  42.8455496  13.0644548  82.8405476  43.7202787  13.3700681
  83.6817741  43.0028915  12.3363042  66.3271856   9.5086837  45.2763176
  67.1025276   9.4997317  44.7150755  65.6869030   8.9722806  44.8088264
  32.4399972  29.8443031  68.8547707  32.6447845  28.9903903  69.2357302
  32.8305840  30.4759002  69.4587278  29.5741343  26.2846303  17.4502790
  28.9628720  25.8950901  16.8251014  29.1463447  26.1804080  18.3001995
  87.4490929  42.3085833   5.2155578  87.3253918  41.3805342   5.0164241
  87.5090027  42.3427773   6.1702693  73.0062246  70.5527592  37.3472953
  73.6919403  70.1255417  37.8606343  72.4449778  70.9721851  37.9994583
   3.8739207  56.5059137  38.4865022   3.7927139  56.1304569  39.3632388
   3.7453315  55.7640839  37.8954124  52.0665216  54.7896624  29.7795701
  51.3921928  54.9987698  29.1332054  52.8453875  54.5944166  29.2585373
  14.9667227  54.4999933   1.8680598  14.3973160  54.8599243   2.5481033
  14.6239746  53.6204481   1.7094699  46.8516350  14.3199587  52.7845955
  46.5172672  15.1635635  52.4800301  46.8282270  13.7590241  52.0093298
  70.0321198  67.4395227  -0.0534827  70.6022167  66.6814899  -0.1823397
  69.9192858  67.4958134   0.8953757  28.1560993   6.4569950  12.2752154
  28.7926412   6.4289623  12.9895401  28.1130552   5.5551809  11.9572353
  70.3610516  33.7705088   0.1940317  69.4380569  33.9432883   0.3796814
  70.8259296  34.5134926   0.5788602  48.3446693  56.0506248  62.9970980
  49.1611433  56.5201235  62.8262854  48.5371971  55.1425362  62.7635670
  73.9464521   0.4178429  37.4922228  73.6558580   0.9580924  38.2270145
  74.0936375   1.0407132  36.7804646  71.7257643  81.4793110  19.0410221
  70.8152914  81.7680836  18.9787066  71.9985104  81.3493443  18.1327546
   4.4131383  59.7478104  51.2953615   3.4924474  59.5089149  51.4025545
   4.8969403  59.0043974  51.6552305  71.4646006   2.6206473  46.7851973
  70.6257868   3.0808735  46.8137932  71.9928885   3.0432913  47.4623346
  31.7374539  82.3769569  66.7525387  31.2519479  81.7516232  66.2145042
  31.9203782  83.1086636  66.1631584  15.6339169  20.9379077  31.0569787
  15.4098964  21.0736489  31.9776416  14.9455905  20.3612280  30.7254982
  34.3350935  28.0980921  55.5384922  34.8267055  27.4981165  56.0993671
  33.7209272  28.5311794  56.1313391  32.1091771  71.9429016  44.9838591
  32.5085783  71.5697813  44.1980505  31.7670512  72.7903795  44.6993160
  77.7033472  54.1546345  22.5008202  78.1342125  54.3565321  23.3313775
  76.7792368  54.0532970  22.7288175   8.6509967  68.9181900  18.6839592
   8.4297144  68.0737400  18.2913136   9.6026599  68.8938570  18.7838495
  31.6848469  55.9083891  11.1281955  32.3186040  55.9221315  11.8454099
  31.5438867  54.9783707  10.9509206   1.3119315  40.7177258  17.5616932
   1.8171173  39.9120212  17.6705849   1.9310732  41.3385868  17.1777320
  16.1969590  72.4929619  17.4253309  15.9621799  72.8592300  16.5727127
  15.5191755  72.8153944  18.0193675  53.2183504  75.4642344  63.9068604
  52.7529335  76.1150694  63.3814716  52.5250435  74.9578285  64.3300724
  54.8382807  24.5305037  63.9749670  54.5688534  24.5095515  63.0567074
  54.2627144  25.1800871  64.3786955  16.3074732   1.2131920  34.2702103
  16.3322318   1.7972332  35.0281787  17.0231402   1.5157887  33.7112045
  22.4576211   4.3503457  70.5491304  22.5533104   3.6853969  69.8672771
  21.8053794   4.9582845  70.2009583  85.7799911  21.8223715  15.2011192
  85.2620029  22.0843482  15.9622300  85.8904934  20.8767891  15.3005791
  24.3573260  74.1677713  33.5186458  23.7740827  74.8474979  33.1809640
  24.7497749  73.7789059  32.7369809  23.0020261  68.6690712  41.2609243
  22.5758410  67.9089260  40.8649683  22.2867656  69.2807579  41.4354944
  15.7327533  45.0533247  33.4527802  15.3400338  44.9813509  32.5828266
  16.6608846  44.8656416  33.3128595  71.5216637  24.5263600   1.1738486
  71.6156721  24.4409490   2.1225840  71.9710255  25.3443670   0.9613157
  45.3708982  57.8318119  28.6540580  44.4653511  58.1190443  28.5369730
  45.3477335  56.8904829  28.4820318  57.2761488  34.5267558   2.9722548
  57.2279978  35.4371452   3.2639807  56.4111042  34.1665578   3.1676677
   8.7238777  60.7432699  36.1073947   8.4178662  61.5640354  35.7214785
   9.0301800  60.9886408  36.9804382  48.4808922  54.0382385  17.8286612
  48.5046196  54.4477844  18.6934972  47.9204845  54.6126652  17.3069227
  21.6824365  52.8171492  17.5936925  21.6594100  53.7724590  17.5381839
  20.9735465  52.5267315  17.0197904  74.4256306  57.4098492  22.3806238
  73.6385107  56.8749714  22.2777319  75.1449013  56.8266058  22.1383309
  40.8503914  28.5566497   1.8152854  41.1430597  28.5797977   0.9042189
  41.6489315  28.6868882   2.3267548   7.3307621  52.4472189  22.2844458
   7.3151082  53.3910465  22.1257710   6.9297379  52.3427200  23.1472850
  41.2063408  48.7538815  25.3936052  41.0457802  47.8653288  25.0759149
  42.1100855  48.9397097  25.1387620  26.8445516  40.7903528  32.7761245
  26.8080211  40.0553989  33.3882856  26.3224292  40.5040264  32.0267010
  63.7539721  13.2552683  41.3705683  63.5421085  14.1346931  41.6835499
  63.7726545  13.3383834  40.4171658  29.5890188  61.2248850   8.0624294
  29.8990536  60.3762531   7.7463138  28.9515185  61.5065432   7.4063075
  73.1700039  69.7083712  24.9364734  72.7168417  68.8655901  24.9609637
  73.9876604  69.5544958  25.4097509  19.4006944  72.8351068  42.8701210
  19.5347309  73.5603809  43.4802389  19.5876300  72.0506573  43.3858013
  75.9808731  68.4193802  19.3028891  75.5003262  69.2217541  19.0991580
  75.4121685  67.9475355  19.9113023   1.2384374  28.7283039  16.8611252
   1.6280723  29.5460343  17.1705317   1.9129679  28.0673909  17.0174468
  11.0060894  39.3038130  62.8004837  10.1989460  38.8015342  62.9121447
  11.2261915  39.6027064  63.6827803   0.7667476  74.1630602  12.2349477
   0.2946693  74.9497414  12.5079155   0.1876356  73.7452984  11.5975034
  16.6213119  55.5570602  38.2379484  15.6846440  55.4059792  38.1112146
  16.7846942  56.4060974  37.8272581  38.8902116   9.9451053  70.4441309
  38.7394214  10.6007683  69.7632456  39.3753648  10.4128921  71.1238575
  83.2193470  44.7036552   2.6355112  84.1532421  44.8664093   2.5029638
  82.9581738  45.3376007   3.3034483  53.8498974   0.7012505  48.3247423
  54.3878078   0.0528943  48.7791872  53.8037205   0.3843003  47.4227190
  87.9870916  49.3793917  13.1440365  87.6787057  50.2797127  13.2467425
  87.4449717  48.8703108  13.7466753  32.1308851  61.3814259   5.9919029
  31.3138556  61.7189121   5.6247574  32.4828410  60.8108711   5.3086543
  75.3231716  19.0555811  64.6083260  75.4753399  18.1799960  64.2527580
  76.0328865  19.1853034  65.2373838  14.3728924  51.1666489  20.0870299
  13.7322772  50.8902645  19.4317031  15.0647056  51.5926552  19.5809233
  62.6334190  51.2150335  23.6065817  61.9958019  51.7258787  24.1052938
  62.1071196  50.5684614  23.1362844  11.6182005  70.7856798  20.7448149
  11.9738805  70.7250595  21.6314101  11.0302937  71.5405083  20.7736969
  36.6799855  51.5506268   7.1300638  37.2053194  51.2499094   7.8715640
  37.1539569  52.3110914   6.7934918  46.8001270  29.4845438  14.4656897
  47.4215794  30.2067351  14.5576930  46.3596106  29.4380593  15.3142285
   4.4650686  50.2252531  25.0444651   4.2056650  51.1382866  25.1681995
   4.1363013  49.7752762  25.8227110  71.5097570  18.8101006  59.1344261
  71.3619375  19.2027652  58.2740784  72.4493027  18.9123833  59.2861557
  25.9887743  79.5961809  70.0017357  25.6622005  80.4154396  69.6297216
  26.1885762  79.0505791  69.2410612  76.1823225  69.7520876  14.3913400
  75.6707573  68.9858103  14.6508682  76.1327362  69.7606373  13.4354639
  29.3459773  11.8277586  48.4207773  30.2373123  11.9878948  48.7307930
  28.9592671  11.2592757  49.0867424  19.0287077  78.7937498  28.4378648
  18.2189250  78.7516403  27.9292274  19.7174084  78.5744715  27.8102994
  30.9147692  45.1266241  34.1605783  30.2577972  44.4305468  34.1505837
  30.4794502  45.8727646  33.7482691  64.8743153   5.6867176   0.4841259
  65.1801538   5.3803402  -0.3695877  65.3153896   5.1176751   1.1148999
   9.4552767  79.3226814  19.5867956  10.2392924  79.8223925  19.8144710
   8.7287712  79.9139214  19.7839153   4.9967685  80.7930470  54.3891048
   4.8927948  81.6172314  54.8646545   4.2355570  80.2717304  54.6440840
  32.0365858  72.1348953  32.4553823  31.1315393  72.4158955  32.3206139
  32.0522666  71.7994165  33.3517313  23.6206102  56.7087984  30.5494285
  22.7502394  57.0401525  30.3283119  24.1406465  57.4947357  30.7170391
   3.6561087   6.4707428  13.6548018   4.4050661   6.5611839  14.2439663
   3.0482021   5.9009016  14.1259313  20.7768536  45.1502323  31.8565989
  20.5588174  45.7547903  31.1472344  20.2279663  45.4318237  32.5884867
  39.4571233  78.1630611  22.7843332  40.2014494  77.5696802  22.8848934
  38.6943555  77.6310301  23.0109549  65.7574415   7.5989634  39.0324259
  65.6088734   6.8622190  38.4396625  65.8802891   7.1944278  39.8911977
  13.8827300  60.5587196  29.5087099  14.3064547  59.7682095  29.8430443
  14.1273510  60.5886698  28.5837793  56.3616514  14.0365255  71.2857723
  55.6462479  13.4159005  71.1470079  57.0991993  13.6637354  70.8027792
  54.6316814  12.8561819   3.9574069  55.3715658  12.3719454   4.3239045
  54.4197989  12.3926532   3.1471735  28.5822821  69.3840456  49.1779470
  29.2055535  69.1168928  49.8535156  27.7360058  69.0678930  49.4943285
  19.6531987  63.5767746  36.6186237  20.0749397  63.2886887  35.8090734
  20.3104138  63.4257269  37.2979498  33.6816907   4.3941668  20.9372377
  34.2045069   4.0170041  20.2296782  34.1206694   5.2187353  21.1460829
  25.5327702  63.0204773  18.9456511  25.7895947  62.1525002  19.2569172
  25.2430964  63.4812641  19.7330487  37.6298904   2.0279020  21.0395551
  36.8236327   2.4336293  20.7208610  37.5863075   2.1235542  21.9909668
  19.1793323  63.5450125  11.8630588  20.0491357  63.1464195  11.8913043
  19.0620291  63.9258814  12.7333510  41.4180565   1.2463476  15.0595427
  41.2717342   1.8148835  15.8155775  42.0044231   0.5627878  15.3838205
  22.4826670  74.4545937  27.5288129  22.2216320  75.0974464  26.8693972
  22.3356128  73.6072254  27.1086097  41.3551712   9.5321500  16.9371521
  40.8068848   9.9854350  16.2967253  42.2500515   9.7789502  16.7036843
  32.6978564  35.0640988  10.3082502  32.1673059  35.5367923  10.9495831
  32.3034143  34.1929436  10.2665508  39.6213317  66.4606953  26.3204551
  39.8287368  66.9568586  27.1123099  40.2522993  66.7712307  25.6710887
  78.2160091  27.9264545  12.5033307  78.8712883  28.0136418  11.8110573
  78.2024050  26.9905710  12.7037549  72.8829145  82.2773647  16.3834178
  73.0067205  83.0172634  16.9779336  73.7581110  82.0965862  16.0405123
  47.7238607  33.2982755  63.5763311  48.3087921  33.8813877  64.0601349
  47.8165245  33.5698152  62.6631451  13.7511718  47.0894670  27.2663403
  13.3701992  47.8617382  27.6842904  12.9972064  46.5519762  27.0237041
  11.3328481  26.3921857   4.1265368  11.5471888  26.5708876   5.0421548
  10.8829987  25.5475092   4.1463104  29.6397996  34.7865939  13.1678665
  30.3997135  34.6113491  13.7228906  29.7545338  35.6935239  12.8840661
  20.5857968   1.2436970  59.5017242  19.7960687   0.7664962  59.2470837
  20.7395315   1.8543732  58.7808418  22.3103809  76.5260601  25.8293605
  22.6317787  76.2191391  24.9815774  21.6709065  77.2042799  25.6118226
  24.8624563  69.7326660  29.5651007  24.7424436  70.6796455  29.4939423
  25.6513548  69.5521402  29.0539455  21.8224883  58.8003016  25.8762240
  22.5901914  58.4492731  26.3274932  21.0931444  58.2690620  26.1957169
  77.1169472  11.1164784  16.5767336  76.8371296  11.4324510  15.7176089
  76.3717651  10.6101286  16.9000661  26.1812568  73.6439848  52.6931763
  26.8622231  73.4075499  53.3229542  25.4579020  73.9648247  53.2317400
  25.3105783  64.9588299   7.2425109  25.8135748  64.1444445   7.2451717
  24.6072125  64.8038578   6.6120410   8.8098043   2.7750835  64.0988493
   7.9560387   3.0339253  64.4457150   9.4093180   2.8760353  64.8381853
  27.9460168  68.1615734  20.9242773  27.2654247  67.6791191  20.4549527
  28.7416315  67.6471806  20.7877898  38.0664325  64.1751385   1.0003626
  38.1838918  63.6024523   0.2424272  38.6787486  63.8365602   1.6535598
  84.8714066  37.2969604  70.9759188  84.5153618  36.4131641  70.8844566
  84.1652966  37.7986789  71.3832378  58.8139820   8.4269756  19.0646565
  59.5466518   9.0051913  19.2769980  58.9801264   8.1509590  18.1633008
   7.5857198  60.7828093  65.0180435   7.8172016  61.2803173  64.2337370
   6.9817907  60.1094055  64.7049475  30.6406784  45.8227253  10.4392362
  31.4059424  45.9726286  10.9943318  30.6779408  46.5215158   9.7861409
  29.7527838  29.7074652  36.6372943  29.6549201  30.1007271  35.7701159
  29.6444154  30.4386282  37.2454810  16.9158065  49.7078943  61.5601301
  16.0529542  49.9361897  61.9059563  17.0258939  50.2754211  60.7972240
  12.2245240  16.1339438  47.4173784  12.3243845  15.6736219  48.2506609
  13.1212306  16.2965298  47.1246052  46.2327909   4.0473834  26.6377234
  46.5544701   4.1185772  27.5364375  45.4634666   4.6163794  26.6129136
   1.8346271  68.2876921  26.8165445   1.0644928  68.0648136  27.3394680
   2.5775644  68.0693150  27.3792052  71.7199802  43.2056952  69.8109436
  71.3559484  42.8745651  70.6319571  71.1957264  42.7848911  69.1295385
  76.1174679   2.7618229  67.5336027  75.7871151   3.5652393  67.1315813
  77.0695019   2.8335062  67.4648094  23.8512135  11.9289017  24.8025966
  24.1817617  11.0331726  24.7344780  23.3094668  11.9249201  25.5917263
  47.6672125  80.6624699  52.6028156  48.2622766  79.9944210  52.2624636
  47.1438169  80.9251881  51.8456697  38.3501744  15.2833486  27.3473811
  39.2736745  15.0320303  27.3326755  38.1158352  15.3884268  26.4252782
  79.9249129   3.2487045  71.7162117  79.0309362   2.9078566  71.7455454
  80.1059155   3.3663307  70.7836704  30.3555298   3.2145891  34.4191337
  31.2269497   3.0267146  34.0704751  30.5209088   3.6716589  35.2437353
   9.4161707  74.5359039  40.1336050   9.7787416  75.3404284  40.5044413
   9.6116883  73.8625002  40.7851648   8.6551732  72.7376652  33.4814382
   7.8189617  73.1949377  33.3926606   9.2313623  73.1672239  32.8492069
  79.7977304  81.3417530   9.6855760  80.0462723  80.4970741   9.3100989
  78.9113188  81.4972973   9.3595201  80.0636387  67.8311348  40.1703644
  79.2258024  67.5743580  40.5554914  80.7145119  67.5873709  40.8285236
  46.7559290   3.7703866  29.2965794  46.1968136   3.7104115  30.0711918
  47.2956133   2.9804987  29.3289948   6.5716368  68.8792467   4.9742782
   7.2436064  69.2654181   5.5360258   7.0555001  68.3000374   4.3855298
  30.6760979   7.5333405   4.1631839  30.5592394   7.0677936   4.9913397
  29.7940946   7.5946945   3.7963861  11.9595504   4.2829713  41.1606932
  11.8372869   3.3635747  41.3973236  11.5704250   4.7708765  41.8864775
  33.7061334  79.9071598  42.8143120  34.3219376  80.0462246  43.5338068
  33.4823561  78.9779663  42.8668022  73.1792116   0.7317614  45.7553816
  73.4675360   0.3352073  46.5774822  72.5314856   1.3853711  46.0189581
  15.8103812  59.5267344  34.9604368  16.7017126  59.8183250  35.1520991
  15.5237985  59.0894842  35.7622576  82.2550011  28.5738516   3.2455590
  82.3981667  28.9310050   2.3691007  83.1153297  28.6124635   3.6633959
  63.1782818  31.6992497  36.9849253  62.2681189  31.4414620  36.8386889
  63.6486769  30.8715272  37.0840883  74.3696880  43.1315851  68.7462711
  74.7718859  43.9950418  68.8406658  73.4919214  43.2347488  69.1138554
  17.1436238  49.9630308  10.2241385  16.6368401  49.2766714  10.6580889
  16.7900276  50.7802296  10.5754077   6.6253668  82.5154877  12.8719580
   7.3185605  82.5997353  12.2172689   7.0909959  82.4042320  13.7008393
   8.8625711  65.1457787   0.4622486   9.4164675  64.7858238  -0.2304731
   9.1608739  66.0498238   0.5619609  11.6912735  63.0851030  30.6427336
  12.4039102  62.5685740  31.0190034  11.5730965  63.8116407  31.2546206
   5.9913713  66.8680906  49.2471838   5.5937767  67.3489428  49.9730825
   5.6002259  67.2523308  48.4625816  64.5593071  11.8309331  61.6463137
  63.7114573  11.5545738  61.9941759  65.1991034  11.4705122  62.2603083
  31.0836267  40.3696823  32.7766752  31.9114017  40.8048248  32.9808092
  31.0959435  40.2657366  31.8252158  28.4141827  80.0738049  20.7247663
  27.9027224  79.9527407  19.9247766  28.5415959  81.0204697  20.7866287
  35.5294728  58.6070633  30.8656025  34.7762156  59.1832876  30.7360053
  35.5387497  58.0467844  30.0895619  78.2939911  17.3782396  38.1745434
  79.2227030  17.3554325  37.9438901  77.8617430  17.7245152  37.3938465
  16.6123629  14.7363472  61.8773794  16.7428601  14.4402051  60.9765434
  15.8314300  15.2884030  61.8372679  29.0421867  76.5318871  66.4308643
  29.4549870  76.9846439  67.1662807  29.4922090  76.8716097  65.6573677
  72.1432924  25.2602887  35.4782510  71.9776773  25.0786090  36.4033437
  71.4645672  25.8888626  35.2323651  83.4857559   6.1499768  49.0472603
  84.1121197   6.6545290  48.5282993  83.1897068   5.4565632  48.4575415
  79.4674158  66.5183878  62.8278208  79.8841619  65.8925629  63.4201908
  78.5441685  66.5089226  63.0803299   1.8898088  66.2187004  41.6588593
   2.4892536  66.5717316  42.3163319   2.4616188  65.8923388  40.9640551
  21.1466408  57.9811621  29.8686385  20.6289935  58.7860727  29.8487043
  21.1731935  57.6908302  28.9569187  55.7303905  36.9793296  69.6671915
  55.7493401  36.4017034  68.9041615  55.5532837  37.8478122  69.3058014
  14.6630299  36.4995742  14.5055544  15.0797009  35.9327030  13.8564968
  14.5399344  37.3332596  14.0516329  34.9988103  68.6126852  18.7600207
  35.6919122  68.4818316  19.4071043  34.5811081  67.7551842  18.6797237
  83.2389450  77.0453119  41.8541431  82.8068733  77.7065277  41.3134575
  83.5902500  77.5358057  42.5972652  21.2865853  36.9448113  28.9569902
  20.7878995  36.9939947  29.7725439  20.8678317  36.2404227  28.4623051
  27.6539636  24.5016646   5.6233221  27.4624228  25.1477528   4.9435318
  27.2140455  23.7047982   5.3271681  48.3461189  41.4808273  61.6232014
  47.9389143  41.0126448  60.8943510  47.6101017  41.8448400  62.1151352
  52.9014587  33.7141418  13.7730289  53.2334375  32.8872108  13.4234476
  52.7296495  34.2498064  12.9985762  55.4292202  23.3951092  46.9133472
  55.2993298  24.3362784  47.0298052  54.9803877  23.1910992  46.0928822
  60.3137302  11.1586690  59.6309185  60.2605772  12.0777845  59.3689442
  59.6087027  10.7301295  59.1456175  82.6781082  41.5036726  32.1532893
  82.5265026  42.0749044  31.4003348  82.3576546  42.0053291  32.9028773
  45.2969790  15.6748855  11.1325443  46.1575317  16.0922635  11.0940957
  45.2319956  15.3420448  12.0276558  17.8963113  52.4269104  46.5692186
  18.1466591  51.5359497  46.8136454  16.9749951  52.3567724  46.3192368
  85.6714630  29.5850325  67.4788046  86.2656975  30.2128839  67.8898096
  85.2313232  29.1560721  68.2126331   2.7517876  50.3401899  16.4548278
   2.4041685  49.4517708  16.5329397   2.8050268  50.4944849  15.5116475
  13.2575190  75.1352215  55.5299234  13.1227160  74.6402073  56.3380194
  13.8696742  74.6026611  55.0221062  30.3419685  68.5148859  18.6539757
  30.7504106  68.9981937  19.3721807  30.0992060  67.6729965  19.0393615
  10.0177515  13.8006759  57.6721048   9.5892513  13.1232631  57.1489143
  10.1606262  13.3900964  58.5248947  87.1139812  65.1149797   6.6040242
  86.2474918  65.0424576   7.0042247  87.5441074  64.2855740   6.8121469
  39.2338061  16.7234111  51.9365835  39.1215801  15.9070837  52.4236631
  40.0149155  17.1243513  52.3178291  70.7279301  15.0486243  35.6683302
  70.9878874  14.9290371  36.5817618  70.2431917  15.8739948  35.6633544
  63.7099981   6.3621128  52.1431875  64.5868635   6.6458923  52.4016619
  63.1661606   7.1434176  52.2433615  60.2302361  33.2756519  67.9944658
  59.8612070  32.4841571  68.3863592  61.0055733  33.4653854  68.5227537
  68.6326838   3.6029655   2.7939558  68.6453915   4.5273557   2.5458166
  69.3951273   3.2264891   2.3544340  58.7628746  16.0152972  58.3180094
  59.5478821  16.5460765  58.1828594  59.0744829  15.2424181  58.7889576
  26.6128850  72.0472813  14.6276522  27.3921013  71.7590666  14.1522717
  26.9004893  72.8210354  15.1122296  76.7843199   5.1883888  50.3160620
  77.7097082   4.9987480  50.1613951  76.7494392   6.1388063  50.4243326
  23.3581328  75.6614065  57.0019484  24.1911316  75.4656124  57.4309111
  23.1959200  76.5830517  57.2031689  28.6603713  55.1065540  40.0653076
  27.8469825  55.5016565  39.7514200  29.3362570  55.7510757  39.8555303
  38.2325196  73.4908724  39.0380359  38.6382675  74.2729187  39.4122076
  37.3949885  73.4136248  39.4949889  53.1532383  14.7697282  37.4232388
  53.8005495  14.8396313  36.7215753  52.4235392  15.3160858  37.1312356
  55.3169155   7.3788023  68.8249159  54.4169712   7.2923803  68.5104847
  55.2368641   7.3952901  69.7786188  12.9660702  39.0055537  50.1718903
  12.8625727  39.0317225  51.1231184  13.7885046  38.5358500  50.0332832
  76.2324905  19.9915934   7.3417622  76.4115572  19.6297145   6.4738846
  76.5164423  20.9038877   7.2841102  48.9012527  72.7345514  22.7160788
  48.4477949  72.7273512  21.8731332  48.7889767  73.6279535  23.0408216
  80.2604198  26.6466069  43.9696741  80.1145649  26.5156484  44.9065876
  80.4290199  25.7683253  43.6284590  87.3467159  20.2961540  24.7569370
  87.8781605  20.6707907  24.0544820  86.5170670  20.7711554  24.7089696
  57.2059774  80.3144836  18.9550185  57.3202085  80.1085186  19.8827899
  56.7237282  79.5670891  18.6013639  18.9332759  48.8548994  17.4823630
  19.5957816  48.7604666  18.1667614  18.9300644  48.0093050  17.0338190
  34.0645075  72.8687334  36.1006713  34.5525503  73.3235121  36.7871284
  33.1570911  73.1452227  36.2286568  69.1770124  19.9622726  24.9025702
  68.8691473  19.8108912  24.0089607  68.3823872  20.1549077  25.4002571
  28.3513808  61.1270952  45.6381845  29.0339208  60.5775833  45.2529526
  28.8265824  61.8597078  46.0302210  17.6594567  54.4778728  14.2112660
  17.2389269  54.7668839  13.4014153  17.4480867  55.1607704  14.8478222
  57.5649500  26.3236880  53.9903021  57.9351854  27.0721984  53.5224485
  57.2615385  25.7353282  53.2989264  72.4080944  38.9726448  31.7543650
  71.7216635  38.3138466  31.6493416  72.1262932  39.7022343  31.2025356
  84.0855980  79.5551682  27.2040272  83.2177639  79.1758394  27.3426533
  84.2346573  79.4742537  26.2619734  22.2197104  53.1893396  41.4260721
  21.7905140  52.3930311  41.1131668  22.0696545  53.1866455  42.3714352
   0.6423208  69.9718142  28.9160562   1.0610585  69.8836040  29.7722745
   1.3396633  70.2839518  28.3394122   9.5429641  43.7553596  27.3438454
  10.2806735  44.3585396  27.2533536   9.5296419  43.2679892  26.5201211
  67.6638651  72.0048904  35.4158235  68.5052204  72.3773718  35.6796598
  67.0440245  72.3253679  36.0710502  41.5680552  54.7996473   2.5426343
  40.8388758  54.7330379   3.1591517  41.5140104  53.9992952   2.0203808
  36.1344218  44.0981770  25.7538342  35.4538822  44.6463203  26.1445189
  35.8576584  43.2015753  25.9428787  77.4586058  53.6863756  62.1991682
  76.7988205  53.9194632  62.8523064  77.8888273  54.5147371  61.9871330
  45.6252432  53.3063555  29.6598458  45.1170540  53.7215328  30.3566957
  46.0146713  52.5361204  30.0737453  15.7355046  76.0341311   3.2628727
  15.4129517  76.6186047   3.9488608  16.5539455  76.4358091   2.9712582
  11.2357509  17.4902833  41.7376328  11.6280317  16.7476141  42.1967506
  11.9493115  18.1224048  41.6511154  44.0619278  47.4645281  34.4505644
  43.2122087  47.6493788  34.0505123  44.3301105  48.2973337  34.8388243
  60.9836721  24.3947744  43.6866665  60.5265999  24.0714908  42.9102659
  61.9022226  24.1734457  43.5333538  34.7386837  79.6801805  14.3556356
  34.2233753  78.9609003  13.9904976  35.6470156  79.4430399  14.1687477
  44.5858717  27.7823901  22.3550582  45.0870848  27.3643422  23.0552411
  45.2214432  27.9146624  21.6516471  14.1365135  13.6831582  69.0463209
  14.5870388  14.1047037  69.7781420  14.3950880  12.7633333  69.1037035
  51.4218378  62.4533606  64.2615747  51.7506266  62.8919077  63.4768438
  50.4718542  62.5615215  64.2161417  80.8508205  65.5425501  53.3738422
  80.7138920  66.2532759  54.0002251  81.1140919  65.9828997  52.5657511
  70.4240370   3.8259450   0.6378497  70.2833843   4.4464499  -0.0772883
  71.1298466   4.2132029   1.1556277  42.4433422  25.9714651   5.2800238
  41.9790936  25.3106833   4.7661462  42.1758032  25.8036709   6.1836278
  62.1709728  52.9045582  49.6300793  62.5317097  53.7885141  49.6987677
  61.9314241  52.6732206  50.5274820  63.0631781  69.7689581  43.5537815
  62.5054741  69.2738056  44.1538048  62.6232052  70.6138563  43.4599829
  41.5298557  63.4634066  43.8866997  41.7918777  64.2683744  44.3334723
  40.7581806  63.7121725  43.3779097   9.6298659  54.6363783  66.8870831
   8.9667654  55.2856016  66.6524792   9.4189394  54.3936014  67.7886391
  71.4874363  43.3915949  52.9161024  71.7801857  43.7204266  53.7660408
  72.1244621  42.7142000  52.6890230  18.4337807  72.5701046  34.7858334
  19.1947353  72.1118546  34.4292045  18.5391676  73.4747076  34.4911814
  19.0820384  79.5846367  16.4130580  19.2533636  78.6532736  16.5524745
  18.1647468  79.6214867  16.1420405  46.6461325  54.4067335  47.3157358
  47.4322176  54.0417337  46.9094372  46.9780397  54.9880409  47.9999495
  60.6360817  12.6931882  16.3499141  60.1077032  12.9575288  15.5968070
  60.8978748  11.7933881  16.1548316  34.0227270  25.3628778  29.0519309
  33.9617658  25.0535440  29.9557161  34.9306250  25.1923895  28.8011503
  18.4738338  32.8601074  56.7827559  18.8248098  33.7385654  56.6366148
  17.6250076  32.8646684  56.3403702  47.5197315  77.8546524  30.4639053
  46.7124414  78.2771492  30.1706362  47.3225975  76.9182920  30.4393411
   2.4064720  50.1271772  33.9876080   1.7377195  50.0324583  33.3093524
   2.7031413  49.2331934  34.1579556  63.1667566  66.5239382  57.0607233
  62.3621845  66.0969400  56.7665052  63.0450916  66.6408920  58.0029249
  48.9538574  51.4370537  13.8740647  48.4059000  51.8506527  14.5410824
  49.7205687  52.0062065  13.8072979  51.0713196  71.3099957  19.2140234
  51.6313314  72.0280838  19.5089293  51.1590385  70.6427717  19.8947179
   0.0070241  77.7953720  61.7020369   0.0982845  78.6421490  61.2651443
  -0.0666824  78.0121040  62.6314592  48.8870525   3.5871604  15.9167981
  49.8298883   3.4890646  16.0497189  48.5340977   2.7068269  16.0459030
  55.3211832   4.9669206  10.0873661  55.5491877   5.2389801  10.9763157
  55.1034975   4.0384248  10.1694620  10.6906915  37.3149085   2.0075589
  11.2329710  37.9528594   1.5436800   9.9680763  37.8303361   2.3658803
  44.7754192   3.3250499  33.3685374  44.7926474   3.0281562  32.4587083
  45.4804325   2.8364265  33.7933159  70.3319836  39.9163246  70.2765369
  70.2239704  38.9654922  70.2545834  69.9232149  40.1848793  71.0993481
  12.0179844  62.2658014   6.8300003  11.5712523  63.1062794   6.7287260
  12.8641617  62.4894857   7.2175348  21.1409545  64.4032526  17.5134671
  20.1886630  64.3861103  17.4181843  21.4139175  65.1945162  17.0491111
  63.1185818  17.3723137  25.6501007  63.3094978  17.9936528  26.3527513
  62.6142502  16.6782689  26.0745811  76.3670397  25.0961185  17.0431495
  75.7381201  25.4585171  16.4191592  77.0978689  24.7987175  16.5012360
  37.6292992  73.8620329  26.5241599  37.6002288  73.1197309  27.1277928
  36.7355204  73.9333725  26.1890459  30.9164381  79.7175217  22.4400043
  30.0211692  79.5873117  22.7526832  31.3335848  80.2452850  23.1209517
   2.9606497  61.7957163  19.7612298   3.4882379  61.9887018  20.5362391
   2.5846839  60.9329987  19.9361789  42.5874186  64.4840193  48.8977861
  43.3269644  64.1976690  49.4337940  41.8466330  63.9685440  49.2167664
  84.5418644   7.9608595  16.9605839  84.2696953   8.8731486  16.8611598
  84.0248203   7.6356226  17.6975524  65.8975410  82.0498562   7.8780639
  65.7036304  81.6893578   8.7433213  65.1737833  81.7521858   7.3268825
  58.6399841  62.2857952  18.7751555  58.3689165  62.3049831  17.8573406
  59.2736053  61.5699148  18.8228416  61.2398767  10.3327906  15.5540776
  61.7507648   9.5307028  15.4450893  60.3331280  10.0601470  15.4136908
  44.5290661  75.6315660  37.5007033  44.7410727  75.4595709  38.4181476
  44.0744495  76.4738178  37.5137639  52.5335312  71.5306854  26.2983918
  53.0470562  72.1686506  25.8028817  52.3651457  71.9588232  27.1377826
  43.8715601  61.2357235  23.3688259  42.9457664  61.0056686  23.4475994
  44.0983629  61.6109324  24.2197156  46.4535666  71.4343739  10.7153809
  46.8406010  72.3090267  10.7531774  46.6139603  71.1400318   9.8187941
  77.1352196  76.4021349  16.7051768  77.1076775  75.6939077  17.3485184
  76.6910315  77.1332264  17.1346307  32.1426153  34.5674372  64.2875004
  31.2620234  34.9279976  64.3913507  32.4167085  34.8521161  63.4156847
  83.6834240  11.5024841  66.5009689  84.5065212  11.4624643  66.0139894
  83.9227581  11.8858492  67.3447609  56.2177658  60.6985712  27.1430016
  56.7274189  60.0864077  27.6737928  55.4713249  60.1845789  26.8349981
  46.5364265   6.6633081   7.2437298  46.6461658   6.9227350   6.3289148
  45.7470798   6.1218661   7.2461069  30.3920603  45.8488512  62.4566698
  30.5643868  45.9118366  61.5172195  31.0032892  45.1812696  62.7680683
  77.7489948  67.4266911  35.4307818  77.5828886  67.4488783  36.3731980
  76.9393873  67.7519989  35.0371575  48.1206131  62.8754997  12.1325827
  47.5844765  63.4169865  12.7118778  48.9850712  63.2860088  12.1531630
  40.7245588   3.1233504  34.4722128  40.3826141   3.7243378  35.1341200
  41.3192034   3.6587715  33.9469004  19.6812534  11.3357961   7.6840633
  20.4769683  11.0301805   8.1195748  19.1730595  10.5398703   7.5276262
  80.4515362  64.5127535  25.9259796  79.7954178  64.7109747  26.5941477
  80.5755806  65.3393126  25.4594588  11.5159750  51.4476252  19.0791595
  10.8777142  51.3083172  19.7787654  11.4301658  50.6758451  18.5194945
   5.8682615  52.5228977  16.1845481   6.6939235  52.5602579  16.6673708
   5.7997549  51.6123819  15.8973205  27.8698063  39.5568180   7.7992433
  27.2756076  40.1700592   7.3667002  28.1234241  39.9998355   8.6089635
  33.9161420  63.0995083  10.6626177  34.2913318  63.9800930  10.6686020
  34.3550205  62.6571035   9.9360555  13.1068599  23.9496064   0.5139329
  12.6482952  24.0567636  -0.3194145  14.0101695  23.7519407   0.2665616
  35.4607415  27.9240441  39.7901273  34.5115829  28.0318999  39.7293282
  35.5971718  26.9773936  39.7517419  87.4441910  25.0429702  10.5147755
  87.7722549  24.6348333  11.3160443  87.3031044  24.3114305   9.9137974
  26.3889194   1.4736161   4.9598157  27.0508552   1.2223270   5.6039637
  25.7140207   0.7989269   5.0342345  17.1647000  48.5609245   7.8712040
  17.8817606  48.3922386   7.2599757  17.5990772  48.8044310   8.6886722
  27.5679183  55.6436872   4.8880705  27.8930926  55.1424980   5.6359357
  28.2736278  55.5965757   4.2430991  83.2355213  43.8816261  17.3773158
  83.0249023  44.7459555  17.7305877  82.5457668  43.7103796  16.7361057
  11.6346872  57.8228903  20.9133172  12.1914136  58.6012077  20.8906412
  12.0107174  57.2795343  21.6058469   3.4178233  38.5190296  15.2348280
   3.1973779  39.4079185  14.9564171   4.2400169  38.3241558  14.7851014
  76.7476797  38.1764507  42.4184322  76.7037773  39.1110349  42.2162914
  75.8468103  37.9355240  42.6343441  66.3221836   5.7762086  56.1600876
  66.0004950   4.9008194  56.3755941  65.5322075   6.3132018  56.0983372
  11.1145103  34.8568392   2.7086285  11.0099685  35.7951999   2.5512037
  11.0905218  34.7697139   3.6615533  19.8675513  65.8883286  52.6340580
  20.4401827  65.2080488  52.2797298  19.8973215  66.5894604  51.9830894
  10.3689170  52.4738979   3.7207025  10.6987607  53.3227587   3.4259734
   9.7912848  52.6831245   4.4547296  45.9753895  25.0749612  12.0193577
  45.3975534  25.1944208  12.7730620  46.5976810  25.7999563  12.0773566
  46.4884329  80.4707623  55.2654886  46.9485664  80.9179401  55.9757948
  47.0023680  80.6716347  54.4833422  10.5868185  53.1811047  22.9649878
  10.7259941  53.7346840  23.7333727  11.3429964  53.3549118  22.4044371
  20.0474191  64.5062447  39.4351792  20.2282763  64.3887949  40.3677702
  19.2028236  64.0768719  39.2990637  72.8218412  64.0598631  19.1646707
  71.9770432  63.6182928  19.2516649  73.1682110  64.0920782  20.0564218
  61.2780952  12.4586856  65.1795149  60.3369379  12.4263668  65.0080299
  61.4696932  13.3900607  65.2893400  84.1760921  50.2122927   5.8004898
  83.5840988  49.4602633   5.8156806  83.6814976  50.8974075   5.3507924
  31.0559940  45.2254963  19.1353202  31.2321997  44.2938185  19.2663002
  30.7603741  45.5359793  19.9911475  85.9447861  64.5371199  17.3339403
  86.6624737  64.3258810  16.7368317  85.7671070  63.7170124  17.7944684
  35.0188527  82.6416317  70.5600309  34.1731438  82.3931081  70.9331846
  34.8023495  83.0241484  69.7097158  70.3897333  10.9471178  57.5273037
  70.7314205  11.2501144  58.3685398  70.5977201  11.6535795  56.9158411
  25.3456616  65.9912062  45.0195265  25.3852654  65.2480316  45.6214857
  25.6917357  66.7270994  45.5244255  81.2021732  32.7367926  19.5718372
  81.5334606  33.1254768  20.3814077  80.9078979  33.4836698  19.0504873
   4.6942261  24.9893069  47.8817987   4.3265617  24.9452448  46.9991255
   4.7208983  24.0787911  48.1758785  20.1750422  53.5516405  25.5236149
  20.1476407  52.6115656  25.3454375  19.8000884  53.6403656  26.3998389
   4.4560006  36.5613174  63.3279228   5.1378918  37.1074915  63.7190104
   3.7944341  37.1837234  63.0259800  26.1893582  43.9338017  12.1932113
  26.8240047  44.3309402  11.5967727  26.5917039  44.0125751  13.0581641
  15.0014126  30.9477878   8.3772659  14.5057154  30.6752205   7.6051110
  14.3886769  30.8417487   9.1049629  11.1715746  73.0731010  16.9685650
  10.2236700  73.0264521  17.0931947  11.4629006  72.1619892  17.0037508
  24.7808671  14.9505448   8.8552356  24.8454809  15.0103974   9.8083746
  25.6373429  14.6260870   8.5770166  45.2541971   6.8054450  29.7304010
  45.9562922   6.4671898  30.2861691  45.6401253   6.8466276  28.8554168
  12.1400452  32.3584342  32.0277023  12.6012921  33.1896329  32.1399117
  12.1770799  32.1891475  31.0863185  77.7462864  46.7133045  42.4561930
  77.8386450  46.0909176  43.1775331  78.1578350  46.2776804  41.7098093
  74.7778702  30.9158659   8.8196439  74.2079926  31.5606904   9.2387766
  75.5356312  30.8521390   9.4009936  27.7271938  45.1614571  18.4168327
  28.1319404  46.0004997  18.1967795  28.2909608  44.5077753  18.0031919
  58.5380316   0.5785766   7.1441108  57.7300215   0.0726540   7.2301203
  58.9888191   0.1847868   6.3971508  71.3656807  62.9505014  28.3921313
  71.7352152  63.4191608  29.1404867  71.5482807  62.0284605  28.5730386
   8.2367319  67.9672146  22.1255374   7.8127474  68.7298584  21.7320347
   9.1574758  68.0504942  21.8774891   8.6196053  63.2075739  15.9426391
   9.3814373  63.4568834  16.4657915   7.8704149  63.5403061  16.4368427
  32.4509001  30.5602026   0.2311323  33.3665514  30.7456446   0.0227498
  32.4051976  30.6217289   1.1852589  31.8571925  39.5612073  14.2330444
  32.7652526  39.7270036  13.9797211  31.7811465  39.9357939  15.1106179
  83.6422157  34.7415733  70.6299591  83.9534187  34.4187713  71.4756441
  83.7059021  33.9852476  70.0467348  45.5820704  52.7605057   9.5352614
  45.9542608  52.8452635  10.4130566  44.6871948  53.0890512   9.6217901
   4.7374246  24.8483944  20.7050848   4.7715181  25.7992554  20.8096528
   5.5956733  24.6154523  20.3509974  41.6139698  17.6811540  52.7190924
  42.2531033  16.9927716  52.5350571  42.0394182  18.2339787  53.3745384
  84.8435307  54.9415541  11.5089333  85.5088425  55.3638124  12.0523441
  84.3582821  55.6675911  11.1169755  86.5118980  49.0554428  10.8105898
  86.7339611  49.6561861  10.0992382  87.2305679  49.1486359  11.4359355
  43.8605642  58.4242535  68.4186459  43.3823586  58.1022358  69.1827536
  43.9076710  57.6705599  67.8304625   9.4566727  45.7854557  16.4377785
  10.1607370  45.9051180  15.8004344   8.6952585  45.5429411  15.9108365
  32.9188633  71.1654949  57.8492785  31.9703197  71.0376596  57.8617764
  33.2618022  70.4690409  58.4092522  70.2452993  23.0139732  65.3122902
  70.5090714  22.1192026  65.0977182  69.5302010  23.2049417  64.7053337
  39.9600911  49.0336275   7.6312900  40.7461929  48.6655378   8.0347598
  39.6997380  49.7436428   8.2180810  77.4372768  11.8555224  21.0496473
  78.1871748  11.6027725  20.5111265  76.8512821  12.3113358  20.4454327
  20.9196568  38.1215405  39.1189981  21.1629581  37.8851295  38.2239318
  20.2937651  38.8383484  39.0156746  21.5601754  30.4826832  40.7166719
  22.0729017  30.9430361  40.0522757  22.0928478  29.7208548  40.9449482
   5.7924896  15.6702316  54.4890976   5.0915748  16.2801647  54.2590284
   5.4297894  14.8053408  54.2976665  78.7213945  10.1136482  39.2717314
  78.6941719  11.0690618  39.2200041  78.9938211   9.9301273  40.1708078
   2.3030253  63.3482075  28.8711596   1.3993156  63.2643223  28.5670137
   2.2609870  64.0012312  29.5697474  26.6589212  47.5676394  16.2429619
  26.0110545  48.2201290  16.5089619  27.3741841  47.6705647  16.8706882
  48.3358955  73.0904245  49.4192266  49.2430782  72.7959108  49.3385172
  48.4036160  73.9890051  49.7420263  84.3796349  21.1720514  65.8043718
  83.7734127  21.8653083  65.5433559  85.1825047  21.3604593  65.3184366
  68.1750774  66.8024349   2.6909330  67.3818445  66.5611696   3.1692705
  68.8823986  66.3629627   3.1629416  74.3608713   5.4556739  55.1640940
  74.4892502   5.5294740  54.2184210  74.0026140   6.3043612  55.4241228
  80.4607296  61.5380716  28.1079054  80.5823135  60.7386827  28.6201811
  81.2988949  61.9954395  28.1751442   0.8968043  39.1680026  22.0380044
   0.6179070  38.5541511  22.7174401   0.9054748  38.6480570  21.2343788
  23.8735008  73.7699223   8.4480816  23.3203888  73.0005121   8.3127749
  23.3977413  74.4843912   8.0245078  24.9686050  41.8230200   0.6647559
  25.4867721  41.9977856   1.4503703  25.3768587  42.3585939  -0.0154816
  62.0628023  66.7224264  21.1176467  62.2719908  66.8550301  22.0422506
  61.6172075  65.8756590  21.0919452  39.0274549  43.4588766   1.2569755
  39.9537206  43.2227421   1.3070127  39.0277076  44.3660212   0.9515033
  32.4043369  54.8365355  31.9969440  32.9433537  55.5789518  32.2699118
  32.5635982  54.1673660  32.6625824  42.5961733  77.6886511  67.2519970
  43.2942390  78.3432484  67.2310591  43.0524540  76.8497467  67.1865129
  19.3381155  47.9869270  34.5658207  18.4691548  47.9807854  34.9671960
  19.9259889  47.6958704  35.2629042  25.8485508  22.8288770  33.2448506
  24.9387646  22.5707102  33.0969644  25.8471346  23.2219505  34.1176176
  37.1240759  56.6697359  12.7344108  37.8363776  56.0362101  12.8210318
  37.3839211  57.2230625  11.9978368  28.8244224  74.3964577  21.0839105
  28.5433388  75.3113937  21.0944963  29.5263910  74.3690586  20.4337382
  22.6086593  69.9894524  31.7831016  23.1323814  70.0430679  32.5825214
  23.2504082  69.8619032  31.0844445  39.3120337  11.9709992  60.7736874
  40.1757956  12.1980453  61.1180592  39.1180229  11.1161530  61.1581707
  66.7600441   6.1222881  53.3085299  66.6598845   6.2550867  54.2511654
  67.1862078   5.2687174  53.2308531  76.9832993  75.7763624  67.4583244
  76.8391371  75.3686476  66.6043806  76.9149542  76.7161036  67.2896528
  57.2480869  35.7304835  13.3307457  56.6938591  36.2946439  12.7914953
  56.6621542  35.3988433  14.0111351  73.1482458  41.5380716  41.7370558
  72.2788763  41.2684298  41.4408827  73.0025196  41.8964958  42.6125717
   6.5173012  29.1647458  57.8197193   6.8527091  30.0521755  57.6924372
   7.3011065  28.6245704  57.9201746  10.6911206  43.1883764  16.9093978
  10.3139734  43.9189959  17.3994875  10.2083838  43.1798124  16.0828853
  23.6847758  61.4334631  11.2732840  24.3226433  61.4034557  10.5602241
  23.1638551  60.6381321  11.1622798  20.6279922  77.9047728  59.9846697
  19.8441446  77.5424671  59.5716906  21.2230611  78.0808353  59.2558813
  84.2150402   9.2132711  58.3327198  84.1623116   8.6705327  59.1194153
  83.9977837   8.6175036  57.6157188  75.1233053  15.0049317  40.7827044
  75.9854269  15.3871799  40.9466124  75.2911949  14.2895257  40.1693201
  25.2810287  57.3903656  14.5355248  24.9005675  58.2078362  14.8568106
  24.5839453  56.9895840  14.0162182   7.6703507   2.6001891  68.7269258
   7.1897644   3.1094587  69.3795490   8.4419399   3.1311381  68.5295057
  29.8640060  22.7144885   9.1862833  30.4583430  23.0368400   8.5087270
  30.0640273  23.2492852   9.9545372  16.3566124  52.0720243  21.9663310
  15.6091928  51.8618631  21.4064860  16.7436433  51.2225389  22.1780252
  33.5854769  64.9325991   5.9338206  34.5372677  64.9090290   6.0326731
  33.3831930  64.1770029   5.3821087  20.8471489   1.5221518  70.5677652
  21.4727211   1.8373482  69.9154282  21.0828400   0.6041366  70.7016659
   2.8500289  46.6463757  42.1699953   2.0085329  46.2043905  42.0570135
   2.6283243  47.5766325  42.2112942  25.4669476  30.6858492  13.2193875
  26.0424376  30.7715631  13.9794505  25.5206537  31.5352225  12.7813053
  53.4132147  21.7599654  10.3021610  53.2187510  21.7301178   9.3653971
  53.9758730  21.0006857  10.4542875  61.2730360  64.9628448  17.4195051
  61.4000559  64.2009068  16.8542182  60.3309774  65.1295948  17.3886395
   4.2618880  63.9208508  14.9125087   4.2124784  64.8099995  15.2635157
   3.6997852  63.4039402  15.4896367  86.3476086   2.2810440  66.5382385
  86.8692970   1.6410011  67.0223999  85.4564762   1.9325648  66.5642548
  75.7787657   0.8052202  44.9019194  75.7779074   1.7134748  44.5997524
  74.8714304   0.6364213  45.1558495  40.5241537  44.2449093  11.2968671
  40.2117777  44.8683262  10.6411171  39.8892784  43.5291195  11.2684262
  18.0112326  54.1457033   9.3781716  17.9764926  53.7838364   8.4926903
  18.9226794  54.4154119   9.4911015   2.0630009  34.3329740  22.6607251
   2.6749256  35.0421476  22.4636126   1.5099418  34.2704630  21.8819761
  16.1702764  55.5773973   7.4975359  16.7206168  55.1409864   8.1478447
  16.1258423  54.9594355   6.7678916  38.3905530  69.6868849  14.8342407
  38.9466119  70.4098320  14.5437586  38.5059309  69.6626997  15.7841539
  85.0200748  25.8924055  45.7953978  85.8199406  26.4062858  45.6841707
  84.3808365  26.3174915  45.2236319  60.2275085  48.2991934  66.1516571
  60.5742884  47.4911928  66.5299606  59.3320799  48.0785608  65.8952188
  21.3846207  70.1166773  20.8001566  21.8784785  69.9813938  19.9914336
  21.8522477  70.8193111  21.2516665  54.0933275  20.6386280  30.9879375
  54.9723387  20.9917784  31.1252332  53.9924622  20.6103873  30.0364876
  63.8847113  64.3033934  47.0132208  64.0443134  64.1769028  47.9485035
  63.5853386  63.4485722  46.7035723  39.4706988  62.4140835  64.2661285
  39.2253613  62.7736759  65.1186132  38.6569524  62.0515919  63.9159107
  20.5613804  40.5710268  29.3647027  21.1378336  41.1612988  29.8499990
  19.6774137  40.8650255  29.5847011   0.6711847  38.8478637  28.0252576
   0.6496380  37.9092193  27.8389406   0.1126542  38.9520240  28.7955999
  68.9650679  73.6222315   9.6618778  68.5670662  73.8008261  10.5138946
  68.3328104  73.9588118   9.0269005  51.3883305  82.3816872  43.7783051
  51.7462349  81.5183353  43.5715246  50.4406881  82.2487926  43.8016653
  27.5944996  38.3103967  25.7212186  28.0082774  38.9145303  25.1047421
  26.7757773  38.7415981  25.9661508  30.0174189  78.9098406  55.4333258
  30.6292081  79.6351576  55.5592966  30.2792501  78.2596922  56.0852337
  58.0834532  71.9284058  71.4400864  58.8896418  72.2080278  71.0063791
  58.1058216  72.3648834  72.2916842  72.3708582  25.0702524  65.0232124
  71.6882086  24.4127488  65.1570225  71.9761896  25.7075644  64.4279814
   3.4212905  75.2573442   9.1284561   2.8683895  75.9307766   8.7322015
   3.3781481  74.5218945   8.5173231  34.1293526  49.4801474   6.4203978
  34.1278791  48.7445879   7.0329207  35.0193882  49.8292255   6.4674437
   6.3632119  52.9805422  28.5466957   6.0250795  52.6761246  29.3888545
   6.6367751  52.1818542  28.0955982  17.5978363  61.0451651   7.2194254
  17.0817173  61.5957928   6.6306460  17.5155008  60.1633501   6.8563080
  28.6193037  65.7675362   5.6485015  29.3704796  66.0791016   6.1533731
  27.8577495  66.0292959   6.1659467  24.2254210  17.4549150  11.6443455
  23.4112883  17.4380994  11.1412168  24.1884732  16.6666770  12.1861470
  16.2284517  21.5515852  47.4523973  16.1958885  22.5079060  47.4275303
  15.3194857  21.2777162  47.3298836  19.8654902  50.3477335   1.1484788
  19.9759138  50.0811529   0.2358047  19.2624354  51.0900688   1.1098859
  15.6445551  70.7744503  14.1935182  15.9359252  71.5984535  14.5838380
  15.9990788  70.0976992  14.7701943  14.8737717  56.0165453  19.4387734
  14.3032873  55.4753542  19.9845684  14.4300520  56.0533571  18.5914314
  26.7976379   1.5266544   9.5685595  26.9550943   2.4704677   9.5429569
  26.1448717   1.4113790  10.2590954   0.1636570  47.4938822  20.1555800
   0.4225904  47.8558254  21.0030365   0.1732230  46.5458012  20.2870440
  53.6208344  45.6677103  12.9714763  54.4193268  46.1293888  13.2273972
  52.9472589  46.0105038  13.5588646  29.9892855  45.8132982  21.8231845
  30.1566195  45.5191755  22.7185750  29.4001198  46.5610790  21.9228768
  13.9977133  35.6314039  16.9711661  13.0481708  35.6340241  17.0919704
  14.1339326  36.0759234  16.1344576  64.1883564   7.9054290  63.8994646
  64.1800499   7.9762655  62.9449224  64.1916943   8.8119125  64.2068863
  71.8433571  44.3108749  25.1989603  71.0656309  44.2710686  24.6423721
  72.5680256  44.0894413  24.6141124  86.6816425  60.3704262  16.7288280
  87.3276806  60.4884481  16.0324526  86.0054684  59.8176765  16.3370669
   2.7745613  32.0803285  67.8201437   1.9656858  31.5696526  67.8542423
   2.4953431  32.9821014  67.9784966  22.6966000  52.6458645   6.4134705
  23.3320618  51.9458532   6.5631342  22.7393794  52.8108311   5.4715639
  39.9357986  28.8206673  69.6224022  39.0750265  29.0025473  69.2452765
  39.7460175  28.3867717  70.4542351  20.8590865  68.7236214  61.1172295
  20.9152865  69.0669680  62.0089626  19.9312198  68.5219765  60.9962559
  56.3169527  75.1693773  70.7996321  57.2722578  75.1378393  70.8509111
  56.0632467  74.2913246  70.5152225  44.3078852  79.2643929  70.4211283
  43.9369774  80.1365852  70.5550432  43.7435436  78.6832523  70.9310532
  49.9390554   0.9514411  59.8598051  50.2207947   1.8175370  60.1543093
  50.5899143   0.6975006  59.2054892  79.2062712  65.4328871   9.3897766
  79.7984219  66.0222197   9.8569793  78.5818911  65.1437235  10.0551832
  66.6074133  17.1310616  55.9989929  66.5185881  16.1819851  56.0861444
  65.7069159  17.4548590  55.9767485  37.4178720  55.4960585  21.4071059
  37.4419022  56.4437437  21.5395784  36.6614151  55.3528261  20.8383417
  46.7713451  19.9426258  67.8581715  47.4456549  19.4065380  68.2754803
  46.8450165  20.7958221  68.2857895  10.7122672  12.1510339  21.6048503
  10.3733456  12.5207818  20.7895899  11.4703095  11.6322541  21.3356447
   3.5724628  30.3224397  61.2787199   4.3023753  30.4737616  61.8791866
   3.0594790  31.1296630  61.3170576   0.5929986  36.2371945  11.0932541
  -0.0194650  36.9005513  10.7753265   0.1006666  35.7556438  11.7580473
  18.3328974  53.8998938  21.7920232  18.7544167  53.9518595  20.9342051
  17.6241326  53.2677174  21.6727114  14.3495548  64.4382668  19.1451359
  14.8593700  63.6294317  19.0993142  14.1590726  64.5488787  20.0766468
  58.7011766  38.6717367  61.7349768  58.4612799  39.5861530  61.5848970
  59.3523741  38.7068605  62.4356508  24.7666669  24.9745893   8.8551986
  25.6716371  24.9991202   8.5442996  24.8165965  25.2774644   9.7618437
  44.7489119  75.6566906  24.0482736  44.0260363  75.6813383  23.4213185
  44.9988699  76.5736771  24.1617942  17.3550951  59.1688108  15.3029168
  17.2242987  59.9300337  14.7375226  17.4716997  59.5379066  16.1783624
  15.5257571  40.4122353  34.1031933  15.4456663  41.0262251  33.3732390
  14.6272385  40.2822208  34.4064975  23.7415099  72.2632265  29.2184591
  23.9229250  73.1859493  29.3970919  22.8318644  72.1410036  29.4901872
  15.2146316  47.3361158  15.5072594  14.7419441  46.5040016  15.4877090
  16.0818958  47.1271324  15.1602578   9.9413383  37.8152919  14.3130088
  10.3208113  38.6804008  14.4673419  10.5629432  37.3819590  13.7281477
  25.9764433  32.6599956  23.6382151  26.2873125  33.4645867  23.2232118
  25.8195400  32.0597196  22.9093242  15.5894148  54.2113161  55.6558323
  15.6524134  54.8225784  54.9219227  15.0922990  53.4706593  55.3086567
  74.4289637  21.7218208  46.0292053  74.4138432  22.3954153  45.3492975
  73.5791302  21.2876225  45.9551334  77.9788017  10.3895104  62.8377819
  77.8571939  11.0482883  63.5214901  77.1717167   9.8751462  62.8545237
  36.7896771  55.6156635   0.8559327  36.0712171  55.5545664   0.2263974
  37.2299409  54.7675657   0.7999607   8.2641125  57.8894043  23.7158394
   8.4918129  58.2941294  22.8788304   7.6609308  58.5095453  24.1255116
  42.6829338  75.6008053   7.1561211  42.5144815  75.2787113   6.2706208
  43.1431293  76.4299583   7.0258826  46.5657759  69.8283958  21.8847489
  46.8251848  69.0309572  21.4231920  46.4225388  70.4712963  21.1902046
  64.5098686  28.4026623  55.3859806  63.9565468  29.1724515  55.5182219
  65.2802992  28.7374568  54.9270916   9.5124859  24.4578648   6.7047769
   9.6461040  24.6672821   7.6291806  10.3784704  24.5568466   6.3091695
  80.4407787  53.4303331  11.9346583  81.2563324  53.4961987  11.4378929
  79.8218966  53.0261183  11.3265300  12.9102910  76.4612341  23.9899325
  13.7718773  76.2938166  23.6080027  12.6194906  75.6068134  24.3087316
  20.8501649  44.2123175   3.2382557  20.0104880  43.9015245   3.5767573
  20.6165266  44.8880577   2.6018438  16.9807851   3.9675692  38.6959600
  16.8832779   3.6800402  39.6037340  17.2889662   4.8713353  38.7627697
  87.3389912  58.3320665  18.5843122  87.1615314  59.1907549  18.2003915
  88.0422020  58.4918308  19.2137587   8.2419086  69.2181015  27.5876832
   8.1848454  68.3503628  27.1876836   8.3150434  69.0448570  28.5262299
  30.2863193  25.3329158  44.7675133  30.5164504  26.0755539  44.2091608
  31.0325694  25.2379584  45.3593969  47.3815012  33.2946062  12.0338893
  47.6021051  33.8509989  12.7808785  46.6533756  33.7453723  11.6062558
  31.4084387  26.6029310   7.2552812  32.2780228  26.5857458   7.6549774
  31.0810637  25.7090545   7.3555005  31.3297582  63.4941387  14.7098351
  31.3229847  63.0277681  13.8739634  30.5362892  63.1979275  15.1558137
  12.8593624  76.5814686   3.5822922  13.1308615  76.2520313   4.4390249
  11.9126391  76.6993713   3.6600474  44.1107845  32.5739503  71.0019398
  44.3362665  32.9286098  70.1419353  44.0481853  31.6290426  70.8624315
  27.1100378   4.1466123  62.6628637  27.4636674   4.1603976  61.7734861
  26.2168407   3.8180822  62.5603962  22.8607130  37.5107741  16.6873097
  22.4156308  38.3398390  16.8627536  23.5004854  37.4280572  17.3944736
  45.4246187  67.0460415  12.4609268  45.5476665  66.2446499  12.9697144
  45.7714462  67.7407503  13.0206788  58.5672903  30.4187250  54.4708157
  58.4407949  29.6873355  53.8664150  58.0149651  31.1174607  54.1201925
   2.0700639  47.1672535   9.2177850   1.6314729  47.5342941   9.9853474
   1.3700587  46.7419004   8.7225091   7.8413188  74.2806196  15.9043956
   8.1961787  73.3960390  15.9928358   7.4681330  74.4760227  16.7639208
  35.1645803  15.8708394   2.2130497  34.6453428  15.1557326   1.8452930
  35.5009627  16.3398838   1.4494541  59.5572186  69.3259668  17.1374357
  60.2402782  68.7231731  17.4311996  59.1986561  69.6936417  17.9451978
  12.9238784   8.8899130  16.5629864  12.5582182   9.5286196  17.1750152
  12.1618271   8.5282129  16.1105680  20.0561547  81.6578579  30.9274530
  20.7025194  81.6383266  30.2217174  20.4310584  81.1025238  31.6110373
  46.9598055   0.9439217  10.1268291  46.6208601   0.3521732  10.7985318
  46.8478060   0.4640245   9.3062276   2.0678397   9.3602508  60.0474215
   2.6336208   9.7422761  59.3764639   1.4226905   8.8520545  59.5557356
  19.6883500  52.8351402   7.0363343  19.6586168  52.8395510   6.0796064
  20.6182790  52.9181719   7.2474468  24.3863416  64.7078943  23.6715674
  23.9824390  65.5526209  23.4727383  24.4054580  64.6707201  24.6278548
  61.5372324  81.4053535  47.0324135  62.3008204  81.4912128  46.4616299
  61.2962246  80.4809284  46.9726038  87.0532131   3.7670827  59.7199440
  87.8774643   4.2331663  59.8599815  86.3794804   4.3754086  60.0236750
  82.7451992  70.2796125  62.2566175  82.7829361  69.3695545  61.9623327
  82.0607567  70.6771994  61.7183828   8.7444526  72.1705484   6.2599438
   7.9998672  71.6379356   6.5394962   8.3629340  72.8305006   5.6810313
  28.1524444  44.9650717  10.4764426  29.1005445  44.8341417  10.4904842
  27.9137087  44.8882532   9.5526803  43.8128805  42.5238848  59.4544744
  44.1185904  41.6378307  59.6485710  44.5691442  43.0827332  59.6333122
  23.5988808  44.2350817  61.5165472  24.1343379  43.7225819  62.1222401
  22.8026557  44.4331503  62.0095253  33.0090141  70.3803873  12.6832032
  33.3985424  70.6712294  11.8586361  33.7538815  70.2698040  13.2741153
   8.9453679  20.1582885  34.1635227   8.9775664  19.6705794  33.3405185
   8.6780989  21.0412908  33.9083695  85.3549862  11.1683881  56.7453623
  84.9154472  10.4485118  57.1979332  85.7556820  10.7598233  55.9780598
  82.0906067  14.6104419  62.9590702  81.7295647  13.7242186  62.9812527
  82.9851437  14.5128787  63.2854271   3.8584980  39.2984223  65.4734182
   3.8863069  39.1937470  66.4244699   3.0614233  38.8412142  65.2053404
  18.9997256   8.5202956  66.6754484  19.2144108   7.5929296  66.5747786
  18.6887312   8.7893486  65.8110857  31.2746167  62.0973396  40.9159470
  30.8119297  62.5665665  41.6101980  30.5796075  61.7564058  40.3529549
  79.2893696  18.4574687  63.8240051  79.4113779  17.7402771  63.2019234
  78.7821722  18.0714405  64.5381165  33.7351012  68.3426285  40.0693226
  34.6582317  68.1003046  40.1424217  33.4680486  68.0125809  39.2114258
  21.6723180  63.6796045   8.0904549  22.1264291  63.2726574   7.3526132
  21.1869526  62.9623127   8.4980643  81.2947083  62.2591972   6.1842281
  81.5750122  61.6116333   5.5374479  81.0953999  63.0411577   5.6694061
  38.7041211  66.6327953  20.0728917  39.0277958  67.1012306  20.8423281
  38.7433815  67.2771406  19.3661356  20.2490449  49.3842602  11.6470146
  21.0050654  49.9478960  11.8112659  19.9838722  49.5941448  10.7515454
  40.7159042  52.7636957  13.4701145  40.6405544  52.9142475  14.4123924
  40.9142828  51.8305588  13.3917642  36.5759921  66.2191677  17.0487773
  37.4135327  65.8648062  16.7501342  36.4007092  65.7597351  17.8700161
  27.6149940  55.0670385  30.2799606  28.5176945  54.9914074  30.5892253
  27.5340700  54.3891144  29.6090627   6.8526971  11.6749334  53.1302452
   7.7685761  11.9020307  52.9695511   6.8769503  11.1184061  53.9086580
  53.8495445  51.0341787   8.9592600  53.0127907  51.4330530   9.1979617
  53.8610458  50.2013063   9.4308746  43.5826826  49.7367430  31.8803525
  43.0531549  50.4946661  32.1281004  44.1979599  49.6271372  32.6053691
  35.4072857   7.9155755  60.3359032  35.8011270   7.0591086  60.5019951
  34.4763660   7.7909929  60.5205727   9.8839772  69.3071461   4.8567280
   9.6116114  70.0797796   4.3616617  10.7044506  69.0358782   4.4450650
  39.9431705  78.2153845  34.2659044  40.4493952  78.7482834  33.6527228
  40.5846167  77.9186153  34.9114323  -0.0576291  47.0953608  54.6317196
   0.8145615  47.4868536  54.5843124   0.0973105  46.1544704  54.5483112
  47.4702597   0.9505995  36.9708180  46.7375898   0.9526928  37.5867915
  47.9473543   1.7577785  37.1633625  46.0423231  72.4884987  15.6940579
  45.9399891  73.1676531  16.3607764  46.9596434  72.5505543  15.4277778
  34.0630770  71.5289211  15.5133033  34.0323210  72.4856281  15.5123150
  33.1478906  71.2599468  15.5928028   4.0626606  21.9090748  32.4267936
   4.3945113  22.4241877  31.6914248   3.7534881  22.5610542  33.0557346
  38.8594747  60.2556467   4.7747123  38.3353949  60.7330990   5.4178369
  38.7877941  60.7752800   3.9740425  53.5043573  38.3673215  16.5840125
  53.5981941  38.8727736  17.3914433  54.4028378  38.2135582  16.2919140
  57.9744959  82.0657444  64.9236727  57.7070999  81.1605453  65.0828695
  58.6805296  82.2208023  65.5511332   4.7764307  30.2563620  28.0423641
   4.6522176  30.4429650  28.9729476   5.7184303  30.1135063  27.9503846
  25.0717974  19.9358845  50.3678560  24.9841785  19.0452683  50.0282145
  25.2157354  19.8209286  51.3071632  18.9502454  18.5473526  69.1407108
  19.6902752  18.7533844  68.5696268  18.9190662  17.5907934  69.1566563
  63.8034773  40.2999878  22.9544902  62.8681898  40.4356718  22.8026628
  63.9174795  39.3504763  22.9136848  15.1569760  10.7839704  69.0342808
  14.6000850  10.2871513  68.4348869  15.6146526  10.1162124  69.5450258
   6.1483145  32.2705793  19.7681856   6.5713674  33.0555582  19.4202387
   5.6242263  32.5871086  20.5039668  34.1211176  62.8795910  37.4397993
  33.6489439  63.5911703  37.8721666  33.7195349  62.8175354  36.5731311
  54.2829847  63.5218000  19.4151342  53.4128618  63.1370258  19.5203614
  54.8864603  62.8183365  19.6542799   9.6895772  11.7443371  52.6498032
  10.0209665  11.3866746  53.4735060  10.4643822  12.0989633  52.2137403
  37.9534936  26.9505501  21.1163616  38.1107783  27.8365517  21.4426923
  38.3667135  26.9364023  20.2530646  55.2306318  46.4615297   8.7944108
  56.1492491  46.7181635   8.7137270  55.1217937  45.7569599   8.1556880
  43.1955814  80.4384613  30.2945495  42.2552967  80.5797863  30.4046297
  43.5974693  80.9347248  31.0076022  30.0416589  81.4044380  17.9554975
  30.8283710  81.4316463  17.4109101  29.4453263  82.0315075  17.5463521
  30.6707501  58.5191107   7.5863802  30.4446340  58.1104565   8.4219074
  31.5990257  58.7372017   7.6698732  30.5496430  49.2029476  14.5457828
  29.7304106  49.5265102  14.1710901  30.7163072  49.7797060  15.2913058
  24.2721057  39.6500301  55.6280279  24.9211669  39.4123244  54.9658728
  24.6471930  39.3412638  56.4527702  76.0412788  77.0557642   0.4309369
  76.8270445  77.2539949  -0.0784867  76.0949373  77.6366949   1.1897969
  87.2380352  46.1554146  68.3347130  87.6167965  45.3555965  68.6994886
  86.3009930  46.0806513  68.5152674   9.2449838  74.8989868  32.0174026
   8.3601737  74.8277807  31.6592526   9.1843265  75.5981255  32.6683760
  25.5343866   1.9954889  69.7853041  25.7248569   1.3656572  70.4804802
  26.0909486   2.7482143  69.9849987  18.2882893  36.3906288  21.1159945
  18.2058668  36.1778879  22.0456076  17.3879457  36.3973284  20.7910824
   5.4949099  45.2952147   9.9581528   5.8549845  45.1123428  10.8259869
   6.2527442  45.2689362   9.3740046  12.2654283  32.5097108  70.9529257
  12.0209682  32.9545617  70.1413965  13.2197332  32.5769329  70.9848118
  57.9771996   7.1435070  12.5348592  58.5209513   7.0249277  13.3136451
  57.2758579   6.4993840  12.6320827  62.1291399   7.3577511  37.1295404
  61.4329815   7.6692867  36.5511417  62.2502661   8.0662107  37.7617168
  33.1600332  35.3622699  52.2197819  33.6555243  35.1701164  51.4236689
  33.6757517  34.9688506  52.9236937  14.9264514  31.9043064  30.1010036
  15.7030463  32.1020484  30.6244826  14.9149108  30.9490561  30.0410104
  36.4090061  68.4130955  20.9923983  36.2198782  68.8547802  21.8202734
  35.9836578  67.5594568  21.0737300  85.6848049  60.9437609  67.3852682
  85.6074142  60.5462599  66.5179539  85.7200146  61.8850470  67.2150564
  81.0876560  37.5719666  61.8099213  81.0013676  38.0287385  60.9731722
  80.3237152  37.8506923  62.3148394  47.5292444  52.3652172  20.7076120
  47.0420885  52.7100134  19.9592626  46.8556929  52.0182133  21.2925482
  78.6620092  54.6493292  19.5754743  78.8214493  55.5931568  19.5739043
  78.6218691  54.4147444  20.5026150  83.8058662  50.1448202  64.7843933
  84.5479488  50.3537512  64.2170334  83.5725594  49.2459679  64.5523119
   3.5260123  73.4121990  25.6560755   4.0835172  73.2862234  24.8882532
   3.0971202  72.5657988  25.7821178  44.5337439  71.9610977   6.1279845
  45.1479769  72.4215174   6.6997933  45.0728798  71.3211489   5.6631947
  34.6825767  64.1179752  69.9382210  35.4855227  64.4012833  70.3755379
  33.9893460  64.6294069  70.3554773   9.9636686  16.3477981  67.0212412
  10.1325619  16.1710775  66.0957813  10.6964099  15.9379375  67.4809504
  25.9041548  54.8566628  12.7857697  25.7008171  55.5085468  12.1149993
  26.5690804  54.2980909  12.3831487  56.6681147  73.5540962   0.0568354
  57.2574282  73.3889532   0.7928159  56.9298506  72.9164362  -0.6073280
  42.1391630  75.7283163  14.1106236  42.0720339  75.0432491  13.4454834
  42.0655727  76.5467691  13.6197603  23.9736915  77.7913284  47.2090197
  24.3746233  77.4133348  46.4263296  24.4129467  78.6345530  47.3197174
  82.2195721  68.0233335  15.9980822  82.9646015  67.4427891  15.8427167
  81.5195274  67.6660824  15.4516912  40.6834459  66.6138649  35.1017404
  40.7272148  66.5173244  36.0530543  41.5920210  66.7492294  34.8326802
   2.6701990  63.1061220   1.9522339   2.6707923  63.0231810   0.9986342
   2.4138387  64.0141439   2.1135134  45.4011059  36.6609120   0.6368656
  44.6583176  37.0686173   0.1915847  46.1674929  36.9613314   0.1483684
  54.3563032  56.0971022  26.7321110  54.6983194  55.5879259  27.4669552
  53.9925909  55.4425526  26.1358666  24.2125463  78.9443493  42.5902271
  23.6196470  79.4002056  43.1876373  24.2226577  78.0407810  42.9059744
  53.2183933  18.9123571  25.5945849  53.3721066  17.9771411  25.7286572
  53.0100346  18.9897811  24.6635532  18.3541977  70.7047176  20.0314450
  19.1715252  70.6890202  20.5294013  18.0244267  71.5966845  20.1404285
  86.9744301  78.6289978  64.2241573  86.7938137  78.0904961  64.9946260
  87.2067738  79.4865131  64.5804071  38.2424760  36.8233776   6.9132125
  39.1832948  36.8519402   6.7392194  38.0737972  37.6002765   7.4463230
  71.5367427   0.3960388  25.7969213  71.5725723  -0.2334054  26.5171623
  71.1003223  -0.0760300  25.0877547  20.5660152  70.3379440  44.6469593
  20.3806043  70.0966930  45.5545139  19.7109652  70.3273106  44.2168331
  17.6052034  43.7062120  45.7947397  18.0423820  43.0078793  46.2820148
  18.2371855  43.9611053  45.1225376  33.8016891  62.8046227   3.6479220
  32.8696156  62.7650881   3.4336582  34.2259073  62.2793388   2.9694352
  53.3697987  81.1328030  57.9514313  53.0730438  82.0100784  57.7094507
  53.8696480  81.2628460  58.7573290  29.5013285  70.4156399  26.9982982
  30.4312468  70.4397297  27.2239184  29.2704415  71.3303041  26.8361139
  22.5223064  81.0027313  14.5213616  22.9906964  81.0937119  13.6915624
  21.6082215  80.8749771  14.2676735  43.1706095  19.8266530  18.0064273
  42.6460886  19.4552624  17.2970772  42.9019451  19.3377471  18.7842596
  18.4584618  41.7410707  14.9194658  19.1874933  42.1159410  14.4252861
  17.8676295  42.4786949  15.0713170   7.6798713  29.8435235  27.7106524
   8.3663470  29.5446968  28.3070469   7.8141409  30.7890129  27.6454329
  87.3986340  68.7066460  12.5377274  87.5156784  68.0945396  13.2642674
  87.4673653  69.5722961  12.9404128  20.5081439  70.6661510   5.4986805
  19.7119904  71.1822891   5.3723079  20.1978564  69.8261166   5.8367628
  42.5294781   8.3608669   6.2927008  42.5230980   7.5512481   5.7821053
  41.7193794   8.8065821   6.0450900  26.9779158  37.8497839  20.8921719
  26.4997602  37.8974485  21.7200160  27.2327065  38.7543511  20.7103157
  24.4668698  39.8179102  44.1427183  23.5425019  40.0339794  44.0198755
  24.6786761  40.1573658  45.0122786  78.6603498  13.1568503  28.9470816
  79.4166279  13.3221579  28.3841038  78.9958048  13.2657790  29.8369336
  68.7004089  25.8418989  40.6838417  68.1782627  26.2830400  40.0137758
  69.2003727  25.1827288  40.2024221  33.3226562  60.0286770  30.6010652
  32.9584146  60.1258755  31.4809036  33.2760096  60.9072924  30.2241182
  70.2336121  77.9611444  11.8402183  69.6044683  77.4868011  12.3837352
  70.9233713  77.3225498  11.6595054  82.2700119  27.1829247  27.0500326
  82.5215435  26.9161391  27.9342222  83.0796146  27.5123405  26.6598272
  61.6971350  29.7145009  58.0547523  60.8801746  29.5305324  58.5183907
  61.4471102  30.3265405  57.3625612  45.4400396  63.3154678   9.5354098
  46.1996222  62.7417755   9.6361423  45.7901239  64.1988564   9.6507078
  20.2599454  62.5097513  14.3987393  20.3053617  61.7810154  13.7797809
  21.0671949  62.4416256  14.9085808  19.0121019  25.6997895  56.3289165
  18.3342683  25.3703809  55.7387781  18.6099350  26.4552164  56.7576647
  41.7085886  47.3499393  16.0859811  40.8997631  47.5793743  15.6283867
  41.6455698  47.8042173  16.9261551  13.2696283  30.2411318  53.7004900
  12.4727678  29.7898865  53.9790964  13.8741493  30.1351857  54.4350386
  40.6159496  47.7156210   5.2372396  40.0714684  48.1044674   4.5527217
  40.7103205  48.4086132   5.8907610  69.2313528  73.6676311  52.8988552
  69.8338652  73.1138086  52.4023771  69.7100925  73.8854933  53.6985874
  21.1527896  51.4517546  33.5929227  22.0323372  51.3655853  33.9606214
  20.9655738  50.5921268  33.2157969  30.2246356  71.2681341   0.3648421
  30.2733493  70.5428648   0.9876147  30.7530594  71.9605589   0.7617626
  48.3684349  12.0377612  60.5462408  48.9584112  12.4219429  61.1947489
  47.8147221  12.7661276  60.2649689  47.9652071  27.2791600  66.3155699
  47.0904255  27.6509881  66.4284372  48.4416819  27.5448155  67.1021032
  59.2321062  21.9600391  56.1223269  58.7822771  22.4914670  55.4654646
  59.2397356  21.0773969  55.7520390   9.1254574  52.7406073  55.2243328
   8.4118980  52.7432966  54.5863247   9.1744536  53.6454582  55.5326891
  60.8454084  58.0334997  28.5310721  60.4123783  58.6027956  29.1671681
  61.6521692  58.4965849  28.3054137  74.5388937   5.5790102  69.4947767
  75.2700186   6.0635698  69.1115093  74.8189592   5.3919953  70.3907776
  19.1766274  46.6497374  16.1158645  18.9490795  46.6765928  15.1864922
  20.1297545  46.5622044  16.1266553  20.2623200  56.6680861  17.6427686
  20.2446032  55.9981155  18.3261883  19.9410832  57.4595165  18.0748296
  40.4077005  54.6982002  20.9768176  40.1798153  54.9484539  21.8721819
  40.6111431  55.5258989  20.5412054  35.2714753  48.5569477   2.5075987
  35.5556583  47.8342056   3.0671611  34.3154693  48.5272741   2.5450787
  62.2464037  48.8120079  21.3166428  62.0742178  48.2220793  22.0505142
  63.0286407  49.2977142  21.5782189  32.8687596  38.1332874  18.7372267
  32.9974985  37.6436687  19.5495880  33.0466819  37.4978518  18.0438304
  87.0412636  29.4510388  10.3661501  86.7144012  29.6655178   9.4924289
  87.6855946  30.1332593  10.5549657  75.1646376  60.2590418  30.4574800
  75.3927183  59.4179583  30.8534431  75.9858465  60.5781460  30.0832820
   1.3974275  71.9219160   9.1472358   1.2727045  71.0768461   9.5791328
   2.3394835  71.9712400   8.9849722  40.7672501  37.1562743   6.3018924
  41.4025068  37.8074908   6.5995365  41.2353468  36.6516066   5.6367421
  23.1409454  70.8430338  44.9625301  22.3263407  70.3804398  44.7659111
  23.2706189  70.7111120  45.9016848  33.9912701  66.9548273  30.0149584
  33.3492017  66.3336182  29.6713281  34.4173551  66.4864111  30.7327843
  39.2724729   9.6723437  19.1363943  40.0156879   9.6830767  18.5332787
  39.0354681   8.7477183  19.2080081   5.0184649  35.1681757  66.0733175
   5.2743489  34.8188686  65.2196550   4.0835050  35.3536725  65.9857225
  26.2989998  73.1999636  20.3099465  26.4579105  72.2624159  20.2004838
  27.0832157  73.5258579  20.7515693   0.4782698   9.6477687  10.5041683
   0.1090759   8.8411766  10.1445341  -0.1936038   9.9721658  11.1038220
  75.9825563  59.3951035  10.1495874  75.3453970  58.8177633  10.5702305
  76.4958572  58.8155651   9.5866561  11.0778761  61.8410492  51.1335659
  11.5732253  61.4446163  50.4168367  11.0686398  62.7762604  50.9297752
  60.2768326  64.7937012  44.9392796  61.0528564  64.7748947  44.3792200
  59.6009636  65.2022409  44.3984270  57.3059177   8.6984313  57.0796347
  57.2219610   8.0795538  57.8050137  57.6186752   8.1677264  56.3469887
  55.1661015  58.7912273  43.6755991  54.9234343  57.9293108  43.3373070
  55.4677773  59.2742443  42.9062414  14.3850982  17.8171134  67.8187847
  15.1749265  17.9091156  67.2859240  13.7308884  18.3544409  67.3721027
  48.6262989  23.5409236  23.5714555  48.5524178  24.3324924  23.0383611
  48.0201864  23.6842346  24.2983127  40.8592939  59.2738914  39.2014170
  40.2145243  59.0425634  38.5328460  41.1357784  60.1608038  38.9708090
  53.2972860  16.0609090  22.5241852  53.8604498  15.3413200  22.8092718
  53.8399982  16.8432224  22.6225758   0.9514436   0.4885517  71.8716082
   0.7887063  -0.4542602  71.9008921   0.4633054   0.7922016  71.1062666
  51.4554167  61.7745352  22.6819897  52.1228218  61.8968391  23.3571506
  50.6719351  61.5110302  23.1646395  42.3696947  79.9180889  21.0581040
  42.4956608  80.3932190  21.8794513  41.6889048  80.4098988  20.5988860
   7.1466374  42.6785183  66.8790197   7.7987856  42.5072241  67.5584269
   6.9506037  41.8163300  66.5123701  41.9761419  27.1547651  10.0870657
  42.7582121  27.6520348  10.3264761  42.3145580  26.3603354   9.6740431
  73.1322384  77.2679090   8.2669753  73.4997892  78.0344629   7.8270543
  73.3474922  76.5347528   7.6904488  11.3242090  14.8451090  23.0211210
  10.8836663  14.7462761  23.8651490  12.1772647  14.4292748  23.1460547
  23.1159496  74.4272947  65.7452631  22.9283929  75.1525784  66.3410997
  23.6008835  73.7979889  66.2791634   9.6721905   0.5849170  44.6504450
   8.9460301   0.8865757  44.1046238   9.8178703  -0.3205265  44.3762541
  71.0777950  77.1445513  51.2875748  71.0325432  77.3510933  52.2211266
  71.2906742  77.9780912  50.8679008  38.2334304  18.0852950  39.4963217
  38.0974841  19.0324986  39.5198894  37.5330687  17.7567625  38.9325905
   4.9025819  59.7219515   9.1092706   4.6759906  59.2826509   9.9289662
   5.1879686  60.5956078   9.3766934  16.6019511   2.4995132  12.9185724
  16.8663692   1.9537465  12.1779966  17.1035445   3.3077201  12.8116274
  19.8099184  71.4887285  17.7292025  20.5464268  71.6948557  18.3047879
  19.2663646  70.8896542  18.2409573  56.3642216  82.3172092  21.9477487
  55.8183622  82.7772522  21.3100743  56.8064594  83.0145836  22.4318266
  12.5279379  54.4928026   0.0250911  13.1415462  53.7775230  -0.1425180
  11.8204856  54.0886927   0.5275230  74.1285229  24.3240929  13.6992383
  74.0960836  25.0555253  13.0826449  73.3218431  23.8359094  13.5343885
  49.6605206  11.5723538  28.4414458  48.9122057  11.8823826  28.9514875
  49.6106386  12.0625460  27.6208019  72.0562983  80.9082413  58.9676380
  71.1893034  81.0429192  58.5849953  71.9015884  80.3281593  59.7131586
  81.7140484  47.6023960  35.3251028  81.7337799  48.5516453  35.2035689
  81.0072422  47.4560642  35.9537840  59.1903687   6.7890441  33.2335401
  60.1350117   6.7172098  33.3703876  59.0555620   7.6981598  32.9660177
  12.6816809  12.6955521   8.9009827  11.7474651  12.5169885   9.0086257
  13.0838692  11.8301737   8.8261586  36.9931531  73.3127737  11.4981902
  37.3085642  73.1191158  10.6154418  37.0089126  74.2682171  11.5539300
  45.8155680  81.5350914  47.6701403  46.0374308  82.4280930  47.9338741
  46.5890312  81.2253666  47.1989059  18.5907030  74.6108103  37.1600318
  18.4464705  74.7500992  38.0959964  17.8895247  75.1035833  36.7337012
  61.1200190  11.5899277   6.4398998  60.8464384  12.4959183   6.2964863
  60.3094053  11.1248720   6.6469353  58.4900904  27.1644902  67.3932505
  59.1058254  27.4592280  66.7222548  57.6982355  26.9343758  66.9072008
   8.4364212  24.6506476  69.9204969   7.6466405  25.1762104  70.0480175
   9.1087216  25.1005578  70.4321814  14.2042542  37.9236007  59.7106361
  13.9011741  37.1932578  60.2500534  13.4026849  38.3757782  59.4474697
  13.5528576  34.3175793  53.6750984  12.9561222  33.7793350  53.1550694
  13.1183290  34.4056439  54.5234299  37.3910236  52.2815084  13.1127584
  37.8110504  51.4214182  13.1053817  37.0266676  52.3776722  12.2328568
  24.5690322  78.1267977  19.7870898  24.7504950  78.3961296  18.8866663
  23.8170934  78.6580133  20.0490618  54.5184612   7.8657949  39.7906947
  55.2381611   7.5809312  39.2275620  53.9640617   8.3980024  39.2200565
  22.0307803  80.7101250  17.5349391  22.1827388  81.0642433  18.4111476
  21.4344454  79.9744177  17.6740432  73.4998608   8.8289481   4.7426555
  73.5676861   9.1229427   5.6510597  72.8146076   8.1607902   4.7576833
  58.4616709  13.1251431  25.7707214  58.4020710  13.3092332  26.7081594
  59.3365288  13.4243083  25.5230308  59.9997520  43.0553675  69.2106724
  59.9606037  43.4350204  70.0884914  59.5725584  43.7031984  68.6502647
  27.9931784  47.5790405  68.5577774  28.3472896  47.0620203  69.2813301
  27.9442811  48.4708309  68.9020872  61.4155483  19.9765623  29.7227335
  61.8325043  19.9976528  30.5840898  61.0854292  20.8658504  29.5945978
  49.9670506  34.5470428   1.5275237  49.0198660  34.6409225   1.6288197
  50.0825024  33.6736512   1.1532377  78.6856461  16.1401701  18.5586047
  78.1576347  16.0983026  19.3559015  78.1021976  16.5255165  17.9049027
  76.2829733  54.5940304  66.9354582  76.1291409  53.7066460  66.6112328
  76.1147308  54.5378733  67.8760815  86.4284134  80.6409931  21.8228126
  86.7012596  79.8464870  21.3639641  86.9288158  80.6301880  22.6387239
  52.9796934   7.3541230  21.7286992  53.7421846   6.8175924  21.5119672
  53.3478880   8.1946069  22.0011950  18.1779575  67.2913599  44.0150261
  18.7319613  67.2152424  44.7918892  18.6960459  66.8993902  43.3120441
  53.1131411  38.9738727  11.3210750  53.5098553  39.8377085  11.2086618
  52.5233603  38.8819528  10.5727804  71.8389893  73.6111784  10.2613699
  70.8901453  73.6794710  10.1552308  71.9680262  72.7932310  10.7415211
  21.3546228  69.4366264  35.0357914  22.1476650  68.9525032  34.8057055
  20.6418061  68.9231825  34.6556592  76.4280176  63.7249899  27.6546383
  75.6443119  63.2573462  27.3659396  76.8102980  64.0721464  26.8486762
  22.1355820  33.4869599  13.5475385  22.1069932  34.0789247  14.2991984
  21.5041542  33.8544607  12.9290938  24.6646190  39.3888116  30.8532810
  24.0014291  38.9381003  31.3760328  24.2578840  40.2226400  30.6176305
  52.2792292  32.5311637   6.3486058  51.9032955  31.6943288   6.0754502
  53.2040310  32.3390412   6.5037179  51.5042830  36.5995097  57.8079414
  51.6695690  35.6983137  58.0849934  51.6877699  37.1266246  58.5855770
   7.9007888  30.5338430   3.1202817   7.2603744  31.1153889   2.7105176
   8.5898262  31.1195040   3.4340692  34.9575043  52.6502752   1.5987632
  34.9298859  52.9783249   0.6999562  34.0399861  52.6152897   1.8692587
  77.2365713  15.3196514  67.1406889  77.4446344  15.4901850  68.0593061
  76.3053226  15.0982893  67.1431351  50.0302076  13.8791585  38.2082176
  50.3936863  13.2836258  37.5528884  49.9080372  14.7049534  37.7398515
  60.4409456  26.5396214   6.0436916  59.9041939  27.1998167   6.4821821
  60.0636005  26.4678955   5.1669377  30.4791594  50.3453732   8.9210731
  29.8200130  50.9867334   9.1864341  30.8263421  50.6858540   8.0965912
  51.8708229  60.5518198  28.0290318  51.9156694  61.3910437  27.5708604
  51.0319614  60.1769543  27.7606773   4.1298196   0.3324337  61.5350342
   4.2518830  -0.5996711  61.7153454   3.7005398   0.6739244  62.3194647
  55.2155685   6.9039494   4.8192617  55.6051302   7.3872507   5.5478883
  55.0873518   6.0187984   5.1602900  78.1624794  33.7497020   9.2075592
  78.9028215  34.1642928   9.6505493  78.5628366  33.1043386   8.6249322
  51.2923956  20.9187651  22.5901771  50.6908941  20.3330541  23.0499291
  52.1356726  20.4667854  22.6189733   0.1266727  37.0700526  64.8978662
   0.9130768  37.1930933  64.3662071  -0.1822811  37.9580164  65.0775909
  49.8444510   2.2158323  62.9681301  49.5241356   2.6782691  63.7425900
  50.0415707   1.3328911  63.2808447  47.0434237  35.9230065   8.7136674
  47.0494318  35.9965014   9.6680224  46.4768648  35.1725078   8.5348046
  36.5018415  29.5437574  66.3006687  35.5746293  29.7487116  66.4210987
  36.7987943  30.1612902  65.6323099  49.0193796   1.7975064  19.5805418
  49.0478945   2.6868945  19.2278278  48.4678650   1.3136169  18.9657915
  80.0376415  67.0214081  19.0410101  79.4314146  67.5898027  18.5659909
  79.7150612  67.0271444  19.9421978  16.1522615  52.4184799  10.7818222
  16.3606501  52.4706364  11.7146063  16.7293084  53.0623531  10.3711224
  36.7678118  36.6628551  33.6535501  36.6119766  37.5691938  33.9190555
  35.8926988  36.2848854  33.5666704  80.6933975  74.8048162  68.2269192
  81.1966228  74.2346811  67.6455879  81.2852669  74.9844837  68.9574242
  27.6463652  52.3608732  16.7662525  27.7552915  53.3090687  16.6934681
  26.9406891  52.1531391  16.1537981  17.4190331  44.9587917  50.2728510
  18.1062782  45.5351496  50.6071234  16.6069043  45.4430676  50.4217005
  32.0824528  65.1515913  28.7764955  31.3273787  65.4085255  28.2472706
  32.7654886  64.9495316  28.1370711  37.2955132  47.8383064   0.5077485
  37.3841619  48.2184267  -0.3662547  36.4224839  48.1036854   0.7969280
  51.0554218  78.6920071  68.6462259  50.4327774  78.0114794  68.3904457
  50.5692530  79.2432451  69.2594194  33.9772463  41.5157890  10.2264798
  33.3366203  41.7001629   9.5395756  33.5995054  40.7854271  10.7164931
   7.1831518   7.1132928  65.2827358   7.5761664   6.5137672  64.6484327
   6.3728899   7.4059445  64.8655272  64.4826078  81.8069363  45.8807278
  63.9952707  82.0536804  45.0946951  64.3219328  80.8682823  45.9773540
  84.2071056  81.5996647  54.8269081  84.8255730  81.9841862  54.2057085
  83.4254932  82.1477890  54.7570848  24.9825144  20.0486541   9.5852101
  25.8630228  20.4087257   9.4789797  25.1238656  19.1188741   9.7634280
  47.4586487  80.5860901  42.1282673  46.9698954  81.1558151  41.5343237
  46.8270683  79.9169922  42.3921824   2.2318935  15.6334615  63.3797646
   2.8214988  16.0929465  62.7818727   1.3632229  15.9766483  63.1703186
   3.6583000   5.7807773  65.2813005   4.2446974   6.3744372  64.8123264
   3.3282205   6.2999362  66.0146189   7.4185801  54.3067646  13.0696046
   7.7365756  53.4113264  13.1849456   7.8984731  54.8172283  13.7218010
  42.2359037  15.5043685  18.1511116  42.1147537  14.5858216  18.3915842
  42.6899576  15.8901930  18.9002454  65.1792288  79.2337990  48.5635662
  65.1049948  80.1826382  48.6657047  64.7432041  79.0475702  47.7320385
   9.3605369  30.6247401   9.9668539   9.5965654  31.3445950  10.5519450
   8.7289017  31.0080123   9.3582714  73.5311270  70.2865267  64.3767977
  73.3130169  71.1669779  64.6825171  73.7822771  70.4063654  63.4609413
  19.0800881  79.2042542  10.6895816  19.2567360  78.3922482  10.2145350
  19.9428284  79.5112276  10.9682882  83.6709785  21.7860126  55.8661985
  82.7541637  21.7763019  55.5912685  83.6543465  22.1721148  56.7419195
  52.7296638  40.9018850  17.8682661  53.2438469  40.9298658  18.6751521
  53.1871796  41.4946842  17.2720277  35.0074673  78.0799103   8.0878085
  34.1021585  78.3630371   7.9594076  35.3677201  78.0207968   7.2029608
  28.1377172  10.0817049  39.5936942  27.8500676  10.7437170  40.2223682
  27.4154043   9.4545794  39.5589089  29.0043926   6.0367227  49.9742746
  28.2984900   6.6384113  49.7378349  29.2009830   6.2452263  50.8875704
  26.5499949  26.9258881  71.5496778  26.1306024  26.1523008  71.9263792
  27.1609426  26.5753961  70.9015036  81.6101170   9.4519717  60.1160860
  80.9203434   9.2073375  60.7330036  82.2497177   8.7425518  60.1782846
  81.9626045  28.0106950  63.5726547  82.9129601  28.0497718  63.4653378
  81.7980099  28.4451485  64.4095469  74.1910219   9.2425108  60.6950569
  74.6448851  10.0807917  60.7817936  74.0310574   8.9623839  61.5962648
  32.7484870  22.6980090  44.1771650  33.5288930  23.1021452  44.5564699
  32.0172668  23.1153035  44.6325922  11.6093063  24.9474382  58.0745649
  12.1076882  24.2445302  57.6577139  10.7215917  24.5979762  58.1524849
  80.0505733  82.4223709  45.6563473  79.2974997  82.4088192  45.0656414
  80.7662296  82.0507812  45.1406145  19.7434449  52.9758453   2.9595989
  18.9105809  52.6377678   2.6305506  19.5554662  53.8830996   3.1999901
  56.0883951  39.7510815   2.1908602  56.2361574  40.5296850   2.7276796
  55.2010202  39.8606586   1.8491127  76.6594315  42.0513535  70.3416204
  75.9607840  41.8537951  69.7178507  76.2951088  42.7385092  70.8995819
   6.4535600   0.0877133  65.4465580   6.3689744   1.0216475  65.6385040
   6.1875892  -0.3482461  66.2561417  71.0013151  77.3694563  41.2405634
  71.8202639  77.2369862  41.7180586  70.9700012  78.3118105  41.0755682
   9.9383754  61.1037350  57.1061516  10.4633033  60.8205128  56.3575125
  10.3744519  60.7159090  57.8648758  18.4865987  27.6647592  70.8281708
  19.2885697  28.1502724  71.0214424  18.6210144  26.8086839  71.2347412
  36.8786454  81.1150932  63.3658695  36.0173440  81.1399174  63.7827349
  37.1690822  80.2089787  63.4699535  35.5490041   0.2874205   0.5508479
  35.5982900   0.5055383   1.4815614  34.6935058   0.6148440   0.2730893
  80.0542068  26.2701178  61.8472958  80.3262520  26.5802646  62.7110243
  79.8585510  27.0684791  61.3568115  12.0567679  11.8467426  66.5080309
  12.2690344  12.5741887  67.0928383  12.4762523  11.0860288  66.9099998
  15.1986682  69.1392851  21.3857460  14.6404350  68.6552858  20.7771802
  15.9211123  68.5407877  21.5757656   8.7409014  47.2037601  49.6505785
   8.0743700  47.2655964  48.9663696   8.8097531  46.2668037  49.8338985
  49.8546171  55.1947260  50.7641172  49.7416258  56.0168600  50.2870893
  49.6922541  54.5143890  50.1106548   9.0471834  73.7262583  57.6410389
   9.8812628  73.5374832  57.2110271   8.3840048  73.4233999  57.0207930
  62.1682978  41.9195080   2.0077120  61.6877890  41.1075735   1.8461457
  61.6633797  42.5917435   1.5501179  28.0707383   9.8733312  65.6420374
  28.5906982   9.3831927  66.2789345  28.4878111   9.6897185  64.8002720
   1.4924268  22.4572277  49.1714144   1.9224863  23.3120131  49.1464424
   1.2560332  22.2813463  48.2606888   1.2514110  29.6459365  67.3873806
   0.5666772  30.2469230  67.6809597   1.3424551  29.0180683  68.1041288
  79.2761040  20.8958721  62.7687883  79.2189121  19.9923432  63.0795860
  79.0496397  21.4266443  63.5324812   2.5013500  47.4009705  69.1595650
   1.6939712  47.9150915  69.1526079   2.2973481  46.6275644  68.6337709
  21.8636250  26.1842036  60.8200979  20.9559608  26.0201263  61.0759401
  22.1089029  25.4173613  60.3023863  11.5681958  65.3453827  47.0550156
  11.2596536  65.6020784  46.1860275  12.1523333  66.0554314  47.3211813
   2.0161246  43.6954355  49.0991545   1.2550776  43.9118004  48.5604286
   2.1192762  42.7490997  48.9989233  76.4592218   0.9457759  18.9444232
  77.2196627   0.3752476  18.8328040  75.9017849   0.7520616  18.1907868
  45.2391911  55.1298237  14.1952527  44.3489742  55.3760099  13.9439750
  45.4280281  54.3494654  13.6740863  11.1841524  25.8349085  63.8538456
  11.7647588  26.0225248  63.1163263  11.2492490  26.6091490  64.4129038
  63.9470196  78.5581970  67.6548481  64.4082212  77.7527285  67.8888178
  64.2233753  78.7401676  66.7566586  29.8326349  42.1154165   4.6449172
  29.5371270  42.5285339   3.8335949  30.6266665  41.6417742   4.3971115
  20.7031369  34.1844821  62.4938536  20.4716444  34.1979218  63.4225416
  21.0780215  35.0494432  62.3279190  78.6945724  80.5112171  38.4314251
  78.5758591  81.3820839  38.0523133  79.6279716  80.4653454  38.6385250
  78.5462618  16.7324162  54.9295759  79.4329739  16.8861163  55.2556944
  77.9984570  17.3357415  55.4317141  39.8072290  51.8764877  27.1844244
  40.6985188  52.2246933  27.1601439  39.9210286  50.9261227  27.1748447
  41.8155622  27.2599816  64.6297503  40.9875727  26.8102884  64.4610977
  41.6611767  27.7514982  65.4364777  41.8326235   4.4563192   7.7604765
  42.4007463   5.0887185   8.2004100  41.0345697   4.9471307   7.5644052
  30.1188111  70.7570076  58.2276440  29.7652340  69.8735666  58.3313227
  29.4342923  71.2356091  57.7600908   6.7713237   5.3235883  51.6451216
   6.9495630   4.7780678  50.8790493   5.8825415   5.0843740  51.9079447
  66.0346603   6.4031416  41.4170361  66.1854744   5.4854953  41.1902905
  65.2517605   6.3882792  41.9675589  73.6556673  58.2861376  19.8315334
  74.1742182  58.2011700  20.6316066  73.0302429  57.5627327  19.8735142
  32.2163796  55.1111555  44.3462801  33.0298734  55.3620291  43.9086437
  32.0496202  54.2171431  44.0476704  36.8605089  53.3225822  23.3066130
  37.0428896  53.9276743  22.5876999  37.6669216  53.3132267  23.8222146
  37.8286076  23.0621219   1.2157457  36.9333577  23.3292556   1.4240733
  38.1573725  22.6735067   2.0263779
  87.7644081  87.7644081  87.7644081 109.4712190 109.4712190 109.4712190
