
59112  0.0000000e+00
  35.6189775  71.2695789  28.1276560  34.7987199  70.7158899  28.3294082
  35.7823062  71.4500523  27.1474266  35.3434515  72.1526861  28.5330033
  36.8250108  70.7328320  28.7542844  37.6989865  71.3315582  28.4977865
  36.6640782  70.6000423  30.3101683  36.0460877  71.4097261  30.6982398
  36.0184216  69.2494440  30.7162428  35.0298905  69.1260767  30.2738786
  36.6241789  68.3660603  30.5142713  35.8013320  69.3087578  31.7827582
  38.0014563  70.6638002  30.8216143  38.2290101  71.5916729  30.7274413
  37.2026801  69.3962860  28.0896688  36.3297367  68.6347389  27.6379585
  38.4564161  69.0493059  28.0419588  39.1852474  69.7018003  28.2932734
  38.8300633  67.9111242  27.3660445  38.2771540  67.8238058  26.4307547
  40.3308249  67.8963757  27.0727730  40.6880665  68.8567591  26.7010880
  40.8384275  67.8034973  28.0328846  40.8590651  66.7027092  26.2190104
  41.4129305  65.6979990  26.6953182  40.7232571  66.7985439  24.8895884
  40.7277250  65.9674263  24.3157172  40.2503777  67.6452684  24.6075463
  38.4168601  66.7131472  28.3219600  38.7103772  66.7560053  29.5203042
  37.6514506  65.8006096  27.6765132  37.4739933  65.9212685  26.6895700
  37.1120477  64.6958923  28.4023666  36.7111063  65.0999308  29.3319416
  35.9373593  64.0597582  27.6666164  36.2678671  63.6541080  26.7104173
  35.5432868  63.2081032  28.2211351  34.8597813  65.0791597  27.3815942
  34.6773791  65.6384945  28.2991862  35.2578139  65.7576609  26.6270685
  33.5478902  64.4173384  26.8436551  33.5274410  63.2025576  26.4956450
  32.4096608  65.0521994  26.8759561  31.6124821  64.5722151  26.4832473
  32.3653579  65.9591866  27.3181176  38.1504083  63.6711597  28.7497807
  38.1749845  63.1869650  29.8801541  39.0012765  63.3095503  27.7448750
  38.8664460  63.6691141  26.8107247  40.0791597  62.3535824  28.0453420
  39.5149803  61.5083838  28.4396029  40.8230734  61.9578695  26.8796682
  40.8283806  62.8378725  26.2365031  41.7872715  61.5419483  27.1719837
  40.0331402  60.8664465  26.0298061  38.9663363  61.0806704  25.9654784
  40.5932283  60.8710146  24.6591282  40.4017591  61.8862915  24.3117714
  41.6704798  60.7053757  24.6733880  40.2438116  60.0346422  24.0537429
  40.3676319  59.5079899  26.6493130  39.8977900  58.7203884  26.0602140
  41.4414692  59.3315220  26.7112899  39.9154377  59.4713831  27.6404119
  41.0352039  62.8453112  29.1385794  41.4418030  62.0551920  29.9640107
  41.3342619  64.1609955  29.2367649  41.0085392  64.8069000  28.5319138
  42.1686697  64.6955538  30.3475285  42.9576063  63.9677000  30.5370140
  42.6144457  66.1346483  29.9511003  42.9945755  66.0916138  28.9304399
  41.7347383  66.7711401  30.0465083  43.6874771  66.6034985  30.9016180
  43.3286238  66.7813587  31.9153690  44.4127131  65.8026171  31.0455966
  44.5753098  67.8471947  30.4978871  43.9944792  68.8450623  30.1099563
  45.8600616  67.9287291  30.6093907  46.4204788  68.7615824  30.4980969
  46.3501072  67.0923710  30.8930349  41.3393593  64.6689606  31.6067743
  41.8471098  64.2959213  32.6659393  40.0806093  65.0690508  31.6158366
  39.7120833  65.3590155  30.7212925  39.2308354  65.0728273  32.8034472
  39.7306347  65.6924820  33.5479808  37.8584528  65.7331800  32.5408697
  37.9546595  66.7155743  32.0785499  37.2594070  65.2212429  31.7877650
  36.8682098  65.8683681  33.7262511  36.8549514  67.0743895  34.4926691
  37.4651194  67.9192972  34.2094040  35.9591460  67.1863317  35.5848718
  35.8710742  68.0175924  36.2687182  35.1084495  66.1139870  35.9007072
  34.0194130  66.2661505  36.7351651  34.0070343  66.9403267  37.4184895
  35.1889706  64.8520660  35.2043056  34.5924664  64.0115690  35.5270219
  36.0528016  64.7890854  34.0643382  36.1048770  63.9093018  33.4401059
  39.0643239  63.5943127  33.3053398  39.0305471  63.4494972  34.5127678
  39.0233278  62.6021004  32.4273467  39.1947341  62.8818178  31.4721084
  38.9550018  61.1703777  32.6836014  38.0956507  60.9156656  33.3038735
  38.7295270  60.2680540  31.4179802  39.3407345  60.7141685  30.6334376
  39.1772652  59.2866230  31.5742826  37.3582220  59.9942207  30.9089112
  36.8601537  60.9616280  30.9732866  37.3971367  59.6430111  29.4618845
  37.7828288  60.4703712  28.8662171  38.1619430  58.8801146  29.3163991
  36.4521956  59.1617823  29.2096901  36.5997481  58.9909458  31.8280745
  35.6261444  58.8048315  31.3746929  37.2615767  58.1416130  31.9975567
  36.3453126  59.3547535  32.8235698  40.2170515  60.7513666  33.4812808
  40.1831436  60.0623989  34.5055294  41.4220810  61.2156773  33.0212212
  41.4202690  61.6408491  32.1050763  42.6895905  61.0960388  33.7997270
  42.8506374  60.0549412  34.0795207  43.9170361  61.5225887  32.8909469
  43.9628410  60.8384085  32.0436573  43.8059378  62.5568485  32.5652790
  45.2339888  61.4212799  33.6392450  45.1037645  61.9138670  34.6028304
  45.6542540  59.9796581  33.9604497  45.7073927  59.5226669  32.9723024
  46.6099453  60.1431656  34.4584680  44.9799967  59.5370245  34.6936369
  46.3096666  62.2548246  32.9288816  46.0657310  63.3162498  32.9733038
  47.2605658  62.0740223  33.4300828  46.3515663  61.9429731  31.8852854
  42.6422501  61.8347836  35.1760936  42.7425432  61.2369871  36.2657475
  42.6216793  63.1790352  35.0963163  42.5245857  63.6105394  34.1883087
  42.8787088  64.1247845  36.1379147  43.7796259  63.8625431  36.6926050
  43.1511307  65.4921103  35.4627609  42.3514652  65.8655930  34.8231149
  43.1912661  66.2223291  36.2710142  44.5457268  65.3927374  34.8117518
  45.3476620  65.0460148  35.4635096  44.5204258  64.6791697  33.9881754
  44.9224472  66.8708467  34.3974924  44.1337156  67.3021603  33.7810755
  45.1562452  67.4269390  35.3053474  46.3198853  66.9491243  33.8286638
  46.7551804  66.0698318  33.5889506  47.0154238  68.0512285  33.7507153
  46.5253592  69.2451859  33.8583446  45.5290651  69.2492723  33.6925340
  47.1537876  70.0319815  33.9366221  48.3127308  68.0420065  33.6045432
  48.7257767  67.1203566  33.5977197  48.8074446  68.9225245  33.6112475
  41.7502546  64.1934586  37.1919060  41.9970512  64.5918512  38.3541727
  40.4995251  63.7821341  36.9252419  40.3251076  63.6316109  35.9418678
  39.2846274  63.8663912  37.8384447  39.7292876  64.1270399  38.7988853
  38.2415962  64.9820614  37.4548221  37.9243016  64.8516226  36.4202166
  37.0248652  64.9641657  38.4059119  37.3661542  64.9219179  39.4402432
  36.4254570  65.8578587  38.2323432  36.4503455  64.0730286  38.1531239
  38.9748836  66.2815857  37.3672581  39.6561289  66.3127899  36.5169430
  38.2968211  67.1268511  37.2495365  39.6070409  66.3743401  38.2503629
  38.6668754  62.4427700  37.9595590  38.7438583  61.8720865  39.0410256
  38.1679916  61.8017769  36.9460607  38.0173326  62.2760153  36.0671401
  37.2812700  60.6115437  37.1483207  36.4891028  60.7711506  37.8798318
  36.6135645  60.1928806  35.8019471  37.3593307  59.8570347  35.0814319
  35.6408620  59.0735197  36.0025954  35.0544977  58.9407682  35.0933909
  36.2996078  58.2364655  36.2338901  35.0125384  59.4198751  36.8231750
  35.8545637  61.4001608  35.3084230  35.2146006  61.8463230  36.0696626
  36.5801644  62.1672106  35.0378036  35.1698923  61.1706161  34.4919443
  38.0888057  59.4441080  37.6897335  37.8905773  59.0046549  38.8436913
  39.1429877  58.9627457  37.0416427  39.4337964  59.3294048  36.1466050
  39.9278975  57.8522301  37.4683952  39.3091583  56.9669199  37.6150179
  40.9167767  57.4446201  36.2726808  40.2763271  57.4741316  35.3911757
  41.6053486  58.2888699  36.2378669  41.7017651  56.1600542  36.3152790
  41.0635996  55.3335571  36.6279268  42.2809029  55.7547951  34.9997592
  41.4417553  55.7343769  34.3044066  42.9533243  56.5441942  34.6639037
  42.7424860  54.7674274  34.9874401  42.9214811  56.1043024  37.2256684
  42.7109861  56.2299633  38.2877421  43.3468819  55.1010084  37.2024822
  43.6061335  56.8571615  36.8350935  40.6667089  58.0661488  38.7485838
  40.5715895  57.1930265  39.6348166  41.2888336  59.2666817  39.0046906
  41.2349033  59.8655796  38.1931996  41.9295454  59.8278809  40.2559900
  42.8186083  59.2528009  40.5147314  42.3149347  61.2653065  39.9109960
  42.9459476  61.3899040  39.0309930  41.3759041  61.8115854  39.8221207
  42.9276323  62.0224333  41.1345291  42.9654169  63.0881596  40.9089279
  42.2112751  61.8931866  41.9458437  44.2609215  61.4525890  41.6840553
  44.0102482  60.5679131  42.2693825  44.9819613  61.1213684  40.9367275
  45.0088072  62.4042702  42.6188183  45.7856798  61.8699980  43.1657410
  45.5588055  63.2193565  42.1484566  44.0547657  62.9828930  43.5508394
  43.5330009  62.2884083  44.0661621  44.5418835  63.4836483  44.2802668
  43.4250641  63.5972786  43.0547428  40.9721088  59.6768379  41.4446020
  41.3426399  59.2075348  42.4920702  39.6893334  60.0316763  41.1720705
  39.3776417  60.3940821  40.2823448  38.7583899  59.9039936  42.3173809
  39.1706991  60.3778791  43.2081938  37.4632597  60.6950378  42.0065594
  36.9027400  60.2328396  41.1939764  36.4554024  60.8446646  43.1459713
  36.0311961  59.9023962  43.4927988  36.9771290  61.4886379  43.8539267
  35.5895734  61.3882399  42.7678633  37.7795148  61.9617987  41.6055632
  37.9985332  61.8978453  40.6730700  38.5265255  58.4364843  42.6751184
  38.4135842  58.1642866  43.8612509  38.4627676  57.5831938  41.6699409
  38.5616851  57.8225660  40.6937170  38.0347109  56.1707020  41.9023418
  37.1892023  56.1294317  42.5890160  37.6798487  55.4278755  40.5993080
  38.2203197  55.8536959  39.7539282  38.1175232  54.4406414  40.7473373
  36.2135553  55.1436663  40.1860666  35.5871201  54.8238230  41.0187674
  35.5720282  56.3548470  39.4947100  34.4934154  56.1998701  39.5207119
  35.6179929  57.2402143  40.1288366  36.0177517  56.4938974  38.5097766
  36.2455726  54.0470457  39.0859056  36.8407011  53.2281828  39.4901133
  35.2226305  53.6796045  39.0041900  36.5760112  54.5308971  38.1667805
  39.2176008  55.5030298  42.6171684  39.0528059  54.7568750  43.6046934
  40.4913330  55.8464146  42.3199272  40.6123447  56.4374447  41.5099001
  41.7505980  55.2939987  42.7698326  41.7900181  54.2192459  42.5924635
  42.8174019  56.0028315  41.9273186  42.5393772  55.9929991  40.8734179
  42.9479933  57.0770741  42.0578861  44.1634321  55.4919243  41.9775391
  45.2192163  55.9611368  42.7039289  45.2326345  56.8814039  43.2690191
  46.4037037  55.2630806  42.3759651  47.3089886  55.3627014  42.8125763
  46.0543442  54.2371273  41.5469980  46.8152332  53.2211685  40.9194469
  47.8343439  53.2099724  41.2767792  46.2801504  52.3518324  39.9982238
  46.9272566  51.5895128  39.5901418  44.8664331  52.4616814  39.7854209
  44.4076061  51.8386030  39.0319872  44.0618706  53.3916998  40.4733849
  43.0384111  53.3901167  40.1285315  44.6543694  54.3578482  41.3083839
  41.9948959  55.5544806  44.2439318  42.5734138  54.6519136  44.8773670
  41.6182470  56.7180872  44.7618151  41.4600849  57.4455738  44.0792847
  41.6348410  56.9564342  46.1752605  42.6644707  56.8477631  46.5160656
  41.3801861  58.5021782  46.2734890  42.0535755  58.9959478  45.5728912
  40.3749609  58.7344456  45.9218073  41.5642309  59.0583897  47.6666927
  41.1895370  60.0747395  47.5452900  40.9336662  58.4767294  48.3391237
  43.0302000  59.1167593  48.1433105  43.3603144  58.0783892  48.1735516
  43.6531353  59.6497822  47.4250174  43.1314945  59.8065710  49.4307232
  42.7573442  60.8300591  49.4064045  42.4917221  59.2113495  50.0822639
  44.5384264  59.7029257  49.9285603  44.8596048  58.7466955  49.8778772
  45.2589035  60.2144289  49.4392872  44.4979095  60.1047802  50.8542871
  40.7240868  56.0799313  47.0430803  41.0659122  55.8072042  48.1951475
  39.6486068  55.4605913  46.5419722  39.4002891  55.6967020  45.5918741
  38.8144779  54.6148014  47.3950100  38.6284614  55.3046656  48.2181692
  37.5102282  54.2871380  46.6459036  37.2559285  55.1687717  46.0575676
  37.6597404  53.3632088  46.0872459  36.2972093  54.0831423  47.4855518
  35.9633303  53.0684996  48.3965588  34.8925877  53.4483862  49.0355873
  34.3208981  52.8016996  49.6847153  34.4262528  54.6079302  48.5686684
  33.4781051  54.9435806  48.6606359  35.2784538  54.9684286  47.5660276
  35.1888657  55.7894945  46.8701649  39.4611549  53.3311987  47.9740095
  40.1138878  52.5383759  47.3138666  39.1158485  52.9885006  49.2377329
  38.7079787  53.7820387  49.7110605  39.2828631  51.7066669  49.8571682
  40.3338099  51.5195656  50.0776339  38.4878254  51.6267252  51.1216116
  37.4176979  51.7509842  50.9558058  38.4476137  50.6211233  51.5402412
  38.9158010  52.5755119  52.3041391  38.7169671  53.5675955  51.8987560
  38.3362055  52.3826170  53.2068920  40.3404570  52.4049473  52.7353477
  41.0056210  51.4498329  52.5526190  40.9244442  53.4802818  53.2533026
  41.8931198  53.4578276  53.5383701  40.3562021  54.3127394  53.3182573
  38.9447403  50.5936766  48.9175892  39.6794343  49.6186924  48.7834549
  37.7909636  50.6301355  48.2313967  37.2544599  51.4734554  48.3765650
  37.3204637  49.6370840  47.2704744  37.4329972  48.6570358  47.7340937
  35.8024502  49.8188829  47.0132637  35.7749653  50.6582212  46.3183880
  35.4003882  49.0009975  46.4153385  34.8704457  50.0409603  48.2153034
  35.2362347  49.5767546  49.4485712  36.1095500  48.9999390  49.7150278
  34.3427134  49.8394346  50.5742788  34.6155381  49.4773054  51.5544987
  33.1769443  50.5696630  50.3946638  32.5496101  50.8068419  51.2411880
  32.8256106  51.0831976  49.1022968  31.9464993  51.6804934  48.9104605
  33.6730123  50.7610893  47.9916048  33.4313154  51.0586596  46.9819355
  38.0143642  49.4323778  45.8732748  37.7498960  48.5490608  45.0300074
  39.0744662  50.2608824  45.6589699  39.3151879  51.0302401  46.2674475
  39.9233413  50.3218794  44.3938875  39.2858863  49.9417257  43.5956144
  40.3326654  51.7488575  44.0174198  39.4116497  52.3284245  43.9548159
  41.0456276  52.2422981  44.6779442  40.7531071  51.6353989  43.0181980
  41.1645794  49.3896961  44.5353413  41.7889977  49.0523148  43.5361481
  41.4627647  48.8693190  45.7337093  40.8323860  49.1035318  46.4872789
  42.5544548  47.9156351  46.1176491  43.5354614  48.3631849  45.9581470
  42.5163937  47.6703882  47.6399469  43.5747910  47.5605392  47.8762293
  42.1712017  48.5056686  48.2492495  41.9717836  46.3776684  48.1841087
  40.7789135  46.2075281  48.8883400  40.1672173  47.0497036  49.1764021
  40.7175636  44.9515533  49.3906164  39.8765206  44.6414661  49.8560143
  41.7866230  44.1819048  48.9903688  42.1036386  42.8776693  49.2397356
  41.5386724  42.2295570  49.8933172  43.2011652  42.4059391  48.5524797
  43.4136295  41.3511419  48.6455917  44.1574621  43.2178879  47.8785801
  45.0245190  42.7978897  47.3905182  43.8735580  44.5938826  47.7471256
  44.6157360  45.3330803  47.4841595  42.6160812  45.0535583  48.1704473
  42.6381588  46.6353750  45.2200985  43.7053156  46.4172840  44.6854687
  41.5997028  45.8153677  44.9437284  40.3545237  45.7276392  45.6945324
  40.0071716  46.7467546  45.8643723  40.4568005  45.1061869  46.5841627
  39.2751837  44.9218702  44.8789072  38.6099792  45.6402206  44.3997669
  38.6573839  44.2717314  45.4983807  40.1790905  44.1398764  43.9227533
  39.7157598  44.0372372  42.9414797  40.1885366  43.1089830  44.2767048
  41.5074253  44.8411942  43.8913584  42.2651672  44.0683222  44.0201998
  41.7992210  45.2823162  42.4594927  42.4679279  44.6243858  41.6774225
  41.4953518  46.5256548  42.1083355  40.9887600  47.1242571  42.7448511
  41.5728617  47.0094538  40.7462072  41.3640404  46.2455082  39.9972820
  40.3636885  47.9149342  40.4516602  40.3749132  48.7670088  41.1313200
  40.4624367  48.2544804  39.4206142  38.9586258  47.3602200  40.6998730
  38.3555388  47.5190639  42.0354891  38.8960958  48.0653238  42.7943039
  37.0539427  47.0485258  42.3165417  36.6583180  47.1226501  43.3187342
  36.3652968  46.3447094  41.3306570  35.3769493  45.9936905  41.5882492
  36.9016004  46.1964941  40.0557518  36.2865424  45.6762075  39.3364382
  38.2308865  46.6704130  39.7611761  38.6408186  46.4999819  38.7766385
  42.8947830  47.7739620  40.3951120  43.0372858  48.3182287  39.2954040
  43.7776470  47.9018259  41.4056492  43.5846138  47.5388193  42.3281813
  45.0602245  48.5959482  41.1590004  44.9638987  49.5439386  40.6297159
  45.5866575  49.1014862  42.5495338  45.4111958  48.3038759  43.2714272
  46.6462898  49.3455696  42.4740124  44.9080610  50.3552294  43.1021500
  44.9239826  51.1257315  42.3313236  43.8775253  50.0627804  43.3035660
  45.4879570  50.9005165  44.3804550  46.0722828  50.2039003  45.1381922
  45.3888607  52.1937799  44.6233559  45.5823421  52.5148201  45.5612230
  45.0543928  52.8272867  43.9113855  46.2358904  47.7742338  40.5065870
  47.3585081  48.2846737  40.1789141  45.9569120  46.5006590  40.2193880
  45.0283337  46.1983204  40.4771519  46.8711138  45.5406427  39.5496988
  47.3140335  46.0610914  38.7005472  47.9190874  44.9678373  40.5637598
  48.6677122  44.3422604  40.0776339  48.4409046  45.8530140  40.9274483
  47.4667978  44.3807077  41.8808556  46.7964745  43.6235905  41.4739847
  48.3192015  44.0676165  42.4837494  46.6541290  45.2526140  42.8045607
  47.1502972  46.2510490  43.2549953  45.4776859  44.8659039  43.1796980
  44.9414301  45.4238415  43.8287210  45.0871563  44.0076017  42.8178740
  45.9809303  44.4073629  39.0230727  44.8349094  44.3331146  39.4417882
  46.4034271  43.6509848  38.0205941  47.6928282  43.8452005  37.3278832
  48.4982204  43.2834482  37.8010416  47.9189682  44.8979092  37.1582866
  47.4760771  43.2696676  35.9233284  48.4189081  42.9738474  35.4632664
  47.1313858  43.9949656  35.1862836  46.5712547  42.0151854  36.1812282
  47.1786928  41.2157631  36.6055441  46.0711432  41.6321135  35.2917099
  45.6464052  42.6217413  37.2971845  44.8112583  43.1557322  36.8438792
  45.1156044  41.4865065  38.1548214  45.7322025  41.1879063  39.1675687
  43.9811420  40.8816195  37.7448559  43.5388184  41.1906004  36.8910503
  43.5555410  39.5607376  38.2268047  43.6284733  39.5989466  39.3136954
  42.0652676  39.3452024  37.8568363  41.9352436  39.0349150  36.8200541
  41.4696455  38.1794477  38.6950278  41.4967489  38.4172344  39.7584295
  40.4434776  38.1216311  38.3320689  42.0235825  37.2570992  38.5202956
  41.2352991  40.5842829  38.2085586  41.3708544  41.3551760  37.4499774
  40.2014256  40.2836704  38.0387163  41.4135218  41.0986090  39.1529131
  44.4329071  38.5126925  37.6289511  44.2437172  38.0430341  36.4811397
  45.4361963  38.1942749  38.3500528  45.5110884  38.7443876  39.1937780
  46.4190817  37.2328019  38.0566263  46.6597462  37.1640992  36.9957495
  47.7367353  37.7287579  38.7354326  47.8624773  38.8021302  38.5934329
  47.6657963  37.6112533  39.8167562  49.0419436  37.0524454  38.2876611
  50.0843859  37.7010107  38.4168291  48.9888954  35.8666658  37.8632426
  45.8953714  35.8880663  38.5018039  46.0996675  35.4885268  39.6447611
  45.1463604  35.1902270  37.6993370  45.0662327  35.4666710  36.7312169
  44.2664671  34.0408063  37.9810619  43.5043430  34.4258118  38.6585927
  43.6316824  33.6508870  36.6805744  42.6805639  33.1512475  36.8645024
  43.4548092  34.5456123  36.0836792  44.2779875  33.0045414  36.0867453
  44.9265814  32.8664565  38.6047745  44.4108677  32.3685074  39.6409225
  46.1792278  32.5791168  38.1940079  46.6549635  33.0869055  37.4619317
  46.9899797  31.5683150  38.9130569  46.3349676  30.7144666  39.0862823
  48.2343531  31.1114740  38.1692696  47.8489971  30.7694888  37.2087216
  49.3930721  32.1951532  38.0406070  49.9195957  32.3684025  38.9791465
  50.1368618  31.7945027  37.3518705  49.0393305  33.1996846  37.8084779
  48.7645578  29.8509741  38.7311745  47.9597712  29.2346311  39.1318345
  49.4493580  29.3543744  38.0437613  49.2794371  30.0558257  39.6698093
  47.3518562  31.9604230  40.4000378  47.2525406  31.0880923  41.2752581
  47.7168179  33.2427335  40.6488228  47.5083828  33.9579582  39.9668336
  48.1731319  33.6963773  41.9736004  48.7927532  32.9861999  42.5211573
  48.9363146  35.0282884  41.7773581  48.2879019  35.8009863  41.3643122
  49.2959452  35.3206849  42.7639008  50.1872253  34.7657728  40.9376001
  50.6680059  33.8546896  41.2937975  49.7509909  34.6482849  39.9456358
  51.2865734  35.8529472  40.9635687  50.8835506  36.8284607  40.6914425
  51.7436171  35.9571719  41.9476128  52.4295807  35.5181932  40.0042439
  53.2207680  36.2606430  40.1086092  52.8395224  34.5536613  40.3037930
  52.0848989  35.3270197  38.5789275  51.1910439  35.7414651  38.3567381
  52.6606464  35.8581519  37.9413438  52.1932316  34.3661070  38.2873631
  46.9593382  33.9171362  42.8135586  47.1119738  34.0683365  44.0503168
  45.7597256  33.9223742  42.2214174  45.7367039  34.0655565  41.2218809
  44.4970036  33.9810371  42.9721403  44.5867252  34.2438173  44.0261793
  43.6366320  35.0623918  42.3099184  43.5525703  34.8311424  41.2480545
  42.6754808  35.0200009  42.8222561  44.2370558  36.5447569  42.3786497
  45.2773714  36.5245104  42.0539331  43.5729408  37.5488377  41.4792633
  43.9473677  38.5416484  41.7287302  43.7516117  37.3612952  40.4204893
  42.5045347  37.4283886  41.6584158  44.1376209  36.9981050  43.8850975
  44.7559309  37.8689742  44.1027737  43.1472349  37.4178910  44.0612030
  44.3776178  36.2724113  44.6621895  43.7732077  32.6064777  43.0171156
  42.6192760  32.3626137  43.4035301  44.4343472  31.5778852  42.3865080
  45.2315426  31.8475580  41.8280649  43.9656734  30.2296662  42.1848822
  44.4549990  29.8369288  41.2935829  44.3065786  29.4203758  43.4931374
  45.2580166  29.8284268  43.8342571  43.5965490  29.6397400  44.2905331
  44.4632244  27.9167747  43.2346392  44.9166059  27.4899125  42.1688890
  44.0470648  27.1095347  44.1218567  44.0098667  26.1165833  43.9408445
  43.6296177  27.5663018  44.9201059  42.5861073  30.0432181  41.6312504
  41.7439604  29.2790508  42.1751308  42.3784018  30.6104159  40.4131413
  43.0792379  31.2004662  39.9879694  41.0663223  30.5549288  39.7452164
  40.2485895  30.1980758  40.3713703  40.7205725  31.9470096  39.1792226
  41.5323400  32.1707273  38.4870648  39.8088908  31.9394970  38.5818291
  40.5739784  33.0465269  40.1605988  41.5322065  33.1809807  40.6624174
  40.2953863  34.3681812  39.5334625  40.4421425  35.2031279  40.2186108
  40.9627771  34.5688152  38.6953497  39.2238259  34.4240975  39.3417764
  39.5133924  32.9022717  41.2360716  39.7276878  32.0761991  41.9141436
  39.6890426  33.6847734  41.9742727  38.4947634  32.9404235  40.8500147
  41.0762882  29.5684743  38.5777521  41.7976093  29.8256540  37.6090574
  40.1758146  28.5234332  38.5233927  39.2654514  28.1437778  39.6001816
  38.6786318  28.9523387  40.0360394  39.8266172  27.6926255  40.4185057
  38.3859324  27.0082259  39.0335608  37.5532794  27.4148965  38.4596181
  38.0844092  26.3603187  39.8566079  39.3786407  26.2708902  38.1167483
  38.9121675  25.6809235  37.3277926  39.9057460  25.5817413  38.7765431
  40.2733564  27.4349165  37.6024294  41.3012791  27.0726728  37.6184082
  39.9160981  27.8575897  36.1051941  40.3715658  27.3046923  35.1429987
  39.2462182  29.0075755  35.8790994  38.6969137  29.3057299  36.6724896
  38.6851549  29.4506288  34.5862031  39.4202685  29.2266774  33.8131881
  37.4252844  28.6128831  34.4189358  36.9405794  28.8626194  33.4751177
  37.6088405  27.5494933  34.2652774  36.2346172  28.7823033  35.4541111
  36.4994884  29.3273020  36.5652347  35.0645375  28.4297585  35.1982594
  38.4346247  30.9542823  34.3308163  37.6397729  31.3028288  33.4700298
  39.2333078  31.8404222  35.0418782  40.0335932  31.5061569  35.5594778
  38.9318275  33.2976866  34.9862123  37.8852177  33.4228992  35.2637625
  39.8368955  34.0236974  36.0536313  39.3496251  33.8286352  37.0089412
  40.8843088  33.7264752  36.0018301  39.7342420  35.5627275  35.7645369
  38.6067343  36.4149284  36.0452414  37.6942134  36.1366510  36.5514684
  38.7649989  37.7920723  35.8939838  38.0239105  38.5018921  36.2306452
  39.9659896  38.3153105  35.2857947  40.0968218  39.6475315  35.0907993
  41.0168743  39.9107790  35.0145578  40.9463692  37.4554777  34.7963667
  41.6901875  37.9398370  34.1811180  40.8329487  36.0864949  35.1006484
  41.6969442  35.4842639  34.8614192  39.1507840  33.7662888  33.5340238
  38.2671714  34.2693973  32.9264593  40.3398991  33.3912158  32.9833651
  40.9609365  32.8820133  33.5958409  40.6280231  33.7579775  31.6037679
  40.2607250  34.7747993  31.4649296  42.1086121  33.6493349  31.3129568
  42.4641609  32.6342463  31.1360908  42.2424984  34.2028952  30.3835726
  43.2565784  34.3704176  32.1430731  44.3742418  33.6481166  32.6845860
  44.4897509  32.6051307  32.4291730  45.2471876  34.3691730  33.5764933
  46.1094618  33.8446832  33.9609361  45.0428057  35.6792784  33.9318180
  45.8085060  36.2511802  34.8497581  45.3088427  36.9079924  35.3402042
  43.9915371  36.4040732  33.3063817  43.8778353  37.4258375  33.6372566
  43.0945921  35.7066870  32.5050616  42.2999239  36.3200259  32.1066594
  39.7867823  33.0490279  30.5570030  39.7344565  33.5031199  29.3479705
  39.3457007  31.8508768  30.8887982  39.6819854  31.4262128  31.7412519
  38.3978891  31.0525036  30.0650001  38.6622024  31.0039568  29.0086436
  38.2991624  29.5826149  30.5152011  39.3254471  29.2155218  30.5242443
  37.9812908  29.6581864  31.5550780  37.4206638  28.5898399  29.7028470
  36.4746714  29.0517640  29.4203210  37.9445028  28.3545208  28.7763906
  37.0547581  27.3112011  30.5373931  36.3811207  27.6167750  31.3379788
  36.4752626  26.5389061  30.0315785  38.2374430  26.7484117  31.2923574
  39.0857863  26.6278148  30.6186581  38.4663296  27.3789048  32.1515369
  37.8810740  25.5008245  31.9488931  38.6471820  25.1935911  32.5309443
  37.0782185  25.5853724  32.5558305  37.6199007  24.8105574  31.2593818
  37.0116186  31.6898489  30.0733805  36.3503313  31.6662765  29.0058470
  36.5993738  32.4791527  31.0837913  37.2513556  32.5271916  31.8536687
  35.3137398  33.1959367  31.0166407  34.5794797  32.7794027  30.3270984
  34.6773815  33.0666184  32.4024796  35.3317022  33.4597898  33.1805420
  33.4619379  33.9071274  32.5206733  33.7655067  34.9435210  32.3729086
  32.7435780  33.6180878  31.7535257  32.9996920  33.8625407  33.5067987
  34.2969728  31.5973377  32.6410484  33.7053847  31.1827922  31.8247890
  35.1963282  30.9816384  32.6541376  33.5736203  31.2226939  33.9711809
  32.5052881  31.4388776  33.9770126  33.6695814  30.1451969  34.1049480
  34.0852022  31.6527247  34.8322606  35.3725863  34.6340537  30.5714464
  34.6212196  35.1188207  29.7521400  36.2859154  35.3512383  31.1001277
  36.8677187  34.9161577  31.8017793  36.5585876  36.7211986  30.7608271
  35.6386566  37.0861888  30.3040886  37.0265651  37.4803662  32.0208669
  37.9266214  36.9582844  32.3455644  37.1929479  39.0079021  31.7335391
  36.2531996  39.4560266  31.4108062  37.5679231  39.5373631  32.6094222
  37.9528236  39.0596008  30.9537816  36.0154247  37.3704743  33.2096624
  35.9230208  36.3487911  33.5780740  36.3118911  37.8989816  34.1156912
  34.5691872  37.8854537  32.9071593  34.5972872  38.9745450  32.9416656
  34.2130518  37.4727011  31.9632792  33.9426255  37.5544119  33.7353706
  37.5673103  36.9044518  29.5838976  38.8450813  36.8584132  29.6205759
  36.9742131  37.3049498  28.4212565  35.9771371  37.4577022  28.4723115
  37.6507831  37.4608755  27.1012068  38.4005213  36.6842628  26.9500017
  36.5222716  37.3496556  26.0303283  35.8142877  38.1762815  26.0898924
  36.9856882  37.4119616  25.0457144  35.7297015  36.0325742  26.1374760
  36.4975357  35.2846050  26.3351417  34.9944973  36.0527754  26.9419456
  35.0345445  35.6864452  24.8726726  35.7267451  35.8456731  24.0458679
  34.7487497  34.6362615  24.8131037  33.8592768  36.6466331  24.7276115
  33.0802345  36.4770818  25.4708791  34.1067934  37.7049112  24.6446395
  33.1618214  36.2836504  23.5128427  32.3115492  36.8271089  23.4705544
  33.7129307  36.4490938  22.6827741  32.8184891  35.3339577  23.5302687
  38.3685684  38.7955976  27.0484376  39.3490434  38.9215374  26.3102150
  37.9744887  39.7567415  27.8253341  37.1408248  39.6639585  28.3879161
  38.6912489  41.0696602  27.8353286  39.5974684  40.9706974  27.2377706
  37.7919602  42.1705484  27.2039747  36.8428397  42.3037767  27.7231336
  38.5648870  43.4883261  27.0820093  38.0940175  44.1971254  26.4008427
  38.7372303  43.8782215  28.0851936  39.5266080  43.4338045  26.5718889
  37.5225854  41.8484402  25.8593917  36.7668319  41.2594509  25.9188485
  39.0845180  41.4564133  29.3119550  38.5266781  42.3577356  29.9073815
  40.0100136  40.7081509  29.9331212  40.8084202  39.6454787  29.2863822
  41.3032198  39.9727249  28.3719492  40.1939726  38.7687778  29.0815568
  41.9022655  39.3532872  30.3103995  42.7313995  40.0322199  30.1111507
  42.1790075  38.2991219  30.2946138  41.2367582  39.6907949  31.6313338
  41.8888855  39.8171711  32.4955463  40.5070734  38.9038587  31.8221211
  40.3576851  40.9166431  31.2928224  39.5052576  40.8793736  31.9711137
  41.0275316  42.2819805  31.5397811  41.8988609  42.6851463  30.8185196
  40.6869650  42.8819799  32.7537560  40.1186037  42.4231958  33.4513140
  40.7919502  44.3637276  32.9755235  41.6441250  44.7333336  32.4051714
  39.4827795  45.0679302  32.3303080  39.1805744  44.4925690  31.4552474
  38.5973477  44.9968243  32.9620147  39.6614766  46.6224813  31.9806170
  38.7502265  46.9846582  31.5046406  39.8785877  47.0571518  32.9563355
  41.1149502  47.0067644  30.9308910  40.6203556  46.2197781  29.3584156
  40.3842640  45.1740313  29.5553589  39.7046423  46.5748167  28.8856387
  41.4898396  46.1937475  28.7015891  40.8982897  44.7856855  34.4879055
  40.2755451  44.1457367  35.3814387  41.8167782  45.6941986  34.7744441
  42.3880291  46.1870623  34.1029811  42.1085548  46.3169956  36.0779262
  41.2446404  46.1078835  36.7088151  43.4084606  45.7346392  36.6933203
  43.5442543  46.2722063  37.6317668  43.2326460  44.6943092  36.9670343
  44.7028971  45.9469080  35.9712172  44.6902609  45.6568813  34.7597241
  45.6716919  46.4232540  36.5791392  42.4317455  47.8271484  35.8182693
  42.9791403  48.2329226  34.7987723  41.9323969  48.6591291  36.7031622
  41.6433668  48.4434986  37.6465988  42.0431852  50.1687193  36.5533066
  41.6021872  50.2881432  35.5636764  41.1663437  50.8094645  37.6344967
  40.1209831  50.5012751  37.6532078  41.4720154  50.3912926  38.5935593
  41.3774347  52.3293400  37.7512884  42.3287868  52.4529696  38.2687306
  41.3710356  52.7127218  36.7309546  40.2319241  53.3247423  38.7162781
  40.1950216  52.4694729  40.3604269  41.0582161  52.6837015  40.9905910
  39.4065332  52.8945255  40.9814882  40.0337934  51.4033222  40.2009583
  43.5307884  50.6552458  36.5732121  43.7403679  51.7197514  35.9700751
  44.4953251  49.8714352  37.0182419  44.1956568  49.1745949  37.6851106
  45.9854460  50.0033617  36.8111348  46.2974119  50.9576416  37.2355485
  46.4032316  49.2133999  37.4352551  46.4153099  49.9438572  35.3697944
  47.1176529  50.8333635  34.8925233  45.9226894  48.9617205  34.5934892
  45.3621864  48.2595968  35.0549698  45.9901714  48.9342165  33.1159782
  47.0500517  49.0071726  32.8721905  45.4072189  47.6838446  32.5303650
  44.3700933  47.6817560  32.8657413  45.3663445  47.6511335  31.0050845
  45.1374626  46.6561985  30.6232238  44.6702576  48.3813572  30.5923605
  46.3688946  47.9059029  30.6614518  46.1661911  46.5798044  32.9346609
  45.6193686  46.0641718  33.5319138  45.3485060  50.1364851  32.5438929
  46.0634375  50.8115196  31.7723274  44.0430546  50.4766750  32.8400159
  43.4378767  49.8656034  33.3695936  43.3834124  51.6688490  32.3198462
  43.2080603  51.5302658  31.2530017  41.9139099  51.9003820  32.8150129
  42.0010185  52.0004702  33.8969064  41.2544012  53.2039118  32.2266173
  41.7701864  54.1154003  32.5286937  41.1582565  53.0704403  31.1490989
  40.2446747  53.3126211  32.6225185  41.0337877  50.6193161  32.7246881
  40.8755302  50.3181171  31.6891503  41.5671730  49.7480965  33.1049180
  39.7232699  50.7324505  33.4299326  39.0648055  51.4868832  32.9993892
  39.1978073  49.7801161  33.3588815  39.7837305  51.0084200  34.4826841
  44.2332172  52.9523373  32.5289106  44.2649603  53.7647820  31.6737509
  44.7868919  53.1324291  33.7224126  44.6758032  52.4646902  34.4720054
  45.6528044  54.3407774  34.0425682  45.0364828  55.1837444  33.7300801
  45.8960295  54.3618441  35.5653262  45.0534821  53.8707972  36.0522389
  46.6080475  53.5686731  35.7933831  46.3458920  55.7120800  36.1304593
  47.3470259  55.8686543  35.7288241  45.6742048  56.4668655  35.7215142
  46.4041376  55.7422113  37.6816821  46.3753176  56.7518520  38.0914354
  45.5845594  55.2467489  38.2021713  47.6337624  55.1786041  38.3328438
  47.6435184  55.3510046  39.4090796  47.6771832  54.0928698  38.2468295
  48.8360453  55.8674049  37.8679299  49.5871210  55.5038023  38.4369445
  48.9710617  55.6577539  36.8891978  48.7407780  56.8618393  38.0166793
  46.9718456  54.3662977  33.1822705  47.3978186  55.4305506  32.7071476
  47.5554752  53.1545544  32.8992724  47.1682596  52.2933674  33.2577610
  48.7074184  53.0143309  32.0234823  49.4102812  53.8297319  32.1943879
  49.3711233  51.6275120  32.1993327  48.5786629  50.9147596  31.9711065
  50.1889467  51.5798283  31.4803123  49.9985886  51.7115927  33.6115503
  50.7138586  52.5315237  33.6763811  49.3107700  51.9765806  34.4145393
  50.6768847  50.3723288  33.9067125  49.9937296  49.5951176  33.5641646
  51.5597725  50.2884293  33.2730150  51.1205101  50.1342249  35.3672528
  51.6946363  49.2339802  35.5864310  51.7268085  50.8972406  35.8554244
  49.9552536  49.9219418  36.1883521  49.3799639  50.7482910  36.1090589
  49.3420172  49.1532516  35.9577870  50.0447178  49.7565460  37.1806955
  48.2629633  53.1249809  30.5393767  49.0710545  53.7003851  29.8395944
  47.1191263  52.6930094  30.1289940  46.6085863  52.0141888  30.6754827
  46.4589167  53.0510235  28.8147449  47.1028757  52.6638889  28.0250955
  45.1239395  52.3271942  28.5860777  44.5395565  52.4480152  29.4982195
  44.6797991  52.6983213  27.6624417  45.2299833  50.7937002  28.1997514
  45.7462692  50.8575249  27.2419024  45.8447981  50.3063965  28.9564776
  44.0116310  49.9997473  28.0957627  43.5833311  49.8471308  29.0864015
  43.2998896  50.5137539  27.4497557  44.3686533  48.7482500  27.4761796
  45.3640747  48.5772657  27.4739671  43.5467911  47.7760839  27.0307231
  42.2666979  47.8236198  26.9179511  41.6784859  48.5779190  27.2421956
  41.8682814  47.0228815  26.4487171  44.1102314  46.6815853  26.6906118
  45.1110220  46.7460871  26.8104601  43.5274315  45.9541321  26.3016891
  46.2633371  54.5584440  28.5999823  46.5866184  55.0959015  27.5523710
  45.8556080  55.3120041  29.6030307  45.5195713  54.8701048  30.4467726
  45.7966995  56.8125057  29.5120764  45.2233410  57.0804071  28.6246157
  45.0757265  57.3580170  30.7821560  45.4767227  56.7640114  31.6034126
  45.5051279  58.3550501  30.8803606  43.5445452  57.2929430  30.5946398
  43.2608223  56.3367510  30.1549768  42.8524160  57.2937918  32.0335555
  43.2821226  58.0665016  32.6710224  41.7878675  57.4610186  31.8695998
  42.9705715  56.3034678  32.4733233  42.9781532  58.4472752  29.7192955
  42.0908976  58.0539036  29.2231679  42.5539064  59.2590809  30.3101373
  43.6937666  58.7879276  28.9709949  47.2779226  57.3930454  29.3758059
  47.5564766  58.1924582  28.5005212  48.2519197  56.9685364  30.1278138
  47.9628181  56.3307858  30.8556843  49.7160244  57.3096752  29.9100256
  49.8546171  58.3541012  30.1894307  50.6286001  56.5719700  30.9274817
  50.1707840  56.6285753  31.9150543  50.6216288  55.5210304  30.6383753
  52.1153593  57.0315695  30.9900093  52.6547337  56.3558531  31.6537714
  52.5991392  56.9635439  30.0156236  52.2662449  58.4882212  31.5812898
  51.2740803  59.0192652  32.0786667  53.3835602  59.0399885  31.7376757
  50.2406502  57.1073532  28.4493732  50.9660625  57.9387331  27.9754758
  50.0270700  55.9441280  27.8556919  49.5090771  55.3019333  28.4382463
  50.5023289  55.5878353  26.5100098  51.4117384  56.1519623  26.3030505
  50.7713604  54.0113068  26.4832830  49.8202372  53.5143185  26.6742659
  51.0769749  53.6956406  25.4857588  51.7887688  53.5641384  27.5321960
  52.9944897  53.4931850  27.3133111  51.5003109  53.4470558  28.7853384
  52.2378778  53.0238724  29.3303299  50.5343008  53.5324907  29.0675306
  49.6140099  56.0759687  25.4111576  49.8150063  55.6810999  24.2490005
  48.5304451  56.8091822  25.7000685  48.3053589  56.9728899  26.6709661
  47.7044010  57.5247145  24.6485496  46.9299889  58.0758858  25.1820302
  48.6183882  58.4226036  23.7956047  49.1535091  57.7519655  23.1233025
  47.9742527  59.0888119  23.2216978  49.5371723  59.3636703  24.6025777
  49.1301870  59.8835611  25.6081462  50.7679510  59.5127439  24.1541076
  51.3633919  60.2438402  24.5161176  51.1645412  59.0014410  23.3786130
  46.8609476  56.4731646  23.8416481  46.8680763  56.4890671  22.5788951
  46.2357473  55.4823685  24.5871758  46.2116432  55.6403208  25.5844593
  45.5901909  54.3468475  23.9552283  46.2209988  54.0877914  23.1048942
  45.7453537  53.2645941  24.9913859  46.8061256  53.2600737  25.2420735
  45.1170921  53.5558414  25.8331466  45.5366707  51.8160391  24.6111941
  46.5489483  51.0887051  23.9869308  47.5313759  51.4977789  23.8028407
  46.2689829  49.7960567  23.6024261  47.0213413  49.1765594  23.1370401
  45.0348186  49.1545916  23.9107037  44.8989296  47.8550816  23.6182761
  44.0099096  47.5406551  23.7982082  43.9988995  49.8947334  24.3953419
  43.0254841  49.4550848  24.5552731  44.2012596  51.2135315  24.7921896
  43.3902693  51.8256807  25.1582050  44.1426325  54.5213890  23.4626746
  43.4969044  53.5820341  22.9644370  43.5140991  55.7327795  23.7412453
  44.0074539  56.3660145  24.3542051  42.0872211  56.0010242  23.6698151
  41.5309429  55.0945330  23.4311938  41.6071749  56.3612270  25.1212645
  42.1461105  57.2353363  25.4867530  40.5380630  56.5664387  25.0665236
  41.7311811  55.1766920  26.1186790  40.8097172  54.1042948  25.9238791
  40.1307487  54.1087723  25.0840068  40.8508492  53.0346727  26.8518329
  40.2222490  52.1595526  26.7781520  41.7196703  53.0886745  27.9588413
  41.6894007  52.0131016  28.8358974  41.4882517  51.1601067  28.4440517
  42.5258589  54.1913509  28.2009935  43.1271505  54.2056131  29.0980124
  42.5457525  55.2352715  27.2711611  43.1156254  56.1404991  27.4201822
  41.7673922  56.9875526  22.5308299  42.2185755  58.1053925  22.5923324
  41.0223007  56.5564871  21.4974475  40.7750988  55.5830717  21.3904452
  40.6733704  57.4663162  20.4388976  41.5798092  57.9291439  20.0486898
  40.1076746  56.6369247  19.2185104  40.8985901  56.4009380  18.5065687
  39.5810461  55.7744312  19.6270096  39.0585661  57.2855759  18.3590400
  37.7112126  56.9970322  18.3293808  37.1612120  56.1877775  18.7865472
  37.0801377  57.9471970  17.6009679  36.0750961  57.9600382  17.5018537
  37.9442883  58.8575649  17.0629895  37.7246952  59.9397993  16.3062239
  36.7339182  60.3274584  16.1205089  38.8594460  60.6895924  15.8750343
  38.7247252  61.5829659  15.2833092  40.1945257  60.2552891  16.1375582
  41.0530567  60.8645296  15.8964205  40.4016495  59.0409517  16.8835747
  41.3710260  58.5946846  17.0495820  39.2633176  58.4049702  17.4304056
  39.7964358  58.5611582  20.8488297  39.9740267  59.7423697  20.4598022
  38.8004398  58.3114672  21.6227412  38.5790658  57.3517895  21.8466258
  37.7988791  59.2096424  22.1178985  38.2656384  60.1777411  22.2996235
  36.5950990  59.2413187  21.1928296  36.7720890  59.7643471  20.2530336
  36.3515043  58.1975460  20.9945893  35.4797077  59.9998236  21.8552136
  34.3920207  59.5311689  22.1516275  35.7320309  61.2253141  22.2615242
  34.9464893  61.7285824  22.6484966  36.5040112  61.7864752  21.9309974
  37.4727917  58.6356497  23.5415769  37.5617194  57.4363947  23.7637353
  37.0084596  59.5693970  24.4691515  37.0067787  60.5486012  24.2216349
  36.4512658  59.2308903  25.8267283  37.3521662  59.0067816  26.3979173
  35.7982779  60.4800320  26.4795804  36.4969206  61.3099623  26.5855265
  34.9231362  60.8331442  25.9341097  35.4143190  60.4015970  27.4966955
  35.5001903  58.0321121  25.8645821  35.4717994  57.3347998  26.8725729
  34.6798491  57.7638769  24.8203468  34.4246960  58.5861397  24.2922497
  33.8692498  56.5728474  24.6738005  33.2448626  56.5516901  25.5669928
  32.9262900  56.6179514  23.3967876  32.2791839  55.7579327  23.5691667
  32.3454642  57.5365734  23.4797144  33.7823939  56.5620279  22.1104574
  33.3105135  57.2196579  21.3804173  34.8122287  56.8846512  22.2636127
  33.9456606  55.1497793  21.4435410  33.7500620  54.1241169  22.0691609
  34.4229889  55.1615620  20.2062941  34.5747519  54.2813587  19.7347891
  34.3406987  55.9473038  19.5770597  34.6647954  55.2497578  24.7104597
  34.1243911  54.2946863  25.3199220  35.8434296  55.1739931  24.1444063
  36.1730886  56.0757685  23.8309884  36.6975784  53.9809322  24.2206168
  36.0458565  53.1373501  23.9931560  37.9069614  54.1142178  23.2185507
  38.6016726  54.9291897  23.4217572  38.4887981  53.2094145  23.3943319
  37.5014186  54.1886330  21.7650628  36.5292668  53.7005329  21.6959310
  37.2161579  55.1908159  21.4451194  38.6206508  53.6300945  20.8583951
  39.8124337  53.7333488  21.1420321  38.2832909  53.0550337  19.7840512
  37.2872710  53.7770128  25.6557035  37.4231339  52.6334476  26.1043644
  37.5379229  54.8518467  26.4045334  37.3180652  55.7375669  25.9717965
  37.9473758  54.8255396  27.8290391  38.7694001  54.1443968  28.0490851
  38.5557604  56.2510586  28.0951500  39.3260717  56.4696646  27.3556018
  37.7931762  57.0286655  28.1386471  39.3453836  56.3831043  29.7104335
  40.1959324  55.3797245  29.4765639  36.7964482  54.4576597  28.8258386
  37.0536852  53.6981821  29.7666788  35.6205606  55.0231934  28.4835863
  35.5702305  55.7041216  27.7393365  34.4039798  54.6726656  29.1872287
  34.6031737  54.7413301  30.2566719  33.2435870  55.5890465  28.6893106
  33.2738066  55.6529379  27.6016045  31.7906547  55.1116228  28.9469886
  31.0278988  55.8609247  28.7352300  31.6759086  54.3156242  28.2112432
  31.7345095  54.6448898  29.9304032  33.4148884  56.9582129  29.4321632
  32.8747463  56.8825722  30.3758907  34.4504976  57.2718000  29.5636034
  32.7801466  58.0940866  28.6233735  33.0824614  59.0460587  29.0597773
  33.1737947  58.1838989  27.6109123  31.7451382  57.8928423  28.3470392
  34.1466784  53.2298517  28.9733934  33.6472750  52.5761366  29.9376774
  34.3899012  52.6001644  27.7854729  34.8322225  53.0674696  27.0069599
  34.1884398  51.2148619  27.5221634  33.2470393  51.0145378  28.0337667
  33.9973140  50.9982920  26.0371137  33.1118917  51.4895868  25.6336832
  34.8388672  51.5596676  25.6312299  34.1398740  49.5548391  25.6112576
  35.0804400  49.2380857  26.0619330  33.2962632  49.0024281  26.0250926
  34.1179061  49.2959499  24.1435933  33.0799532  49.4059515  23.5250163
  35.2026582  48.8926888  23.6050677  35.0409245  48.5421705  22.6717520
  36.0195732  48.8337517  24.1960645  35.1593590  50.3017664  28.2524657
  34.8069143  49.1532612  28.5667467  36.4545679  50.6394005  28.4414721
  36.7549920  51.5654373  28.1725788  37.3160911  49.8593140  29.3429255
  37.1417546  48.8163757  29.0783715  38.7960434  50.2282429  29.1952872
  38.8029933  51.3125849  29.0846014  39.3477702  49.9460030  30.0919724
  39.4402814  49.5518970  27.9550409  38.7768054  48.9548254  27.0683789
  40.6451225  49.6781445  27.7781463  36.7566419  49.8564482  30.7477379
  36.6647291  48.7386608  31.2661719  36.3283896  50.9588718  31.3884807
  36.3480496  51.8501234  30.9137392  35.5943036  50.9303999  32.6367593
  36.2230229  50.3651762  33.3247614  35.3076673  52.3460531  33.1638169
  34.9111509  52.9814339  32.3718786  34.6327138  52.0988226  33.9832139
  36.5025568  53.0338717  33.8308430  36.8125820  52.4818611  35.1226640
  36.2702727  51.6118240  35.4622746  37.8912711  52.9779530  35.8213282
  38.1326485  52.6487255  36.8212032  38.6323500  54.0447521  35.3246880
  39.5162702  54.2589951  35.9070826  38.4328008  54.6623421  34.0007782
  39.1676497  55.3727722  33.6519384  37.2769213  54.0891838  33.2864857
  37.0114636  54.4484472  32.3031926  34.3278337  50.0788736  32.6553440
  34.2316246  49.1319180  33.4084296  33.3075237  50.3458643  31.8412781
  33.3316135  51.1927795  31.2915039  32.1141958  49.4232321  31.8400931
  31.7862558  49.4984770  32.8768659  31.1415458  50.0666142  30.8436489
  31.6043711  50.3240967  29.8909712  30.2434134  49.4820261  30.6443524
  30.5788970  51.3197994  31.5853524  29.7966194  51.3101149  32.5278950
  31.0716438  52.4305248  31.1847091  30.9235597  53.2346201  31.7776656
  31.7278290  52.4622297  30.4175615  32.4945045  47.9448986  31.5512753
  31.9927120  47.1072245  32.2492313  33.5569000  47.6499701  30.7977033
  34.0225053  48.4472418  30.3882289  34.1836405  46.2699270  30.7812166
  33.4646249  45.5098677  30.4755449  35.3596711  46.1212921  29.7623420
  36.2009716  46.7106056  30.1270652  35.9020638  44.6541977  29.6925616
  35.0245929  44.0083313  29.6608663  36.4387488  44.6076250  28.7449837
  36.5335989  44.3694496  30.5340958  34.8534274  46.4813471  28.5238171
  34.8368669  47.4406338  28.4907413  34.6220231  45.7926798  32.1308827
  34.0935612  44.7616625  32.5480986  35.4988813  46.5325689  32.7182460
  35.8411694  47.4004221  32.3312354  35.9362650  46.1876249  34.0551686
  36.5802932  45.3141642  33.9532137  36.7413235  47.3194599  34.6138024
  37.4459004  47.5086212  33.8039303  36.2811685  48.3045578  34.6908784
  37.6054382  47.1131611  35.8436704  37.0415211  46.9144106  36.7550421
  38.2421327  46.3038349  35.4863167  38.7713623  48.4794044  36.1256599
  37.6121068  49.5065498  37.0576119  37.2887635  49.1532087  38.0367517
  38.1335759  50.4521465  37.2060132  36.7182565  49.6159220  36.4434719
  34.8069215  45.7084084  35.0468922  34.8659420  44.6343851  35.6528950
  33.7637210  46.5175676  35.1643157  33.8293672  47.4030733  34.6829939
  32.6911783  46.2012005  36.1184478  33.0915570  45.9520769  37.1011662
  31.8795276  47.4537373  36.4739323  31.1889243  47.5729513  35.6390929
  31.2755823  47.1797180  37.3389578  32.5576520  48.7660360  36.8335104
  33.2530904  48.9649343  38.0091453  33.2390690  48.1777143  38.7483954
  33.9453387  50.1470470  38.2424331  34.5319915  50.1936340  39.1480088
  33.8209271  51.2228870  37.2978878  34.2231083  52.1913767  37.5560999
  32.9910469  51.0684204  36.1312819  32.8671288  51.8828535  35.4328918
  32.4048138  49.8446083  35.9615302  31.7235231  49.6709871  35.1417136
  31.7139721  45.0947571  35.6388545  31.3012767  44.3076372  36.4517164
  31.4704895  45.0362158  34.3622613  31.8947101  45.7599401  33.7998009
  30.7790112  43.9594412  33.6882806  29.8297215  43.8444614  34.2114806
  30.4655623  44.3120861  32.2033787  31.3623166  44.4205332  31.5933180
  29.5889497  43.3155346  31.5005207  29.2292285  43.8197470  30.6035972
  30.1866460  42.4223995  31.3184118  28.7303686  42.9678011  32.0749903
  29.6957874  45.4825974  32.0686221  30.2073669  46.2315273  32.3832488
  31.5114212  42.6578331  33.8399935  30.8222938  41.6696548  34.1630554
  32.7814579  42.5935459  33.6868477  33.2126236  43.4252596  33.3094168
  33.5789204  41.3925123  33.8666940  33.3946800  40.6303930  33.1095099
  35.0902414  41.7450476  33.7058210  35.2786732  42.6304054  34.3130517
  35.6336045  40.8739996  34.0720677  35.6346226  41.9650412  32.3242140
  35.0852084  41.7227793  31.2383366  36.8277764  42.4648380  32.3746324
  37.3972583  42.5851202  31.5492082  37.3033309  42.5250196  33.2636333
  33.3764648  40.7410192  35.2431393  33.1015539  39.5820975  35.4286027
  33.5364294  41.5999556  36.2474990  33.8171458  42.5539303  36.0707879
  33.1333089  41.1612940  37.6491714  33.8016200  40.3919220  38.0358624
  33.2667351  42.4361372  38.5733080  34.3091440  42.7526522  38.5372138
  32.6366782  43.2383442  38.1891155  32.9023147  42.1745157  40.3318930
  31.6753173  41.7041492  40.0907898  31.6003704  40.5586433  37.7081180
  31.3191223  39.6130276  38.4501290  30.6151104  41.2323093  36.9959998
  30.7740474  42.1355152  36.5728450  29.1878939  40.7653952  36.9682670
  28.8004947  40.4948664  37.9505277  28.2598209  41.8252468  36.2848186
  28.6736441  42.1282053  35.3230143  27.2020960  41.5621233  36.2936568
  28.3225536  43.1800795  36.9446325  28.7460518  43.4093046  38.2814789
  29.0095019  42.5822735  38.9241409  28.9430833  44.6920109  38.8352609
  29.3564939  44.8160267  39.8252678  28.4370041  45.7684755  38.0833554
  28.4510159  47.0002699  38.6334705  28.2306194  47.6813555  37.9938269
  27.9978371  45.6259251  36.7508578  27.7529669  46.5042496  36.1720681
  27.9076362  44.3227911  36.1830902  27.5405526  44.1781378  35.1777434
  28.9973307  39.4406199  36.1835599  28.0021739  38.7663674  36.3990211
  29.9702930  39.1435289  35.2958822  30.7572579  39.7725701  35.3672552
  30.0396419  37.8384113  34.6065021  29.0278101  37.5312233  34.3420577
  30.8262324  38.0433655  33.2976842  31.7914605  38.5128450  33.4874892
  31.0769176  36.6839170  32.6258516  31.6564083  36.8210125  31.7128921
  31.6199517  36.0622716  33.3377337  30.1266813  36.1967254  32.4072242
  30.0792694  39.0197015  32.3758721  29.2093182  38.4484577  32.0518875
  29.8061275  39.9080729  32.9453373  30.9131742  39.4555306  31.1065984
  30.2696967  40.1241159  30.5347323  31.7806959  40.0183153  31.4512444
  31.0459161  38.5911989  30.4558992  30.5887580  36.8251801  35.6656003
  29.8889351  35.9111500  36.0551977  31.8626094  37.0454693  36.1488676
  32.4473572  37.8287959  35.8947515  32.5228810  35.9925675  36.9284320
  32.4511433  35.0346875  36.4132404  33.9842153  36.2759018  36.9415808
  34.2927885  36.7043352  35.9879947  34.1203403  37.0936036  37.6493478
  34.8501611  35.1079178  37.2429776  35.0194168  34.0613031  36.2480927
  34.6606302  34.2500210  35.2470589  35.7898879  32.8969550  36.5819430
  35.9066391  32.0726228  35.8940148  36.3750148  32.7656889  37.8694630
  37.1315408  31.6606617  38.1241488  36.9089389  30.9379625  37.5327492
  36.1989331  33.7800932  38.8093686  36.6547155  33.7478232  39.7879505
  35.4962444  34.9858475  38.4606385  35.3204441  35.7243776  39.2287970
  32.0640874  35.8018565  38.3910418  32.3383951  34.7576642  38.9942312
  31.2214375  36.7023516  38.9962864  31.0665560  37.5866842  38.5336137
  30.7671118  36.4745998  40.4032421  31.1649847  35.5289721  40.7714558
  31.2447572  37.6820230  41.2763309  30.7840514  38.5409474  40.7883787
  30.7591820  37.5971413  42.2484970  32.7780175  37.7913570  41.3883543
  33.3721185  36.9410086  41.9751835  33.3839488  38.6765623  40.6634951
  34.3718648  38.5063434  40.5403948  32.8588891  39.1341066  39.9320126
  29.2292476  36.4086199  40.4494572  28.5021424  36.9300604  39.5819402
  28.7087131  35.9885931  41.5997505  29.3094134  35.5137777  42.2583914
  27.2860765  36.0684752  42.0013285  26.7040086  35.7195354  41.1483669
  26.9362164  35.1538610  43.2299423  27.4230099  34.1944289  43.0549574
  27.3151255  35.5279732  44.1810369  25.3603816  34.9601340  43.3105612
  24.8403478  35.9102178  43.4330702  25.1315045  34.5561194  42.3244143
  24.9849749  33.8624263  44.3141651  23.9076376  33.6970067  44.3231678
  25.4663873  32.9643011  43.9272404  25.5613565  34.0855551  45.7204533
  25.3253841  33.2330251  46.3573265  26.6472101  34.0621066  45.8125019
  25.0222993  35.4287934  46.2896872  25.6046176  35.8541965  46.9968176
  24.9943829  36.0908794  45.5274820  24.1157913  35.4440331  46.7347813
  27.0108056  37.4990964  42.3547363  27.7766347  38.0559325  43.1739473
  25.8997273  38.0815029  41.8835783  24.9702263  37.6353216  40.7668495
  24.5601010  36.7023993  41.1535692  25.4209685  37.4968457  39.7841215
  23.9352155  38.7584138  40.6874990  22.9744506  38.5149479  40.2338839
  24.4785237  39.5455098  40.1646280  23.8558292  39.2010641  42.1311045
  23.2557940  38.5260034  42.7413130  23.4511256  40.2113914  42.1906948
  25.2581787  39.1778517  42.5696421  25.7560682  40.0479507  42.1417046
  25.4038167  39.1544461  44.1394281  25.1038885  38.1450200  44.7612381
  25.8824110  40.1884794  44.7550631  26.1684299  41.0199738  44.2581654
  25.9641147  40.2843237  46.2352133  25.9711409  41.3478994  46.4736652
  25.0106072  39.9408817  46.6364193  27.2380495  39.6943378  46.9185448
  27.3675156  39.7637129  48.1345510  28.1433415  39.1041446  46.0977793
  27.9205561  39.0068936  45.1174688  29.4875145  38.7987757  46.4834261
  29.3363738  38.2555294  47.4162436  30.3949213  38.1278419  45.4107857
  30.0885701  38.4859133  44.4279146  31.4410114  38.4024167  45.5464602
  30.2815580  36.5975046  45.3681612  31.1321020  36.0563493  44.6391392
  29.4317865  35.9431887  46.0664892  30.1955366  40.1268959  46.7494297
  30.0093174  41.1692524  46.1446857  31.2018800  40.1512718  47.6516104
  31.5134430  39.2781043  48.0523682  31.8164515  41.4183998  48.1026554
  30.9466362  41.9653749  48.4664631  32.7557540  41.0966206  49.3516970
  33.5021567  40.4102087  48.9519119  33.2203889  42.0166302  49.7063732
  32.0144391  40.3886604  50.4177523  32.4838471  39.3373466  50.8576250
  30.9205151  40.8083105  50.9227753  32.5902081  42.1676922  47.0503902
  32.5452805  43.4265900  47.0163822  33.3493614  41.5088749  46.1961555
  33.5810542  40.5383921  46.3529396  34.0073466  42.0811462  44.9821472
  34.6936131  42.8719282  45.2851295  34.8164868  41.0515261  44.2038965
  35.5965972  40.6116199  44.8252010  33.9441395  39.8938060  43.7325287
  34.4290805  39.1080904  43.1532240  33.4852552  39.4470954  44.6145582
  33.0992746  40.3349400  43.2036591  35.5381370  41.6512060  42.8920794
  36.0133457  40.8332443  42.3505878  34.7083855  42.0003796  42.2775126
  36.5813684  42.7103615  43.2296658  37.1421981  42.9235268  42.3196459
  36.1322141  43.6081076  43.6544228  37.3272347  42.4174547  43.9685774
  32.9561234  42.8170633  44.0873194  33.2073259  43.9062977  43.5725689
  31.7479157  42.2715998  43.8681316  31.5357709  41.4405441  44.4014645
  30.6024194  43.0195379  43.3455706  30.7886696  43.4672642  42.3693752
  29.3102431  42.1676731  43.0785799  29.1505885  41.6113997  44.0022564
  28.0631328  42.9792166  42.6542616  27.2121310  42.3577213  42.3756218
  27.7393842  43.7081194  43.3972216  28.2780266  43.4978056  41.7199278
  29.6213222  41.0453749  42.0807266  30.0974441  41.3645029  41.1535931
  30.2932644  40.3278446  42.5516272  28.6494350  40.5896521  41.8913698
  30.2268958  44.2542601  44.2078161  29.9116993  45.2894306  43.6568117
  30.2558017  44.1127205  45.5226851  30.6556940  43.2465267  45.8542061
  29.8764229  45.1739120  46.4514780  28.9013100  45.4940271  46.0843420
  29.7020054  44.8469877  47.9626894  30.6497335  44.7243595  48.4869719
  29.3841195  45.7864571  48.4148550  28.6791539  43.7599468  48.2792902
  28.8333178  42.8641176  47.6777697  28.5157084  43.4210348  49.7748995
  28.0804706  44.2183733  50.3773260  27.9692483  42.4938965  49.9478197
  29.5235467  43.2628059  50.1587296  27.3410392  44.3140936  47.9830551
  27.2027946  44.4097090  46.9060946  26.4721155  43.7025881  48.2262278
  27.1490955  45.2647400  48.4805870  30.7772756  46.4645147  46.2540913
  30.3101730  47.5688267  46.0643673  32.0869637  46.1835957  46.2005711
  32.4132109  45.2367401  46.3314486  33.0416799  47.1093559  45.6238174
  32.9841495  47.9956102  46.2557554  34.4488955  46.5776253  45.7096052
  34.4429088  45.6401491  45.1535416  35.1523089  47.2816181  45.2649593
  34.9113059  46.3361120  47.1484900  34.7560048  47.2476101  47.7256823
  34.2895389  45.5396795  47.5573969  36.6473913  45.7970142  47.2109222
  36.9961810  45.8888245  48.9879608  36.4584470  45.0927353  49.5029211
  38.0254579  45.5596447  49.1305494  36.7032504  46.8727636  49.3542385
  32.7271485  47.5857067  44.2064667  32.7461147  48.8034248  44.0241051
  32.6064873  46.6782236  43.2533693  32.7345943  45.7091951  43.5076809
  32.4881864  47.0285559  41.8415451  33.3773375  47.6042652  41.5845013
  32.4660420  45.8689499  40.8734274  33.2313895  45.1510525  41.1683321
  31.4510775  45.4742765  40.9202003  32.6053309  46.2751532  39.8715806
  31.2520242  47.8521776  41.4684916  31.3249707  48.8570547  40.7498312
  30.1128244  47.5738049  42.1096897  29.9809098  46.6441393  42.4817419
  28.9168549  48.4606981  42.1669865  28.5989428  48.6443233  41.1406755
  27.7861667  47.7797461  43.0681133  28.2300854  47.3038530  43.9425039
  27.1505904  48.5691929  43.4692526  27.0021629  46.8071985  42.1309662
  26.8354964  47.2984362  41.1723185  27.5780773  45.8893824  42.0124960
  25.6322074  46.4593649  42.6970005  25.0124931  47.1738195  43.5405540
  24.9872255  45.4743099  42.2396088  29.2431521  49.8464346  42.7342892
  28.9458156  50.8256388  42.0857668  29.8956919  49.9910879  43.8952637
  30.0318146  49.1336870  44.4114399  30.2398181  51.3167334  44.4773912
  29.3163228  51.8956470  44.4665432  30.6130075  51.0669947  45.9619665
  31.4330649  50.3502464  46.0052204  30.9334302  52.0371532  46.3417292
  29.8493910  50.6201410  46.5986013  31.2622714  52.1596146  43.6746979
  31.0740948  53.3902740  43.5411549  32.2301412  51.5259695  43.0565691
  32.2717333  50.5511808  43.3176422  33.0540752  52.1231604  41.9511700
  33.3338785  53.1079102  42.3254490  34.2050171  51.1679935  41.7387056
  33.8627529  50.1583958  41.5114069  34.7917914  51.5254164  40.8925104
  35.1944065  51.1762285  42.9377651  34.6343327  50.6989002  43.7418699
  36.4349484  50.3003550  42.7662611  37.3221850  50.8330345  42.4239779
  36.5471077  49.9566507  43.7945604  36.2831688  49.5781565  41.9640827
  35.6423712  52.5564051  43.3516312  36.0272217  53.0411386  42.4544001
  34.8335576  53.1232214  43.8127613  36.4274907  52.5561619  44.1077328
  32.2468638  52.4944687  40.6676674  32.4661136  53.5650539  40.1768112
  31.2915230  51.6988420  40.1463842  31.3057065  50.7351971  40.4485273
  30.4197621  52.0388699  39.0362167  31.0602617  52.3014879  38.1942558
  29.5482206  50.8346224  38.4919548  30.2829623  50.0319767  38.4285378
  28.8946152  50.5448008  39.3146968  28.8363886  51.0738707  37.1745276
  28.2878256  52.0091629  37.2859430  29.6341634  51.0908842  36.4319873
  27.8996778  49.9029255  36.7745924  27.3207831  49.1973925  37.6169395
  27.7741003  49.7328949  35.5386639  29.5803261  53.3186388  39.3646312
  29.4368362  54.2513514  38.5446072  28.9664817  53.2722950  40.5558634
  29.1376829  52.4188185  41.0680866  28.1291318  54.2887449  41.0927534
  27.3639274  54.5487404  40.3613377  27.6069593  53.9950180  42.4790001
  28.4584618  53.7495708  43.1136656  27.2073555  54.9312401  42.8687429
  26.5725732  52.9053164  42.5875664  25.7269955  53.2459927  41.9900417
  26.8859124  52.0824289  41.9450903  26.0747051  52.4470186  43.9967823
  25.3318262  51.6753244  43.7949800  26.9268703  52.0397472  44.5408869
  25.3401899  53.5926151  44.7786236  26.0915232  54.3798161  44.7160530
  24.4800615  53.9991379  44.2466259  25.0235510  53.1342030  46.1785316
  24.6355391  52.2072935  46.2804461  25.8725834  53.2873678  46.7036819
  24.2967653  53.7322235  46.5449381  28.8705754  55.5888176  41.2249470
  28.4190917  56.6530371  40.8557701  30.1665521  55.5885458  41.6135359
  30.5290270  54.7978258  42.1268415  31.0647798  56.7502308  41.6335678
  30.4786849  57.6297283  41.9001961  32.1912622  56.4479017  42.6282024
  31.6956902  56.3826275  43.5968351  32.5332117  55.4437304  42.3775721
  33.2861042  57.5662994  42.6314497  33.6862469  57.9077721  41.6767836
  32.8814363  58.7901640  43.4077930  33.6333442  59.5760489  43.4793234
  31.9779801  59.2482662  43.0052900  32.6661086  58.5940313  44.4581556
  34.4597650  57.0408344  43.3967352  34.8873305  56.1446285  42.9471779
  35.2503657  57.7908516  43.3737469  34.1458702  56.8512011  44.4231844
  31.5670085  57.1819687  40.2233362  31.7018056  58.3774805  39.9851561
  31.8175459  56.2193346  39.2935205  31.6583896  55.2548265  39.5474887
  32.2622275  56.4907694  37.8933907  33.1631517  57.1020508  37.8407383
  32.6248479  55.1107025  37.2562408  33.4190178  54.5932150  37.7943897
  31.8483448  54.3476439  37.3100328  32.9828525  55.2140331  35.7973123
  32.0350838  55.1272583  34.7585011  30.9772897  54.9851084  34.9236345
  32.3924541  55.3754759  33.4288692  31.6741729  55.2436972  32.6331830
  33.7402844  55.6612206  33.0863047  34.0322065  55.8354759  32.0612121
  34.6932459  55.8119154  34.1194367  35.7148838  56.1065197  33.9300561
  34.3353796  55.5688286  35.4864764  35.0249600  55.6896639  36.3088369
  31.1892581  57.3223782  37.1843863  31.4650536  58.3451176  36.5485716
  29.9367809  56.8773174  37.2288132  29.7111750  55.9613991  37.5897765
  28.7324929  57.4817324  36.7117572  28.8819623  57.6866245  35.6516743
  27.5376487  56.6591978  36.9963670  27.5424767  56.4353704  38.0631328
  26.5758181  57.1261168  36.7843080  27.4119115  55.3060436  36.3077211
  28.3599210  54.7685432  36.3292670  26.2733507  54.5038986  36.9241166
  25.3331590  55.0463676  36.8247914  26.1130381  53.5526228  36.4166975
  26.5065503  54.2743874  37.9638529  27.2075391  55.5891657  34.8313642
  28.0922031  55.9798574  34.3285322  26.8977475  54.7294903  34.2371488
  26.3781571  56.2574577  34.5998263  28.4589601  58.9123774  37.3161054
  28.2323885  59.7518969  36.4944649  28.6719465  59.1585159  38.6134338
  28.6922264  58.3044815  39.1522408  28.5414028  60.4676867  39.1966534
  27.5072217  60.7590914  39.0131998  28.8305616  60.4947186  40.6938410
  28.3619428  59.5846939  41.0684824  29.9093246  60.3866959  40.8065414
  28.3516884  61.6755056  41.5806246  27.3508883  61.9623995  41.2578344
  28.1110692  61.3364697  42.5882196  29.3890166  62.8289652  41.6986227
  30.0773120  62.8977680  42.6482630  29.6697617  63.6320257  40.6809187
  30.3876543  64.3315077  40.8052301  29.0588737  63.6071825  39.8769975
  29.4305420  61.5143871  38.5090423  28.9650011  62.5860548  38.0909038
  30.6804562  61.1611223  38.2359409  31.0226274  60.3300571  38.6967564
  31.6220117  62.1184731  37.6758599  31.3243771  63.1138134  38.0057335
  33.0634570  61.8570089  38.1356764  33.2053614  60.8455181  37.7550936
  33.7104702  62.5216103  37.5631571  33.3766055  61.9100666  39.6466565
  32.5612307  61.4386463  40.1953077  34.2916536  61.3454342  39.8254704
  33.4647250  63.3686256  40.1624823  34.3925905  63.8762045  39.8987913
  32.6511431  63.9788246  39.7702527  33.3476186  63.4395981  41.6424513
  32.4600983  62.9702091  42.0668173  34.1693020  62.8328276  42.0229340
  33.4367895  64.8391151  42.0615387  33.3278751  65.0372982  43.0458975
  34.3489242  65.2446461  41.9077110  32.8304386  65.3893518  41.4702082
  31.4293337  62.2706509  36.1472368  31.6851783  63.3800220  35.7455301
  30.9350967  61.3017416  35.4113126  30.8373284  60.3845978  35.8228827
  30.3873587  61.4383554  33.9894342  31.0900903  61.9824076  33.3583403
  30.1695037  60.0192213  33.4867048  29.6311975  59.3940735  34.1991067
  29.3673849  60.0953197  32.1577096  29.7500539  60.7734585  31.3949585
  29.2360425  59.0698004  31.8125057  28.3712626  60.3802681  32.4963069
  31.5199184  59.3112278  33.0545545  31.9027019  58.9944983  34.0247393
  31.3410783  58.3713579  32.5322914  32.7205157  60.0540447  32.4727583
  33.4947157  59.3023491  32.3188853  32.4272633  60.3580379  31.4679265
  33.0123687  60.9367609  33.0417347  29.1130400  62.3737526  33.9330363
  29.0285540  63.2484007  33.0771971  28.2747436  62.3837519  35.0007081
  28.3568811  61.6377831  35.6766415  27.1768451  63.3529568  35.1496458
  26.6521096  63.4829569  34.2031455  26.1700249  62.9093313  36.2576342
  25.7890463  61.9083500  36.0551500  26.7188287  62.9030848  37.1993756
  25.0058913  63.8232517  36.4034820  24.8770070  64.7025633  37.2336531
  23.9471173  63.5192537  35.6057405  23.0823064  64.0398836  35.6396604
  24.0007710  62.6568031  35.0828624  27.7451181  64.7549009  35.4921675
  27.1444106  65.7779598  35.1023817  28.8544774  64.8727703  36.2710714
  29.0721536  64.0836763  36.8627214  29.3697691  66.1861944  36.7056298
  28.5374737  66.8574381  36.9173503  29.9590540  65.9962797  38.1308246
  29.1977620  65.7015800  38.8531041  30.6924701  65.1904202  38.1026244
  30.6810021  67.2449207  38.7164426  31.6210270  67.4955654  38.2248807
  30.0850487  68.1562090  38.7663293  31.0513687  66.9689798  40.2004623
  31.5179992  65.8536434  40.4220247  30.7956123  67.8111506  41.1364412
  30.3806806  66.8157387  35.7533956  30.5284739  68.1025743  35.8567667
  31.0379910  66.0390282  34.8752904  30.9191084  65.0504732  35.0447679
  32.0041418  66.4799452  33.8201427  33.0181646  66.5802145  34.2071962
  32.1007276  65.3514004  32.8008437  32.6734209  64.6146488  33.3641529
  31.0956955  64.9683428  32.6239777  32.7830577  65.6207752  31.4467287
  32.2294092  66.4186335  30.9517550  34.1945124  66.0899925  31.4885926
  34.4566345  66.6939592  30.6199002  34.3096042  66.8991375  32.2098041
  34.8426676  65.2264357  31.6377997  32.6321340  64.3147755  30.5866528
  33.3917093  64.2979622  29.8050690  32.7686572  63.4169006  31.1893797
  31.6439867  64.4489193  30.1465678  31.5615845  67.8423071  33.2173872
  30.5334949  67.8537083  32.5703216  32.3139381  68.9389706  33.4452009
  33.2994270  69.1531658  34.5483088  34.2866302  68.9691639  34.1244292
  33.1220794  68.6443138  35.4957914  33.2327843  70.6768370  34.8195195
  34.1315889  71.1764669  35.1809382  32.3821640  70.9149027  35.4581690
  32.8286314  71.1613798  33.4020948  33.6371279  71.2114286  32.6727557
  32.3001790  72.1062851  33.5285664  31.7866325  70.1975775  32.9169989
  30.8788204  70.3921890  33.4880567  31.5346432  70.3665447  31.4100003
  32.4644423  70.1350594  30.6329656  30.3374815  70.6492710  30.9738541
  29.5812249  70.7283258  31.6386294  29.8596621  71.0027409  29.6144032
  30.4536724  70.4756355  28.8678050  28.3747983  70.5081844  29.3946576
  27.9580212  70.8922625  28.4635925  28.2072568  68.9980459  29.6287322
  28.6712551  68.6602879  30.5554056  27.1880937  68.6716557  29.8357964
  28.6336899  68.5104895  28.7520647  27.6263142  71.1397648  30.3928113
  27.9043317  72.0526266  30.2879596  30.1425552  72.4640894  29.3841028
  29.2628407  73.2752848  29.7184229  31.1819434  72.8304768  28.7966299
  74.3871975  54.1108227  56.7873383  73.4496784  54.4564915  56.6401434
  74.3750858  53.2458019  56.2660980  74.9555111  54.7827435  56.2917042
  74.7852230  54.0032768  58.1700087  75.6547356  53.3459711  58.1687355
  75.1371908  55.3825855  58.7586832  75.7447195  55.8486557  57.9829359
  74.2441988  55.9859657  58.9218044  76.0908365  55.2570200  60.0247145
  75.6060886  54.6126509  60.7581377  76.9519377  54.6748734  59.6965170
  76.3398409  56.7078590  60.6826496  75.3442478  57.0796776  60.9248257
  76.8770218  56.6677332  61.6302395  77.0711327  57.6554441  59.7912550
  77.9964161  57.1840906  59.4599247  76.4245224  57.8222656  58.9297628
  77.3707390  59.0026665  60.3343391  76.5453053  59.4915628  60.6501532
  78.0693817  58.9629173  61.0626411  77.6948833  59.5602846  59.5571041
  73.6580849  53.2911968  58.9046431  72.5227833  53.7916136  58.8244104
  73.8331699  52.2143364  59.5901251  74.7382879  51.7661572  59.5907116
  72.7364206  51.3523674  60.1206875  72.1092558  51.1044884  59.2643404
  73.3963966  50.1103163  60.7580233  73.9400339  50.5005360  61.6184235
  72.3317003  49.1062260  61.2188148  71.6581249  48.7396574  60.4441977
  72.7473974  48.2980490  61.8205976  71.6177368  49.6142721  61.8670797
  74.4525957  49.3119144  59.9724293  74.9476480  48.5725212  60.6019831
  74.0797615  48.8028574  59.0836334  75.2916336  49.9136591  59.6231222
  71.8834925  52.1081686  61.1427164  70.6332779  52.0410538  61.2632847
  72.5993013  52.8696632  61.9734430  73.5894775  53.0272388  61.8517017
  71.9445896  53.6489582  63.0452108  71.4556217  52.9725885  63.7463140
  73.0881310  54.4585180  63.7058926  72.7617598  54.9351549  64.6302319
  73.7759876  53.6971760  64.0737295  73.8167858  55.2612495  62.8133059
  73.3541679  56.1017227  62.8479481  70.8688450  54.6691751  62.5625086
  69.9221182  55.0144434  63.2697105  70.9066200  55.0181341  61.2439489
  71.7277002  54.7008801  60.7486916  70.0075531  55.9715271  60.6223631
  69.4439459  56.5213490  61.3761139  70.7179689  57.0815992  59.7507524
  71.0269165  56.7280674  58.7670517  69.9272346  57.7986717  59.5301867
  71.9289446  57.8931808  60.3277588  72.9006338  57.4285889  60.1602173
  71.8527412  58.8132381  59.7482777  71.9051075  58.0786085  61.9058561
  72.8130770  57.5727940  62.6881552  70.9207582  58.7415886  62.3288250
  68.9638281  55.3267574  59.6629477  67.7541876  55.7333803  59.4922876
  69.3912125  54.2376661  59.0370989  70.3186989  53.8511181  59.1393042
  68.3851147  53.2216072  58.4922409  67.7724504  53.6313200  57.6891994
  69.1139317  51.9899559  58.0099440  69.6448517  51.5073538  58.8305044
  68.3484030  51.3090372  57.6379061  70.0143671  52.3046684  56.8033791
  69.3936110  52.6851082  55.9921885  70.7386112  53.0708122  57.0801306
  70.7751131  51.1562157  56.1678600  70.3867197  49.9902487  56.3645744
  71.9229364  51.3629484  55.5041647  72.4214554  50.5949402  55.0778532
  72.2872782  52.2836971  55.3052092  67.3606491  52.6839781  59.4924974
  66.1753845  52.7393293  59.1562986  67.6476765  52.3363733  60.7682133
  68.6184931  52.2889137  61.0427380  66.6123152  51.9682503  61.7841959
  66.0131407  51.2091684  61.2813234  67.2735167  51.2716341  63.0265760
  68.0485392  51.9523573  63.3787918  66.5762901  51.2493992  63.8641214
  67.8150368  49.8314953  62.7767277  68.0108070  49.7470188  61.7077827
  69.1101122  49.5700932  63.5250759  68.9027548  49.5929384  64.5949268
  69.6240950  48.6282396  63.3331490  69.8210573  50.3660059  63.3033085
  66.8468475  48.7145567  63.1604052  67.1039963  47.8004122  62.6253319
  66.6855240  48.7122107  64.2384005  65.8840370  48.9974642  62.7348852
  65.6246614  53.1080437  62.0711851  64.5101643  52.8420067  62.4092865
  66.0103321  54.4109154  61.8491268  66.9989204  54.5576906  61.7033577
  64.9863815  55.5460024  61.8019676  64.3326473  55.4980278  62.6728487
  65.7061911  56.8985224  61.9739866  66.3230515  57.0879936  61.0955238
  64.9975348  57.7257872  62.0132208  66.5716743  57.0403337  63.2304192
  65.8839464  56.8454218  64.0533066  67.3359156  56.2677288  63.3147955
  67.1940041  58.4447575  63.3634281  67.7190876  58.7005520  62.4431276
  66.3597679  59.1296768  63.5151863  68.1636143  58.6149645  64.5790291
  68.3149290  59.6731329  64.7923136  67.6964903  58.1825018  65.4638290
  69.4481754  57.8954172  64.4376183  69.9916267  58.0581474  65.2732563
  69.3425083  56.9007730  64.2975664  70.0220585  58.3284283  63.7282085
  64.1157913  55.5050039  60.5891466  62.9317522  55.7438993  60.7575226
  64.6819592  55.1653719  59.4459486  65.6555271  54.9041319  59.5093679
  63.8838196  55.2524614  58.2105637  63.2708359  56.1413145  58.0612469
  64.8279190  55.2500343  57.0909119  65.3934717  56.1816740  57.1080351
  65.5591297  54.4424057  57.1251392  63.9304161  55.2002048  55.5556631
  63.0877209  56.1508751  55.9691572  62.8317022  54.1004705  58.2608938
  61.6352177  54.3103456  57.9086208  63.1807899  53.0211306  58.9431572
  64.1665173  52.8540468  59.0864277  62.3199511  51.8564606  59.2971897
  62.0721245  51.3942909  58.3416367  63.2743597  50.8792830  59.9997044
  63.8872814  51.3815928  60.7481098  62.8083992  49.9895048  60.4231167
  64.4155836  50.3070021  58.7733650  65.4725027  51.0969448  58.9826679
  61.0617924  52.1717215  60.1463842  60.0081396  51.6168928  59.8631191
  61.1695766  53.1096649  61.0901976  62.0814800  53.5261869  61.2128544
  60.0893545  53.6953545  61.8621397  59.5328522  52.8384924  62.2418642
  60.6845140  54.4946241  63.0162573  61.2166071  53.7985945  63.6647320
  61.3217735  55.2507734  62.5577354  59.7228479  55.1620913  63.7684727
  59.2680597  54.6237659  64.4203758  59.1364622  54.5120478  60.9945107
  57.9467249  54.3809175  61.1495829  59.5591879  55.3448486  60.0636482
  60.5636501  55.4292440  60.0001335  58.7562323  55.9131384  58.9699268
  57.9792786  56.5877390  59.3295956  59.3358707  56.5262318  58.2798243
  58.1469297  54.8748350  58.0058336  56.9985628  55.0533390  57.6344347
  58.8949156  53.8571978  57.5202894  59.7969246  53.7397671  57.9592562
  58.4378815  52.6951170  56.7263269  58.0595350  53.0185461  55.7566118
  59.6081448  51.7592573  56.3786793  60.1267481  51.5180063  57.3065567
  59.0809107  50.3596926  55.9269094  58.5878325  49.8358583  56.7457914
  58.5372305  50.3867054  54.9825621  59.9060869  49.6729851  55.7381868
  60.5477953  52.3885059  55.3582907  59.9266672  52.7837610  54.5545053
  61.0242081  53.2382154  55.8472967  61.6545010  51.5240145  54.8356867
  62.1960020  51.1854839  55.7190180  61.3377619  50.6694508  54.2377758
  62.4239206  52.1064472  54.3288612  57.2083521  51.9664526  57.3995161
  56.1774540  51.8521309  56.7570543  57.3340368  51.6437101  58.6817312
  58.2877254  51.6930914  59.0105724  56.2962818  50.9484577  59.4355392
  55.9597731  50.1432943  58.7824106  57.0531464  50.3170538  60.6464863
  57.9474354  49.8952913  60.1877165  57.4022245  51.0642242  61.3592100
  56.2007904  49.1732025  61.3515711  55.1835203  49.5307159  61.5111017
  56.1377001  47.8798294  60.5133772  55.3669596  47.9540253  59.7462034
  57.0718527  47.8015089  59.9572039  55.8940649  47.0011234  61.1105490
  56.8652439  48.7987471  62.6761103  56.4270496  47.8729296  63.0488682
  57.9471350  48.6760426  62.6255751  56.7958260  49.6399784  63.3657503
  55.0962496  51.7849588  59.8548985  53.9610672  51.3770533  59.6355295
  55.2957964  53.0680084  60.0974751  56.2722683  53.2724667  60.2549505
  54.2904234  54.1973495  60.2892399  53.5997248  53.9580822  61.0978127
  55.0424623  55.3377581  60.8942842  55.4279566  55.0603294  61.8753672
  55.8237982  55.6671476  60.2093601  54.2521000  56.6942167  61.1700964
  53.9248943  57.1015310  60.2134705  53.3183098  56.5134716  61.7025042
  55.0440168  57.7805853  61.8419981  55.0318146  57.6813507  62.9274035
  56.0482073  57.5771809  61.4700699  54.7195578  59.1828489  61.3766623
  55.4419947  59.8983574  61.7693901  54.5526838  59.2623472  60.3024530
  53.4153128  59.5748281  61.9396496  52.6516008  59.0925932  61.4876604
  53.2866764  59.3761635  62.9215193  53.2392311  60.5641556  61.8379831
  53.5508537  54.5355129  58.9856815  52.3585939  54.7372293  59.0140343
  54.1628408  54.5068693  57.8335333  55.1527691  54.3612814  57.9711962
  53.5388851  54.5428991  56.5082598  52.8369379  55.3767824  56.5055227
  54.7371197  54.6374941  55.4554081  55.3750706  55.5045986  55.6264353
  55.3633213  53.7471771  55.5129480  54.2620945  54.4639778  54.0054274
  55.0551414  54.7031355  53.2969189  53.9351892  53.4255314  53.9519215
  53.1316948  55.3799868  53.5493612  52.5650740  55.1139164  52.4770546
  52.6817989  56.3392019  54.2319584  52.5401735  53.4093714  56.2478399
  51.3628244  53.6476135  56.0399675  53.0523205  52.1563816  56.3837957
  54.0575027  52.0613098  56.4097452  52.3100138  50.9296942  56.2497854
  52.0784807  50.8730936  55.1861668  53.1830454  49.7447014  56.4839077
  53.8193417  49.8173285  57.3659229  52.5229454  48.8821507  56.5754271
  54.3468523  49.5994282  55.4049492  53.9343548  49.2844391  54.4464445
  54.6903133  50.6210041  55.2420807  55.6743002  48.4888458  55.7280684
  54.6741772  46.9672060  55.8248806  53.8125753  47.1665621  56.4620590
  54.4193220  46.7085886  54.7971296  55.3386545  46.2274599  56.2713671
  51.0105753  50.8625650  57.1582842  50.0145483  50.1893663  56.7961311
  51.0612345  51.4947224  58.3509874  51.9183874  51.9720316  58.5909224
  49.9614859  51.5669155  59.2683601  49.5451212  50.5729675  59.4320774
  50.5473948  52.1209478  60.6163454  51.4337444  52.6943779  60.3449392
  50.0040293  52.8374863  61.2323236  50.7957315  51.0582685  61.6476107
  52.0533657  50.8182764  62.2004986  52.9226971  51.3995361  61.9306803
  52.2375584  49.7485399  63.0885458  53.2672501  49.6273375  63.3909369
  51.2234306  48.9082479  63.4693432  51.4697313  48.1276751  64.1739273
  49.8905993  49.1922283  63.0293131  49.0328074  48.6257410  63.3605003
  49.6655226  50.2050638  62.0751047  48.6735296  50.3554487  61.6754436
  48.7954617  52.4290895  58.8261557  47.8081226  52.6066971  59.5543718
  48.8964128  53.1668282  57.7378750  49.7376204  53.1452990  57.1792936
  47.9285526  54.2187929  57.5401115  47.7740574  54.7834969  58.4595346
  48.6108685  55.1119280  56.5090704  49.0477180  54.5985126  55.6525278
  48.0091143  55.9664488  56.1995697  49.4077301  55.6362057  57.0365667
  46.4870787  53.7782145  57.2225761  46.2630367  52.6945543  56.6566038
  45.5884457  54.7009325  57.5579929  45.8801985  55.3804016  58.2459641
  44.1949892  54.5506668  57.1686172  43.8939714  53.5677290  57.5310040
  43.3005142  55.5636168  57.9100752  43.7190104  56.5668774  57.8298950
  42.3929310  55.5378389  57.3069763  43.0684090  55.1566219  59.2762136
  42.7537632  54.1134691  59.3068409  43.9572001  55.4120255  59.8531961
  42.0345688  56.1565495  59.7974825  42.4872017  57.1481037  59.8047161
  41.2712240  56.0505056  59.0266657  41.3657331  55.8155727  61.0349131
  40.7925940  54.9047518  60.8616495  42.0931244  55.6243801  61.8238688
  40.5191231  56.8853283  61.5786123  39.9438143  57.4177074  60.9416676
  39.9105453  56.5323591  62.3032808  41.1100435  57.5811815  62.0107079
  43.9668274  54.4987345  55.6614971  42.9196167  54.0183258  55.1989460
  44.8949671  55.0079966  54.8398018  45.6773520  55.5290890  55.2091742
  44.8558283  54.8804712  53.3277130  43.8292646  55.1547813  53.0847454
  45.7781792  55.9402990  52.6535940  45.6056166  56.0746050  51.5857506
  45.5026865  56.9211292  53.0411339  47.2214079  55.6383085  53.0173063
  47.3506737  55.7706165  54.0914965  47.4668407  54.6349144  52.6693630
  48.2119989  56.6417170  52.3724079  47.9930639  56.5469599  51.3088322
  47.9572201  57.6269484  52.7629280  49.6680641  56.3681173  52.6755524
  49.7088861  56.6265392  53.7336874  49.8368788  55.3013563  52.5284863
  50.6702518  57.2153473  51.9955158  51.5348387  56.7475033  52.2272873
  50.5234575  57.1740055  50.9970951  50.7479382  58.1356001  52.4044228
  45.1540995  53.4213686  52.9254723  44.8414326  53.1036234  51.8132019
  45.7087994  52.6312208  53.8013172  45.7789564  52.8825188  54.7770357
  45.9650803  51.2231350  53.5274506  45.8439445  50.9782553  52.4722433
  47.4122953  50.9181261  53.9353371  47.4974823  51.1141968  55.0041676
  47.6657724  49.8756647  53.7426329  48.5202312  51.7414951  53.2819557
  48.5873079  52.1773767  51.9606876  49.6989536  52.8431845  51.7974520
  50.0495815  53.3164215  50.8921862  50.3241968  52.9583502  52.9770899
  51.1526871  53.5026646  53.1705427  49.6582985  52.1632147  53.8869095
  49.8176670  52.1439552  54.9549198  44.8538685  50.3228426  54.1777802
  45.0083303  49.0829706  54.0167332  43.8052559  50.8208418  54.8112297
  43.7843657  51.8282795  54.8800135  42.8626108  50.0698471  55.6771088
  43.3188438  49.9491978  56.6596508  41.6724920  51.0276127  56.0950232
  41.0938168  51.1513853  55.1796436  41.0030651  50.7125044  56.8954468
  42.0772457  51.9809675  56.4347172  42.3432589  48.6648655  55.0658751
  42.3848963  47.6343393  55.7055140  41.9410467  48.7555742  53.7997770
  41.9929838  49.6576023  53.3483839  41.2925863  47.6623249  53.1233406
  40.4069376  47.3512316  53.6773729  40.7198191  48.0162573  51.7458487
  39.9197650  48.7564850  51.7373371  41.5262651  48.3856249  51.1123466
  40.3064251  47.1594906  51.2137222  42.1707678  46.3644123  52.9231071
  41.6203642  45.2662325  52.9324579  43.5081005  46.4171314  52.8092098
  44.0278721  47.2772646  52.9097414  44.3939638  45.2306223  52.5541210
  43.8246822  44.3173456  52.3810673  45.1329994  45.4360676  51.2045002
  45.7075739  44.5243597  51.0409451  44.4764805  45.4393911  50.3344011
  46.0389805  46.5773773  51.0544968  47.4230528  46.3358116  51.3535118
  47.7853346  45.3485060  51.5992498  48.3276939  47.3629761  51.3003063
  49.3956852  47.2232676  51.3795757  47.9768896  48.6590815  50.8757877
  48.9657164  49.6173239  50.8842564  48.6938238  50.5368996  50.9296131
  46.6303825  48.9136219  50.5090809  46.3303804  49.8840714  50.1421547
  45.6494141  47.8323746  50.5862379  44.6063042  47.9705763  50.3428793
  45.3461981  44.9862337  53.7809038  45.7654858  43.9216280  54.1875648
  45.6828976  46.1176825  54.3836880  45.4973984  47.0167255  53.9624786
  46.6616011  46.0676956  55.4922962  47.3841286  45.3613329  55.0835180
  47.2493887  47.4596977  55.7345867  46.4599991  48.1432962  56.0471010
  48.0420113  47.3065901  56.4669895  47.6587009  47.8643179  54.8089314
  46.1304617  45.4013157  56.7681980  46.8585682  44.8427677  57.6112747
  44.8646259  45.6893444  57.1229124  44.3216515  46.1814165  56.4278221
  44.2787886  45.4923439  58.4773684  44.8232985  46.1505365  59.1544151
  42.7606344  45.8956623  58.5307407  42.3910570  46.0666466  59.5418167
  42.5904989  46.8211174  57.9805613  41.7712355  44.8946095  58.0377293
  41.4218903  44.7333860  56.7687225  41.8176508  45.1100826  55.8371258
  40.4787970  43.7477732  56.6924381  40.0982189  43.5343695  55.7815456
  40.0570250  43.3083296  57.8706694  39.1634727  42.4232769  58.3280182
  38.5940599  41.9067144  57.5695133  38.9230442  42.2844934  59.7082806
  38.0828714  41.6887617  60.0332737  39.7167897  42.9516983  60.6490278
  39.4447184  42.8169107  61.6854668  40.7407284  43.7467241  60.2176476
  41.3664913  44.2173529  60.9615088  40.8497715  44.0639830  58.7926674
  44.4678926  44.0779591  59.0720701  44.5697832  44.0510511  60.3322887
  44.5620346  42.9162931  58.3753061  44.3181849  42.6916170  56.9771433
  45.2535629  42.8470659  56.4395523  43.5794687  43.3639622  56.5408468
  43.8686228  41.2320614  56.8506813  44.1479921  40.8205605  55.8807707
  42.7902699  41.1669159  56.9956303  44.7557116  40.6151247  57.9213095
  45.6386995  40.2168798  57.4214792  44.2649746  39.7157192  58.2932663
  44.9600840  41.6392803  58.9703560  44.2046213  41.4871454  59.7412205
  46.4061546  41.5519762  59.5254135  46.7215395  40.5632067  60.1563072
  47.2159767  42.5579453  59.2889261  46.9303799  43.2809782  58.6441374
  48.6640692  42.5342274  59.6735287  48.7373114  41.5078640  60.0331402
  49.4972849  42.8184748  58.4125805  49.2614698  43.8423967  58.1226254
  50.5542755  42.7016926  58.6518049  49.0368652  41.8138170  57.2618484
  49.3268967  40.4228783  57.4932194  49.8910332  40.1170826  58.3619165
  48.7004042  39.4345164  56.6336012  48.9871168  38.3982253  56.7351103
  47.9180861  39.9095464  55.5879545  47.5375414  39.1410518  54.9314451
  47.7174187  41.2820673  55.2815628  47.1614552  41.5017128  54.3820858
  48.3205891  42.2443485  56.0859489  48.1742525  43.2898378  55.8580256
  48.9345455  43.4204435  60.8925152  49.9919033  43.1771278  61.4679384
  47.9827070  44.2846489  61.3334894  47.1274757  44.2405796  60.7980013
  48.1517506  45.2343416  62.4720335  49.1637993  45.6361437  62.5211525
  47.2030687  46.4295435  62.3125744  46.1792231  46.1539602  62.5653505
  47.5156116  47.1777344  63.0410147  47.2301340  47.1953106  61.0285521
  48.3827400  47.1827507  60.2114201  49.2469978  46.5669441  60.4120255
  48.4183836  47.9834223  59.1328049  49.2576265  48.0071402  58.4534597
  47.3478603  48.8309956  58.8014841  47.4608326  49.7232533  57.8199387
  48.3280420  49.6841812  57.4100351  46.1726999  48.7395906  59.5450401
  45.2941513  49.2924356  59.2468548  46.1210823  48.0001116  60.7246256
  45.2537775  47.8981447  61.3600636  47.9908133  44.7472715  63.8706255
  47.9614258  45.5569410  64.8217916  47.7946806  43.4742928  64.1082811
  47.8850698  42.9608011  63.2432652  47.3365164  42.8306818  65.3197241
  47.8841066  43.2795668  66.1484241  45.8412886  43.2261086  65.5059290
  45.8838081  44.3149424  65.4786873  45.2645826  42.7587223  64.7077703
  45.2230549  42.8537703  66.8819332  45.4126692  41.7860794  66.9923210
  45.7618999  43.2998562  67.7178478  43.7276316  43.1086493  66.9305277
  43.5388899  44.1807127  66.8743324  43.3000898  42.6452160  66.0414076
  43.0306435  42.6304150  68.1972742  42.9652500  41.5506411  68.0634308
  43.6081743  42.9883957  69.0495729  41.6402626  43.1487799  68.3650303
  41.0923386  42.7909708  67.5957155  41.2458563  42.7071428  69.1832590
  41.5486145  44.1505527  68.4553099  47.4121189  41.2921715  65.2157116
  47.0876932  40.6859493  64.1679478  47.7840281  40.4391766  66.2861347
  48.1404734  40.9300184  67.5737810  47.6885986  41.8834972  67.8472567
  49.2283440  40.9615707  67.6341724  47.5836277  39.8155117  68.5199165
  46.5143108  39.9800086  68.6525774  48.0686474  39.7204494  69.4914198
  48.0362654  38.5749483  67.7008772  47.5858402  37.6625133  68.0916262
  49.1224098  38.6296773  67.6273680  47.6621628  38.9635277  66.2790394
  48.3960676  38.4544110  65.6543112  46.2781620  38.5025001  65.8988380
  45.2354288  39.1397834  66.2342358  46.2471867  37.4852705  65.0067568
  47.1080828  37.0038700  64.7894764  44.9999142  36.9583941  64.4307280
  44.5135927  37.8134418  63.9611626  45.3149843  35.9537840  63.2369471
  45.7466030  36.5365458  62.4231911  46.3385487  34.8982143  63.7191534
  45.8100367  34.1688800  64.3330383  46.7723894  34.4596028  62.8205442
  47.2149563  35.3639507  64.1698170  44.1365099  35.1835299  62.6638985
  43.9174461  34.2707610  63.2179403  43.2334423  35.7832503  62.5502825
  44.4573879  34.7365808  61.7229557  44.1153860  36.3110638  65.5503368
  44.6823740  35.8541608  66.5477419  42.8192425  36.4693928  65.4070425
  42.4870157  37.0595336  64.6577406  41.8227100  36.1535907  66.4735365
  42.2814941  36.3254929  67.4472237  40.5170965  37.0613146  66.3782406
  40.0555277  36.9035602  65.4034662  39.7140098  36.7525840  67.0474482
  40.6975889  38.5268593  66.6854763  39.6378160  39.2279291  66.7195511
  41.7688179  39.0450025  66.9371414  41.4493799  34.6258378  66.3644028
  40.3180742  34.1908550  66.0310221  42.4588156  33.7558174  66.5386868
  43.3809233  34.1049743  66.7575645  42.3370743  32.3140478  66.3343334
  42.3282242  32.1639562  65.2547550  43.6688614  31.6322207  66.8072319
  43.6202002  30.5826783  66.5170717  44.8749352  32.2314095  66.0708189
  44.6788406  32.3488522  65.0050592  45.2417898  33.1540346  66.5205860
  45.6151295  31.4318728  66.1017561  44.1143227  31.6901040  68.2925940
  44.5808077  32.6433396  68.5412598  43.2702541  31.4678621  68.9454794
  44.8908854  30.9255552  68.3154964  41.1239290  31.5928793  66.9966507
  40.5545378  30.6751609  66.4007473  40.6131840  32.0954633  68.2061911
  40.9800673  32.9600239  68.5777187  39.3666339  31.5822339  68.8854551
  39.4324350  30.4986668  68.7872028  39.5320725  31.9841552  70.3551865
  40.4221201  31.4167070  70.6270742  39.6780562  33.0635643  70.3959656
  38.3866024  31.5331435  71.3125992  38.6709976  31.6583085  72.3573732
  37.5534701  32.2103739  71.1245537  37.9793358  30.0874996  71.3123608
  37.1226978  29.7054291  72.1396112  38.4810448  29.2900705  70.5409384
  38.0177474  31.9484997  68.1783628  37.0710135  31.1487198  68.1732035
  38.0053616  33.1726933  67.6287746  38.8775206  33.6765981  67.7030706
  36.8325877  33.6994362  67.0156431  35.9138632  33.3008838  67.4459982
  36.7132306  35.2326918  67.1928549  37.6144314  35.7301784  66.8344593
  35.9266424  35.6001019  66.5337753  36.5156054  35.4834628  68.2350445
  36.6697073  33.4242630  65.5400419  35.5419731  33.2332683  65.0920773
  37.8180647  33.3634877  64.8216248  38.6566854  33.7118196  65.2637529
  37.9298329  32.7791166  63.4333992  37.0613575  33.0914474  62.8534746
  39.1199827  33.3699584  62.7422380  40.0384331  33.1270766  63.2766151
  39.2989469  32.8617167  61.7947340  39.0784431  34.8853421  62.5383425
  38.8769031  35.3825521  63.4871626  40.3806543  35.4767418  62.0445395
  40.6555367  35.1084828  61.0561419  40.3991938  36.5665317  62.0555305
  41.1660051  35.0318503  62.6556015  37.8940082  35.3200197  61.5644550
  36.9608521  34.8986197  61.9382811  37.7747631  36.4000392  61.6507149
  38.0815959  35.1144671  60.5105734  37.8248048  31.2604213  63.3449554
  37.5886774  30.7116318  62.2903156  37.8666782  30.5771708  64.4744778
  37.9913855  31.0773873  65.3429985  37.8463793  29.1212797  64.5907927
  38.1460881  28.8141155  65.5927515  36.4083552  28.5016608  64.4080639
  35.6671953  29.1284156  64.9040079  36.2200880  28.5668731  63.3364296
  36.2542224  27.0606685  64.9159050  37.0706534  26.4502430  64.5299959
  36.2973070  27.0595574  66.0050535  34.9335647  26.4380217  64.5104551
  33.8916540  27.1264815  64.7368002  34.8826241  25.2685046  64.0920162
  38.9900041  28.5817504  63.7456989  38.8578844  27.8739572  62.7338600
  40.1550531  28.9029384  64.2516375  40.1184797  29.5682931  65.0106287
  41.4568853  28.5688281  63.6170673  41.3724422  28.0671597  62.6530647
  42.3173904  29.8245096  63.2807827  42.8186369  30.1897383  64.1771460
  43.1099987  29.5043159  62.6045084  41.4597464  30.8871412  62.5869179
  40.5804873  31.0425043  63.2121134  42.3565388  32.1812725  62.3480129
  42.3224449  32.8657246  63.1956339  43.3575439  31.8709946  62.0483208
  41.8192053  32.6925111  61.5492582  40.8936977  30.3923154  61.2273836
  41.7196178  30.0535059  60.6019497  40.2053785  29.5648646  61.3995457
  40.3613043  31.2669396  60.8536339  42.0671844  27.5990200  64.5571470
  42.7760220  27.9100251  65.4526997  41.6745853  26.2753057  64.3129683
  41.2799835  26.0436392  63.4125662  41.8524885  25.1746750  65.2898836
  41.7295313  25.5803823  66.2940693  40.7033920  24.1825747  65.2371359
  40.7493544  23.4856629  66.0739756  39.8046494  24.7508979  65.4766607
  40.5874586  23.2961535  63.9965248  39.8662591  23.6314917  62.8421736
  40.1821184  22.7076316  61.9386816  39.7421312  22.6823974  60.9526920
  41.0383701  21.8307304  62.4577475  41.4884901  21.1318183  61.8841505
  41.3550425  22.1976805  63.7287855  42.1542549  21.8188167  64.3485594
  43.2231045  24.4986224  65.4407406  43.4990978  23.7609744  66.3533974
  44.0578318  24.8426890  64.4976473  43.7359238  25.4706216  63.7750292
  45.4300833  24.3305230  64.2405415  45.6633997  23.7219405  65.1142073
  45.4246092  23.5410786  62.9336262  46.4443588  23.2681298  62.6621294
  44.7906590  22.6685619  63.0914879  44.7407198  24.1419148  61.6787910
  44.3942022  25.3262591  61.7300653  44.4985008  23.3918858  60.6879616
  46.4221716  25.4582930  64.0876627  47.5668716  25.1719737  63.6367559
  46.0951805  26.7354822  64.3465281  45.1859999  26.9066548  64.7517443
  46.9976330  27.8284883  64.1448021  47.3194742  27.8549004  63.1037331
  46.2420225  29.1503477  64.3824768  45.2965355  29.1899085  63.8415527
  45.9078217  29.2407894  65.4160309  47.0128536  30.3942847  64.1514349
  47.0620584  30.8591056  62.7914715  46.2788773  30.5642152  62.1087742
  47.9035616  31.9303799  62.4968195  47.8741646  32.2630477  61.4697504
  48.7455034  32.4667263  63.4898901  49.7282648  33.4011340  63.1761122
  49.6293545  33.7046099  62.2707319  48.7147856  31.9978213  64.7243547
  49.4167328  32.4040508  65.4375601  47.8708076  30.9627151  65.1180696
  47.9671860  30.5585527  66.1149502  48.3392620  27.6905560  64.9877214
  49.4525242  27.9351044  64.4826508  48.2718897  27.1205235  66.2063789
  47.3287916  26.8757892  66.4724112  49.4102621  26.9483328  67.1137762
  50.2155066  27.6816154  67.0693016  48.8358736  27.2030640  68.5608530
  48.1933594  26.3396025  68.7332058  49.6757984  27.1802950  69.2551899
  47.9717445  28.7395692  68.7745333  48.9235449  29.3338013  69.4997025
  50.1649046  25.6671095  66.9471169  51.2059164  25.4064059  67.5830126
  49.6466970  24.8641372  66.0192394  48.8446188  25.1765895  65.4908991
  50.2530003  23.5572362  65.5925894  51.0499477  23.2538843  66.2715244
  49.2184162  22.4863005  65.4641581  48.4683132  22.7221680  64.7093010
  49.7476244  21.5732002  65.1915789  48.3939505  22.2929001  66.7667627
  49.0097380  22.3247743  67.8344393  47.1994019  21.9225144  66.7159224
  51.0407448  23.7804770  64.2707253  52.0841360  23.1823492  64.1111708
  50.4884815  24.6101737  63.4184074  49.5846415  25.0044203  63.6369228
  51.2411785  24.9792886  62.1898985  51.8825436  24.1641259  61.8548393
  50.1956177  25.3050208  61.0565138  49.5713663  26.0909796  61.4815807
  50.8708906  25.9026003  59.7753859  51.6835594  25.3126025  59.3516111
  50.3089905  25.8800721  58.8416433  51.1978483  26.9393396  59.8552132
  49.2478275  24.0709949  60.8473635  49.7757864  23.2140136  60.4290962
  48.8105536  23.7101054  61.7783022  48.0843496  24.3642998  59.9676228
  47.3640537  23.5520387  59.8701334  47.5109673  25.2226114  60.3178358
  48.4524107  24.5655274  58.9615679  52.1146584  26.1926389  62.4665213
  53.3058643  26.0633159  62.3210049  51.5605736  27.3430181  62.7830124
  50.5518627  27.3911285  62.7999783  52.3738718  28.6116695  62.9672003
  53.1942081  28.5442066  62.2526360  51.6131115  29.8115277  62.5768042
  50.8082867  29.9099255  63.3052826  52.4499750  31.1281919  62.6979065
  52.9553032  31.2060428  63.6605501  53.3016539  31.0959482  62.0184183
  51.8130684  31.9844699  62.4760103  50.9287119  29.6777081  61.1522579
  50.3016281  28.7983894  61.0050821  50.2894735  30.5379033  60.9534168
  51.9004393  29.6592999  60.0122595  52.5955820  28.8217783  60.0708342
  51.2677813  29.5247889  59.1349030  52.4689817  30.5833077  59.9070549
  53.0105209  28.6991215  64.4043541  52.4829102  29.4274974  65.2758503
  54.1004038  27.9911685  64.6330500  54.5032120  27.4953294  63.8507557
  54.7802019  27.8584671  65.9342384  53.9487648  27.7810478  66.6348219
  55.7222509  26.6729069  66.0734558  56.5318012  26.8022013  65.3551149
  56.2142038  26.6559768  67.0459795  54.9550104  25.3580713  65.9373045
  54.2179251  25.3311348  66.7398500  54.4197083  25.3481412  64.9878550
  55.8935547  24.1535378  66.2869358  56.5708447  24.0166402  65.4439402
  56.4916325  24.3049574  67.1855354  55.0766182  22.9117346  66.4852953
  55.7669544  22.2358561  66.9899988  54.2925215  23.1468177  67.2050381
  54.5796061  22.3912024  65.2171946  53.8266277  22.9525399  64.8456621
  55.1976538  22.3616052  64.4189215  54.1149712  21.4945102  65.2297163
  55.4351330  29.1867685  66.3533831  55.6957436  29.2313647  67.5381756
  55.7413816  30.1417994  65.4897594  55.6065559  29.8902440  64.5209265
  56.2366056  31.4864373  65.8200216  56.1988926  31.7104149  66.8860912
  57.7079916  31.5445280  65.4479122  58.1893396  30.6585407  65.8619642
  57.8455162  31.5307832  64.3667126  58.4186029  32.7615976  65.9850073
  58.5688925  33.1922865  67.2897339  59.2228699  34.3626428  67.2645473
  59.5280933  35.0404882  68.0479765  59.4130850  34.6528125  65.9910154
  59.8068333  35.5419040  65.7179165  58.9780569  33.6295891  65.1737928
  58.9914227  33.5767412  64.0951681  55.4017782  32.5717139  64.9813890
  55.7760048  32.9419804  63.8725376  54.3589830  33.1447840  65.5546331
  53.9013433  32.7507472  66.8886375  54.6018744  32.9215622  67.7060604
  53.5291958  31.7270350  66.8484926  52.7132940  33.6216688  67.0644712
  53.0274248  34.4843078  67.6520777  51.9832087  33.0249333  67.6112747
  52.2081137  34.1432714  65.7109880  51.6710472  35.0842023  65.8306170
  51.5648603  33.4593153  65.1573277  53.5624361  34.2609358  64.9767303
  53.4093475  34.0448570  63.9193821  54.2017078  35.6877303  65.1364946
  54.9897671  35.9754729  66.0262346  53.8695669  36.6042972  64.2452812
  53.1443453  36.2906957  63.6161470  54.4688940  37.8694367  64.0131712
  54.6560907  38.2942486  64.9993753  55.8323336  37.6984501  63.2153702
  56.4475536  36.9639778  63.7351418  55.5714655  37.2085905  62.2772408
  56.5896463  38.9872575  63.0221033  57.5136900  38.7175512  62.5107336
  56.0270405  39.7650027  62.5056839  57.0688486  39.7564340  64.6050930
  58.2192421  38.5752439  65.2874804  58.9399004  39.0974879  65.9167767
  57.6576519  37.8643346  65.8935595  58.6661720  37.9979801  64.4780874
  53.4758568  38.6672807  63.3117533  52.8718281  38.2011652  62.3439264
  53.3229780  39.9134207  63.7950706  53.9051723  40.1546240  64.5843554
  52.3920345  40.9568024  63.3798409  52.1469879  40.7483625  62.3383951
  51.0417223  40.8186769  64.1564417  50.3720427  41.6128492  63.8264084
  50.5055475  39.9024534  63.9091539  51.1843491  41.0852146  65.6462097
  51.3548088  40.1760674  66.4463186  51.1849403  42.2870255  66.0615587
  52.9919481  42.3449421  63.6488295  53.7862825  42.5274754  64.5864820
  52.4062777  43.4194374  63.0535793  51.7428684  43.2784605  62.3051739
  52.8833723  44.7853184  63.2521391  53.9605474  44.7161150  63.1004620
  52.2642946  45.6915665  62.2176552  51.1927938  45.4968929  62.2633266
  52.5173903  46.7059660  62.5259352  53.0018425  45.4801464  60.8438635
  53.9706039  45.9784317  60.8076191  53.3187914  44.4388723  60.7855701
  52.1623993  45.9677935  59.3165779  51.9659281  47.7531052  59.3611383
  52.9144430  48.1782150  59.6893120  51.6730738  48.1839037  58.4036684
  51.2511015  48.1023312  60.1062346  52.8416157  45.3808594  64.6636486
  53.6803627  46.1963320  64.9917698  51.9671297  44.8760843  65.5679703
  51.3696289  44.1151190  65.2781010  51.9729567  45.2898836  67.0189142
  52.2348022  46.3476801  66.9942522  50.5534172  45.0408077  67.6310349
  50.5845594  45.5051279  68.6167002  49.8012877  45.5054283  66.9934416
  50.2237940  43.7025928  67.8315544  50.5238771  43.1557989  67.1017838
  53.1285906  44.6388435  67.8418159  53.4503460  45.1531458  68.9322662
  53.8100386  43.6313152  67.3349905  53.5088873  43.3326960  66.4183426
  55.1266861  43.0908918  67.6465416  55.2620411  43.2152081  68.7209368
  55.3483868  41.5349150  67.4480486  55.3634548  41.3511658  66.3737535
  56.6091585  40.9328699  68.0915308  57.4686813  41.4382839  67.6512146
  56.5799856  41.3219070  69.1093206  56.7333460  39.8519850  68.0254316
  54.2122936  40.7590342  67.8582430  53.4168720  40.9973001  67.3764372
  56.2488317  43.8175631  67.0984983  57.0918751  44.3103313  67.8300047
  56.3290310  43.9117146  65.7648849  55.6414080  43.3376122  65.2983236
  57.3893785  44.4112396  64.9754906  58.3086109  43.8371611  65.0918961
  57.0660686  44.5369959  63.4639883  56.1905718  45.1505136  63.2513809
  58.2926941  45.0778246  62.6169586  58.6083889  46.0694361  62.9412222
  59.0821123  44.3262625  62.6255655  58.0155659  45.2567768  61.5780687
  56.7125654  43.1517124  62.9776478  57.4745512  42.3860836  63.1235409
  55.8904934  42.7166843  63.5460329  56.1599159  43.1426048  61.5412903
  57.0017719  42.9926491  60.8653545  55.4555082  42.3396349  61.3241529
  55.5917740  44.0364075  61.2835407  57.6634836  45.8388948  65.5227900
  58.8177729  46.1481285  65.8756876  56.6419363  46.6971207  65.7116795
  55.7277822  46.2677002  65.7058477  56.7455435  48.1421089  66.2112093
  57.4825907  48.6965942  65.6303406  55.3916693  48.8117886  66.1912632
  54.9678564  48.7565088  65.1885509  54.6640825  48.2662916  66.7922211
  55.4878807  50.3116322  66.5277004  55.9911537  50.5045509  67.4751139
  56.1272383  50.8210564  65.8067226  54.1295290  51.0327196  66.6403627
  53.5256529  50.8505154  65.7514095  53.6123657  50.7026100  67.5412893
  54.4246769  52.5105238  66.8030453  54.9294090  52.6076174  67.7642536
  55.0944757  52.8501320  66.0130262  53.2390213  53.4766865  66.9506168
  53.5791636  54.4256306  66.8880796  52.5328255  53.4535265  66.2289143
  52.8013039  53.3629656  67.8537083  57.3956251  48.0654383  67.5828028
  58.3577538  48.8354778  67.7658415  56.8426228  47.1753025  68.4656763
  55.9820843  46.6800833  68.2803726  57.3465633  47.0548630  69.7981310
  57.1505356  48.0485010  70.2010727  56.6432285  46.0511923  70.6970167
  56.7175436  45.0603151  70.2489805  57.1741438  45.9966612  71.6474152
  55.3271055  46.3978815  70.8437586  54.8685741  45.7526445  71.3869143
  58.8454294  46.8323994  69.8407936  59.5536613  47.5180721  70.5782127
  59.3395710  45.8682299  69.0103817  58.6533165  45.4054737  68.4315777
  60.7738495  45.5614090  68.9680719  61.1723661  45.4369116  69.9749422
  61.0267448  44.3208408  68.1132317  60.5298853  44.5332956  67.1666098
  62.1021414  44.2243767  67.9638386  60.3638124  43.0394745  68.7176847
  60.7644415  42.7989054  69.7024298  59.3045998  43.1675339  68.9407730
  60.4212475  41.6324615  68.0534506  59.9090528  40.8761978  68.6482763
  59.9383926  41.7093515  67.0792627  61.9231129  41.1162663  67.9577017
  62.5411224  41.8757153  67.4787426  62.2089529  40.8568048  68.9770508
  62.0310783  39.8717117  67.2354126  61.7965031  39.9876571  66.2598944
  62.9193687  39.4098639  67.3686028  61.5257120  39.0517497  67.5393391
  61.4948559  46.7409086  68.3330774  62.5958300  47.0397377  68.7935591
  60.9936190  47.3464394  67.2141933  60.1311922  47.0105553  66.8098354
  61.6734982  48.4340811  66.4948273  62.6903677  48.0839682  66.3173580
  60.8823633  48.5784817  65.2320480  60.6572819  47.6449442  64.7163486
  59.9332619  49.0093279  65.5509329  61.5230513  49.4061375  64.0311861
  60.9267807  49.1806412  63.1470346  61.6825390  50.8993101  64.1719913
  62.1305180  51.2101412  65.1158190  62.1766806  51.3605833  63.3169127
  60.7560158  51.4689302  64.0999651  62.9511118  48.8783884  63.6914492
  63.2726479  49.2222691  62.7083635  63.5852003  49.2702818  64.4867134
  62.9683495  47.7885962  63.6793423  61.7358637  49.7843361  67.1948814
  62.7738333  50.3776455  67.3158026  60.7099485  50.3182316  67.8159952
  59.8529482  49.8118210  67.6451015  60.6712914  51.5543461  68.5704184
  61.1173296  52.3386908  67.9589033  59.2449570  52.0878458  68.8336897
  58.6202049  51.4873171  69.4948673  59.4049644  53.0098534  69.3926191
  58.3962011  52.3959637  67.5895786  58.2929850  51.5246487  66.9428492
  57.3833609  52.6337433  67.9147196  58.7683010  53.6113787  66.6782188
  59.6396208  54.4457674  67.0683908  58.4047127  53.6688280  65.4689026
  61.4853048  51.4942503  69.8761177  62.3401833  52.3518324  70.1020527
  61.3391542  50.4600668  70.5850887  60.6930971  49.6995115  70.4293060
  62.3597813  50.2194691  71.6635990  62.4442196  51.0620070  72.3499775
  62.0453310  48.9606619  72.5319624  61.3147259  49.2809486  73.2747507
  61.7028618  48.0966425  71.9625044  62.8786945  48.7537003  73.2033587
  63.8489580  49.9832773  71.2306929  64.7845078  50.1580954  72.0877886
  64.1104078  49.9037600  69.9146080  63.3582449  50.1593018  69.2908621
  65.4323721  49.5494843  69.2886257  65.1811028  49.2825556  68.2621193
  66.3753128  50.7393789  69.3093777  66.4830494  51.0636425  70.3444386
  67.2948122  50.3707075  68.8547421  65.7998085  51.8242836  68.4412813
  64.7694302  52.0931196  68.6739826  66.3146019  52.7722073  68.5978985
  65.8814621  51.5582371  66.9695282  66.8842125  51.2021494  66.7333364
  65.1039934  50.8094788  66.8178368  65.5717850  52.7603626  66.1700439
  66.3568926  53.3140945  65.8584499  64.4446135  53.4844208  66.0717678
  63.2658195  53.0541849  66.4162159  63.1336260  52.2614861  67.0279837
  62.4898291  53.6053228  66.0783100  64.5424080  54.6571350  65.5922890
  65.4573870  55.0844860  65.5754137  63.7311649  55.2394056  65.7437754
  66.1548471  48.2593679  69.8760271  67.3836136  48.1638002  70.0461769
  65.4657984  47.1069908  69.9095106  64.5032358  47.1458006  69.6060610
  65.9774971  45.7224274  70.1466274  66.7452765  45.7558680  70.9196186
  64.8119688  44.8382664  70.5034924  64.1898298  44.7556114  69.6123075
  65.3671646  43.9393806  70.7715607  63.9974737  45.2907228  71.7095184
  63.7327099  46.3363171  71.5522146  63.1800365  44.5824909  71.8448019
  64.6697569  45.2577686  73.0138254  65.6868601  44.4937038  73.2145596
  64.2786884  46.0540295  73.9335966  66.8210363  45.1580858  68.9804792
  67.7158546  44.4298315  69.2679882  66.3540983  45.4238558  67.6797438
  65.4730844  45.9176826  67.6865435  67.0753527  45.1584148  66.4704704
  67.1999025  44.0774918  66.4057446  66.1697626  45.6308222  65.3348017
  66.0512924  46.7140055  65.3626776  66.8430424  45.3980494  64.5098066
  64.8710155  44.8310995  65.1325607  64.8485279  43.4212637  64.8813105
  65.7317972  42.8005648  64.8500586  63.6272287  42.8037596  64.6294117
  63.5699558  41.7364073  64.4748640  62.4513578  43.5732841  64.7946262
  61.2611103  43.0422354  64.5372963  61.2140083  42.0874214  64.4494772
  62.4383068  44.9552774  64.9262571  61.5549612  45.5714417  65.0065184
  63.6909199  45.5792093  65.1111794  63.7802267  46.6423845  65.2787638
  68.3539724  45.9461832  66.4704323  68.4242439  47.1499777  66.7806196
  69.3763876  45.2466917  66.0462141  69.2347050  44.3064404  65.7056999
  70.7272387  45.7742786  65.8686590  71.0531855  46.5184927  66.5953064
  71.6943407  44.6351957  65.9738207  71.3742447  43.8145781  65.3317738
  72.6635551  45.0357246  65.6766653  71.8518019  44.1613674  67.4452925
  72.4139023  44.8535013  68.0722666  70.9337234  44.0730000  68.0261803
  72.5089264  42.7794838  67.7239990  73.5199213  42.8901768  67.3319006
  72.4985886  42.5987816  68.7988663  71.8239641  41.6488409  67.0228195
  71.3245010  41.6499662  66.1449575  71.8908501  40.4144859  67.4924803
  72.5077772  40.0705194  68.5972261  72.9208755  40.7579899  69.2110920
  72.5819016  39.0671492  68.6859226  71.2083721  39.5114756  66.9328451
  70.5854607  39.7835469  66.1858082  71.2614346  38.5903287  67.3436689
  70.9451246  46.3389301  64.4404650  71.9267035  47.0673847  64.2252922
  70.0889444  45.9140539  63.5069418  69.2737150  45.3404856  63.6697960
  70.2694893  46.3670349  62.0414066  70.6014442  47.3984432  61.9225883
  71.3147545  45.4940081  61.4068842  72.2381067  45.7802296  61.9104815
  71.1056852  44.4273806  61.4887285  71.6149092  45.6079149  59.9233627
  72.6721096  45.0849819  59.4470692  70.8343410  46.2676144  59.1624069
  68.9210987  46.2296104  61.2923241  68.0810308  45.3611565  61.5065145
  68.5936165  47.1351528  60.3675318  69.4010401  47.7199078  60.2055788
  67.4226618  47.1267366  59.4233990  66.6062832  47.3437977  60.1122570
  67.4561501  48.2633734  58.3885527  67.3316956  49.1757250  58.9718437
  68.4046412  48.2271814  57.8526878  66.6520405  48.2121468  57.6544571
  67.1868515  45.7714462  58.8069105  66.0238075  45.3777838  58.7199402
  68.2173014  45.0861311  58.4113264  69.1063738  45.5645561  58.4387302
  68.1910610  43.6684132  57.9655361  67.7005100  43.5940266  56.9950008
  69.6708965  43.1760025  57.9481649  70.2358675  43.5159492  58.8161182
  69.7377014  42.0880747  57.9556799  70.4635191  43.7302113  56.7507076
  70.1220083  44.7434235  56.5388870  71.4924049  43.7209797  57.1104383
  70.4487514  42.8572989  55.4945803  69.3974352  42.7192736  54.8950481
  71.5551233  42.2585678  55.0915909  71.4047527  41.7150545  54.2536879
  72.3766375  42.3239660  55.6754875  67.4571276  42.7850437  58.9800358
  66.5342331  42.0808458  58.6134529  67.6687717  42.9247379  60.3218889
  68.2641792  43.6943626  60.5925751  67.0051098  42.1972036  61.3775587
  67.0923090  41.1372185  61.1389732  67.6854706  42.4927473  62.7296925
  67.4883509  43.5036516  63.0865049  67.1929073  41.9471598  63.5345602
  69.2268181  42.3021793  62.9109144  69.7328568  41.6455269  62.2032118
  69.7385120  43.2645893  62.9049015  69.5255709  41.7869329  64.2874479
  70.1182222  40.7178640  64.5065928  69.0861702  42.4989319  65.2385759
  65.5148602  42.5368071  61.5349960  64.6255112  41.7012453  61.8288088
  65.1535797  43.8031292  61.3308191  65.7906532  44.5758963  61.2001610
  63.7422371  44.1479063  61.1911726  63.1935167  43.8341951  62.0791960
  63.6535072  45.6794500  61.2642241  63.6176062  45.9475279  62.3201370
  64.5687389  46.1409140  60.8934116  62.6111412  46.3817167  60.3940439
  62.8706312  46.8511152  59.0911770  63.9041567  46.8496990  58.7777758
  61.8221331  47.4657917  58.3406496  62.1367693  47.9841232  57.4469280
  60.6232738  47.7103567  58.9583063  59.7999668  48.1172132  58.3899403
  60.3712797  47.3284388  60.2941084  59.4022942  47.5558329  60.7133436
  61.3994455  46.7119169  61.0323477  61.1704445  46.4687204  62.0593929
  63.0771351  43.5436201  59.9679804  62.0023775  42.9240274  60.0728369
  63.8063669  43.4904099  58.8406372  64.7535658  43.8324070  58.9177895
  63.1700468  43.0450296  57.5889969  62.2113562  43.5635710  57.5776196
  63.6404943  43.3089066  56.6418171  62.8418779  41.5286493  57.6178169
  61.7883635  41.1219358  57.1193838  63.7545681  40.8230162  58.3268833
  64.5236540  41.3294315  58.7417936  63.5214996  39.4595718  58.6471558
  63.3719969  38.9637661  57.6880264  64.7832823  38.8332534  59.3468952
  64.5347786  37.8441262  59.7315693  65.6185865  38.8563347  58.6470127
  65.1023197  39.3561220  60.2485132  62.2528124  39.1672087  59.5289040
  61.6874170  38.0808878  59.3057775  61.8695498  40.0326633  60.4840565
  62.3922300  40.8528233  60.7565308  60.5240393  39.8906207  61.1183310
  60.4237032  38.8281345  61.3400555  60.4614496  40.5685520  62.4707127
  60.7730913  41.5993929  62.3023319  59.4246054  40.6363916  62.8000307
  61.2578392  39.9349093  63.5865068  61.7893744  38.8513589  63.3933401
  61.1861706  40.5316162  64.7286606  59.4163847  40.3152990  60.1586151
  58.3259106  39.7623420  60.2203989  59.6143961  41.3296604  59.3294811
  60.5778933  41.6208410  59.2458677  58.5119152  41.7212820  58.4470940
  57.5726700  41.8520641  58.9845037  58.9417839  43.0383253  57.7719259
  59.9398279  42.9386663  57.3452187  58.1745291  43.4511852  56.5525913
  57.1790934  43.7715387  56.8601322  58.7719536  44.2463541  56.1066151
  58.1117916  42.6010036  55.8733559  58.8820553  44.1808033  58.8551855
  59.5186281  44.9784756  58.4722996  57.8704977  44.5551062  59.0125036
  59.3300915  43.9198303  59.8139620  58.2869720  40.5677700  57.3547363
  57.1934652  40.2566719  56.9367075  59.3392944  39.9172997  56.8595505
  60.2631712  40.2212238  57.1319151  59.2527962  38.8374615  55.8466005
  58.5379171  39.0701127  55.0573444  60.6035233  38.7651300  55.1738405
  61.3706493  38.6628366  55.9414101  60.6776333  37.8978443  54.5177794
  60.8918571  39.9317765  54.2371845  60.1862812  39.9644065  53.4070015
  60.8296585  40.9058905  54.7222948  62.3411036  39.8920226  53.7341976
  62.9908609  40.1664734  54.5652151  62.5176859  38.8517761  53.4607029
  62.6123476  40.7709122  52.6234579  61.8859196  41.3401890  52.2131824
  63.7782383  40.7311535  52.0324802  64.7556782  39.9099731  52.3566723
  64.5396566  39.1803241  53.0207872  65.5279446  39.8919940  51.7059898
  63.8946915  41.5290689  51.0570431  63.1019163  42.0241117  50.6742382
  64.8032713  41.8196535  50.7251644  58.6091423  37.5158596  56.3391972
  57.8939772  36.8767309  55.5851269  58.8571405  37.1761918  57.6261616
  59.5801258  37.7183986  58.0771685  58.1591606  36.2519503  58.4754372
  58.1038094  35.3155971  57.9202080  59.0225649  36.0903001  59.7753477
  59.9691725  35.6228805  59.5041418  59.2498112  37.1179390  60.0589323
  58.4059525  35.5220747  60.9755468  57.5577354  36.1775470  61.1730146
  58.0410433  34.0158010  60.9536648  57.3109436  33.8807225  60.1556635
  58.9609194  33.4548783  60.7884455  57.5012112  33.7415695  61.8600225
  59.5187950  35.7388783  62.0040989  59.2058945  35.4031777  62.9927826
  60.3645897  35.0680017  61.8535900  59.8366785  36.7735744  62.1323681
  56.6573715  36.5027666  58.7767124  55.8948326  35.6075191  58.4534979
  56.2415028  37.7043104  59.1647243  56.9784451  38.3548951  59.3965864
  54.8216629  38.1181979  59.1359472  54.3307304  37.5134397  59.8984146
  54.7820091  39.6267653  59.5104694  55.2575922  39.6439528  60.4910946
  55.4688072  40.1558495  58.8498068  53.3601379  40.2667809  59.4553089
  52.9169941  39.8688054  58.5424328  52.8347683  39.8822641  60.3295135
  53.4604788  42.0938921  59.2134714  53.8345909  42.0179892  57.3914528
  54.7839546  41.5471125  57.1363544  53.0569220  41.4688158  56.8606567
  53.8959599  43.0468178  57.0366955  54.1165257  37.7755356  57.8261805
  53.1328154  37.0576334  57.7197790  54.6265984  38.2752442  56.7029142
  55.4381323  38.8754630  56.7382383  54.1500616  37.8801131  55.3547907
  53.0997324  38.1715012  55.3559399  54.9939585  38.6544800  54.2792130
  56.0331059  38.3998418  54.4876337  54.8843431  38.0943584  53.3505869
  54.7434855  40.1587868  54.1532183  53.4795523  40.7012463  53.9916611
  52.6076460  40.0684500  53.9158678  53.2603455  42.0369673  53.7253284
  52.2812605  42.4607944  53.5575199  54.3312502  42.8872299  53.7690401
  54.1241455  43.9388371  53.6362600  55.6123304  42.4397659  53.8930273
  56.4613914  43.1072283  53.8917255  55.8393478  41.0493660  54.0870094
  56.8416786  40.6769943  54.2389107  54.1876030  36.3523769  55.1612282
  53.1887293  35.7190347  54.7907352  55.2871990  35.6748676  55.5707550
  56.0734558  36.2178850  55.8979130  55.5187416  34.2591071  55.3087997
  55.4002142  34.0997815  54.2370415  56.9636393  33.8043261  55.6226110
  57.7009010  34.3867350  55.0700331  57.1066570  34.0474176  56.6754866
  57.3076391  32.4049163  55.2949429  57.4751091  32.4439955  54.3504667
  54.5020342  33.3696127  56.0273504  53.7807560  32.5897670  55.4182291
  54.2042112  33.6708212  57.2662592  54.7961569  34.3432927  57.7326107
  53.1222343  33.0101848  58.0971766  53.3076334  31.9436884  58.2249165
  53.0999422  33.5932493  59.4825125  52.9480791  34.6693420  59.5665598
  52.2517872  33.1502581  60.0045156  54.1990614  33.2024693  60.4185724
  54.9314642  32.2115970  60.1668882  54.4112682  33.9783335  61.4179516
  55.2175760  33.8046503  62.0008755  53.6814642  34.6282911  61.6729736
  51.6781425  33.1318903  57.4818897  50.9648705  32.1362996  57.4161100
  51.3192940  34.2578268  56.8560791  52.0307255  34.9427700  56.6443777
  50.1279497  34.1730595  56.0332918  49.2825747  33.8311672  56.6304207
  49.7516251  35.6052518  55.5003738  49.7719955  36.2468123  56.3813305
  50.4637194  36.0622740  54.8132372  48.0979109  35.4982996  54.7979259
  48.2798338  34.8184896  53.6622953  50.2458572  33.2512665  54.7912169
  49.2310524  32.6848221  54.3928862  51.3805819  33.1642628  54.0790653
  52.2495699  33.5859990  54.3741894  51.5305328  32.0319891  53.0737162
  50.6793356  32.1038246  52.3966646  52.8109074  32.3361611  52.2656631
  53.7279129  32.0434546  52.7770567  52.7270794  31.6705608  51.4065599
  53.0218649  33.7035823  51.6925859  51.9466829  34.3033624  50.9735155
  50.9812212  33.8247299  50.9014416  52.0907211  35.6441617  50.5457115
  51.3230133  36.1731410  50.0005436  53.3544302  36.2264371  50.7505465
  53.4901285  37.5081515  50.2834797  54.2708969  37.9598236  50.6121016
  54.4658089  35.5569601  51.2293148  55.4015064  36.0962701  51.2247181
  54.2934942  34.3325043  51.8638325  55.1609135  33.7952018  52.2178125
  51.4961481  30.5866933  53.6988974  50.8440971  29.7134781  53.0818081
  52.1205139  30.3645277  54.8053741  52.7221966  31.1146879  55.1141453
  52.0858574  29.0874529  55.5627108  52.2652864  28.2969141  54.8340416
  53.1723356  28.9976549  56.6713476  54.1131115  29.4186211  56.3166189
  52.8449726  29.5653701  57.5423384  53.4300089  27.5793386  57.1843576
  54.2049122  27.6832652  57.9438496  52.5292683  27.2178721  57.6804495
  53.8388062  26.6242504  56.0949755  53.1853199  26.6277289  55.2225971
  54.8178959  26.9267249  55.7235003  54.0362597  25.2137947  56.6402912
  54.5864677  25.2631736  57.5799322  52.9848337  24.9679160  56.7891359
  54.7133160  24.2161798  55.7063341  54.0106964  23.9661002  55.0252438
  55.5505371  24.5628357  55.2602530  54.9732494  23.3982682  56.2388372
  50.6523132  28.6713505  56.1067581  50.2143812  27.5709128  55.8328199
  49.8621416  29.6558356  56.5829515  50.1861668  30.5980992  56.7480183
  48.4848738  29.3881822  57.0392752  48.5319567  28.3540320  57.3804808
  48.1729221  30.2803683  58.2548571  49.0278482  30.3756857  58.9242744
  48.0314112  31.3090014  57.9232073  46.9548988  29.8213053  58.9537621
  47.0971966  28.7332606  59.8571014  48.0945683  28.4410930  60.1508474
  45.9549809  28.0097294  60.3025627  46.0125208  27.2284603  61.0460043
  44.6763611  28.4212828  59.9334431  43.5801077  27.7415180  60.4283857
  43.8641310  26.9232917  60.8424377  44.5482874  29.6235728  59.1652536
  43.5352993  29.8569417  58.8723516  45.6775045  30.3277707  58.6521673
  45.6091404  31.2204242  58.0480909  47.3417330  29.4497323  55.9839058
  46.3621902  28.7308407  56.0969782  47.5549412  30.2179480  54.9163818
  48.3965778  30.7676768  54.8186684  46.5112352  30.4040098  53.9019203
  45.7407665  29.6840525  54.1778517  45.9199858  31.7924309  53.9054203
  46.7900562  32.3906183  53.6347866  45.1567173  31.9682956  53.1473970
  45.4569387  32.1952891  55.3571653  44.4647980  31.6948223  55.8956051
  46.1664820  33.0922008  55.9437180  45.8251667  33.3209729  56.8663597
  46.9179678  33.6080098  55.5086136  46.9114828  29.9538064  52.5189638
  48.0044413  30.3145266  52.1310139  46.2159729  29.0810752  51.7296457
  44.9540615  28.3975911  52.0510674  44.1661119  29.0944386  52.3367977
  45.2019501  27.7385926  52.8831577  44.5467806  27.6490998  50.8175278
  43.8011265  28.2591343  50.3076696  44.1378117  26.6613126  51.0299492
  45.7638884  27.6085663  49.8789692  45.5115604  27.7374148  48.8264322
  46.4200115  26.7464519  49.9988317  46.5086365  28.8127494  50.3479147
  47.5772429  28.6502719  50.2072525  46.1869097  30.1085544  49.5133018
  45.3066540  30.8311701  49.9248743  46.6308308  30.1881552  48.2262993
  47.6211691  29.2960382  47.5755692  47.3289394  28.2647443  47.7733946
  48.6328268  29.5336556  47.9044962  47.4123383  29.5360446  46.1205959
  46.5527010  29.0238619  45.6884003  48.3510685  29.3447995  45.6006813
  47.1668625  31.0580254  46.1382484  46.8284655  31.4342189  45.1728153
  48.1528568  31.5075946  46.2557411  46.3234663  31.3214350  47.3295593
  46.6030455  32.1975970  47.9146004  44.8483753  31.4094973  46.9171572
  44.4679213  32.3397398  46.2221193  43.9350319  30.5046582  47.3292637
  44.1978073  29.7327924  47.9253101  42.4948359  30.6415844  47.1366549
  42.2706223  30.8472347  46.0899734  41.7356539  29.3796873  47.4236250
  41.8035460  29.1414547  48.4851074  40.6763220  29.5037103  47.1988153
  42.1965551  28.1873035  46.5816212  43.3868361  27.8212261  46.7083645
  41.3160992  27.5460720  45.9879780  41.9126797  31.7689300  48.0423832
  40.9110165  32.4035335  47.6420259  42.4607658  31.9588685  49.2076349
  43.2918453  31.4417624  49.4566584  41.9999504  32.9100704  50.2131176
  40.9173346  32.9972386  50.1211643  42.4524403  32.5481462  51.6565180
  42.2338057  31.4829564  51.7318296  43.4889841  32.7331400  51.9384050
  41.7657804  33.1937933  52.8486061  41.2822151  34.5070434  52.8987551
  40.7224464  34.6417952  54.0978289  40.2736568  35.5748820  54.4049740
  40.7108831  33.4622931  54.7512627  40.2589989  33.2321501  55.6247282
  41.4187002  32.5893402  53.9862442  41.6655588  31.5808702  54.2836475
  42.5303459  34.3403006  49.7983408  43.7425613  34.4810605  49.5362520
  41.6670942  35.3419542  49.8357439  40.7054901  35.1085925  50.0381231
  42.0177031  36.7422032  49.5531082  42.5079393  36.8270445  48.5832739
  40.7513380  37.6204491  49.5320463  40.3222466  37.6466322  50.5336952
  41.1124563  38.6447597  49.4399452  39.6987867  37.2181153  48.5267305
  39.0747285  38.0798793  48.2900476  40.1825571  36.8725204  47.6131487
  38.7433505  36.1044121  49.0100098  37.6752162  35.8648658  48.4223175
  38.9085412  35.3247261  49.9682808  43.0389929  37.3564267  50.5320644
  43.8186169  38.2648993  50.2142620  43.1536722  36.7896056  51.7278099
  42.5046158  36.0462594  51.9429350  44.1957378  37.1704793  52.7253485
  44.1277790  38.2581878  52.7446604  43.8632250  36.6370583  54.0850687
  42.7985096  36.8293691  54.2173386  44.1413164  35.0986123  54.1592836
  43.6774683  34.4598079  54.9108696  43.7436962  34.7445512  53.2081604
  45.1842308  34.7963643  54.0640163  44.6467018  37.3781967  55.1659727
  45.7034731  37.1114373  55.1530075  44.5889235  38.4189677  54.8472881
  44.2010403  37.2355103  56.1504173  45.6462002  36.9680476  52.1936464
  46.5027189  37.8230762  52.5059319  45.9370375  35.9481168  51.3801289
  45.1443720  35.3863597  51.1040735  47.1563578  35.9588242  50.5624628
  48.0196476  36.0719395  51.2182379  47.3302364  34.6346378  49.8545933
  46.5275526  34.3270373  49.1843891  48.6025095  34.6607447  48.9974260
  48.8725758  33.6236691  48.7983274  48.4270239  35.1597619  48.0443811
  49.4193697  35.1515198  49.5265532  47.3788214  33.4836745  50.9043598
  46.5884018  33.5665131  51.6503286  47.4362373  32.5104380  50.4169035
  48.3127594  33.6165762  51.4504385  47.3893499  37.0868921  49.5671654
  48.4876108  37.6273751  49.5543003  46.4253092  37.5649524  48.8074017
  45.5165291  37.1422458  48.9320707  46.4812469  38.8466430  48.0283499
  47.2936726  38.7198496  47.3128176  45.1509380  39.1237378  47.2842693
  45.2503633  40.0999737  46.8097353  44.9487019  38.4093213  46.4862680
  44.2868423  39.0521598  47.9448128  46.8174124  40.0755501  48.9456511
  47.6587391  40.8978796  48.5485506  46.1214113  40.2740431  50.0287056
  45.4682255  39.5498681  50.2914286  46.3962460  41.3532114  50.9990644
  46.1473036  42.2933245  50.5068159  45.4494762  41.2516880  52.2200775
  45.8859968  40.4617596  52.8312778  45.6093836  42.2060919  52.7217150
  43.9727592  41.0275030  51.8088341  43.6409283  41.8618774  51.1909294
  43.9165974  40.0720453  51.2872505  42.8021002  40.8469820  53.1913900
  41.4406967  40.1736498  52.1656752  41.8314791  39.4387341  51.4619064
  40.6967258  39.7260976  52.8246927  40.9974861  41.0672855  51.7262459
  47.8261089  41.4407921  51.4320707  48.4554672  42.5372791  51.4902544
  48.3709526  40.2413130  51.7820883  47.7210426  39.4919324  51.9722080
  49.7478199  39.9467802  51.8613195  50.1059437  40.4756975  52.7445507
  49.9988031  38.4704685  52.2701502  49.3890238  38.1007123  53.0945015
  49.8517895  37.8263712  51.4031887  51.0368776  38.3985758  52.5946999
  50.5648327  40.4366541  50.6840563  51.2628555  41.4550447  50.8008337
  50.4761362  39.8378134  49.5540285  49.8626709  39.0447974  49.4320202
  51.1126614  40.3359699  48.3097792  52.1652412  40.0947237  48.4580278
  50.6399202  39.5403171  47.0936441  49.5540857  39.4464660  47.0777512
  50.9773111  40.1066542  46.2255764  51.2657785  38.1049681  47.1479750
  52.3118925  38.1920958  47.4414873  50.8227253  37.6317906  48.0242777
  51.1106253  37.2128391  45.9040356  51.9026756  37.5398326  45.2303600
  51.3295841  36.2263799  46.3127518  49.6994877  37.3237681  45.3971910
  48.9673471  36.8470693  45.9039736  49.3461227  37.9962587  44.2763948
  50.2640200  38.6581779  43.6270332  51.2055492  38.6961913  43.9905882
  50.0461674  39.1420412  42.7676630  48.1052065  37.9388189  43.7592554
  47.4085903  37.4141264  44.2686939  47.8292704  38.4379148  42.9256678
  50.9509802  41.8267441  47.9685307  51.9037771  42.2753525  47.3037291
  49.8835659  42.4884748  48.2892179  49.0610027  41.9394255  48.4942484
  49.6899700  43.9199495  48.0206013  50.0669098  44.1751242  47.0301962
  48.1714344  44.2086840  48.1942892  47.7000666  43.5604382  47.4555779
  47.7909946  43.7718821  49.1176319  47.6355171  45.6071520  47.9718781
  46.6081238  45.5816841  48.3350801  48.2988596  46.3121033  48.4730005
  47.6926327  45.8467340  46.4120102  48.5573626  45.4291344  45.8963013
  46.9164801  45.3202248  45.8566093  47.5320864  47.3985672  46.2226200
  46.4754200  47.6570320  46.1536455  48.0109167  47.7924204  47.1191168
  48.2472038  48.0570793  45.0359631  47.8638983  47.6701260  44.1854048
  48.1617832  49.0421152  44.8298073  49.2425108  47.9121113  45.1278877
  50.4417038  44.7156191  49.0225506  51.1521816  45.6445074  48.6836863
  50.4822922  44.3632555  50.3103018  49.8736572  43.6279345  50.6403971
  51.3582277  44.9398613  51.3520336  51.2901068  46.0273218  51.3221455
  50.6853294  44.6224356  52.6455069  49.6139717  44.8231077  52.6505232
  50.6842756  43.5486937  52.8330612  51.2329006  45.3964663  53.8873339
  52.2993708  45.1713419  53.8797331  50.9932041  46.8965626  53.9439487
  51.4525938  47.5151873  53.1729937  49.9288225  47.0628023  54.1099548
  51.4935875  47.2441292  54.8477840  50.5950451  44.8732710  55.1658821
  50.8182859  43.8085985  55.2346897  50.8985567  45.4033852  56.0686350
  49.5224047  44.8139381  54.9814415  52.9192066  44.6699286  51.2107038
  53.7459183  45.5751276  51.3050032  53.2859516  43.4745312  50.8106709
  52.5720072  42.7656603  50.8994961  54.5631695  43.1020451  50.4192257
  55.1536322  43.3150578  51.3103390  54.7557545  41.5648031  50.3483868
  54.3085432  41.0389709  51.1919546  54.4080400  41.2203789  49.3744421
  56.2933493  41.3204670  50.2938318  56.7282677  41.6918898  49.3659306
  56.6436768  41.9631481  51.1015034  56.6832495  39.8794460  50.6336498
  55.8660126  38.9943528  50.7074690  57.9404736  39.6246052  50.9037876
  58.1597948  38.7020254  51.2514162  58.7080479  40.2526188  50.7126808
  55.2335024  43.9459038  49.2765999  56.4070892  44.2774200  49.4316530
  54.5053720  44.2669249  48.1947803  53.5733414  43.8778400  48.2010365
  54.8835516  45.3168726  47.1942091  55.8138847  44.9634743  46.7495823
  53.6998892  45.5716658  46.2605047  53.2500601  44.6301413  45.9454155
  52.9149580  46.0645676  46.8341160  54.0328026  46.3126326  44.9447536
  53.1626987  47.0638418  44.4735003  55.1033306  45.9445763  44.4330406
  55.2737808  46.6420317  47.8630114  56.1861467  47.2691059  47.2831869
  54.4237185  47.1984816  48.6884451  53.6235857  46.6659355  48.9987373
  54.7812366  48.4255552  49.4244099  55.0252390  49.2080736  48.7059164
  53.6322641  48.9695406  50.3383350  53.3853436  48.0853939  50.9260511
  53.9583588  50.1497793  51.3329983  54.7566271  49.8435593  52.0090914
  54.2681837  51.0336971  50.7755136  53.1343412  50.3250408  52.0246506
  52.3779774  49.1954803  49.4701147  51.5492201  49.3999481  50.1479435
  52.5566053  50.0079727  48.7658072  52.1583557  48.2463455  48.9812326
  56.0520315  48.1999302  50.2447891  56.9982386  48.9084148  50.0455427
  56.1327648  47.2768354  51.1337423  55.3953314  46.5911007  51.2116289
  57.3551893  47.1037531  51.9668245  57.4343014  47.9921341  52.5934219
  57.1436262  45.9181643  52.9085493  56.4988327  46.1470366  53.7570524
  56.6371155  45.1271105  52.3555803  58.5036039  45.3807306  53.4425211
  59.2719460  46.2060499  54.2709494  58.9717913  47.1765471  54.6376324
  60.6173563  45.8735228  54.5500660  61.2896729  46.4948320  55.1231050
  61.0782194  44.6000147  54.2486668  62.0370007  44.2174196  54.5660925
  60.2763700  43.7503433  53.5236025  60.5599308  42.7415609  53.2621479
  59.0016365  44.1508675  53.0757666  58.3758688  43.4350204  52.5635433
  58.6071539  46.9143534  51.1203814  59.4653463  47.8026772  51.1830902
  58.7273407  45.9459209  50.2162266  57.9800081  45.2672338  50.1850224
  59.9419975  45.5769539  49.6043730  60.7173920  45.2611923  50.3023338
  59.7834015  44.3347597  48.7076902  59.1951418  44.5395088  47.8131914
  60.6449223  44.0670633  48.0959511  59.3824720  43.0425072  49.4363832
  58.5656404  43.1728601  50.1462412  58.9246988  42.3223019  48.7582493
  60.4823303  42.3025942  50.2074099  60.2110434  41.3756037  51.0538769
  61.6406727  42.6518536  50.0324297  60.5438519  46.6929579  48.7693739
  61.7857313  46.8539715  48.6723995  59.7049809  47.4933338  48.0913734
  58.7368631  47.4016809  48.3642197  60.0165892  48.7299871  47.3650599
  60.7572126  48.4925461  46.6013813  58.7192774  49.0802288  46.6984463
  58.5315609  48.2024622  46.0800648  57.9481745  49.2821217  47.4419069
  58.7864685  50.3062010  45.7370043  59.7650528  50.1558542  45.2810764
  57.9679966  50.2096224  45.0236511  58.8583136  51.9874334  46.3675833
  57.2078180  51.9478369  47.0563745  57.2871399  51.1924267  47.8381491
  57.0969057  52.9459000  47.4802494  56.3449764  51.6658831  46.4529610
  60.5353737  49.8624897  48.2983398  61.5408468  50.4384565  48.1007004
  59.7992277  50.1737499  49.4431162  58.9281130  49.6935558  49.6182489
  60.2739334  51.1146402  50.4422665  60.5213261  52.0472240  49.9351263
  59.1971445  51.3376951  51.5070581  58.8499594  50.3660202  51.8583441
  59.6897697  51.7334366  52.3952103  58.0784082  52.2842121  51.0851526
  57.6475239  51.9273901  50.1496744  57.2443581  52.3150778  51.7862320
  58.5307837  53.7092209  50.7082415  58.9986181  53.5715771  49.7334146
  57.6193714  54.2949104  50.5882549  59.4323349  54.3347120  51.6780615
  60.3986931  54.0577126  51.5804720  59.2151165  55.4193354  52.4111414
  58.1312799  56.1232138  52.2936678  57.3422289  55.8449459  51.7279291
  57.9089355  56.9262505  52.8644514  60.0327444  55.9289074  53.2931566
  60.9695148  55.5609655  53.3778572  59.7597218  56.6180849  53.9791584
  61.6017818  50.5987453  51.1035490  62.3335314  51.4093208  51.5698338
  61.9231558  49.2722082  51.0334444  61.1852217  48.6727715  50.6925106
  63.0853844  48.6462831  51.7042494  63.4007215  49.3035984  52.5145626
  62.6026535  47.3634672  52.3006487  61.6800690  47.5663042  52.8445244
  62.3248243  46.6471148  51.5275049  63.5869169  46.6086435  53.2288837
  63.9552355  47.2227812  54.4676971  63.5906553  48.2336998  54.5750523
  64.7913551  46.6444016  55.4738665  64.8883486  47.1764898  56.4086866
  65.1178122  45.2875853  55.3047800  65.4945421  44.7455931  56.1596012
  64.8677254  44.6940327  54.1082668  65.1055956  43.6405611  54.1047192
  64.1588640  45.3291321  53.0190468  63.7792587  44.7399330  52.1973705
  64.2985201  48.4343481  50.8262634  65.4100847  48.5259581  51.3266850
  64.1124582  48.3903646  49.5140648  63.1793499  48.2183361  49.1679287
  65.1129103  48.5663748  48.4511375  66.0198450  48.0031252  48.6709595
  64.5105886  47.9187441  47.1848726  64.1288996  46.9361448  47.4622297
  63.6413050  48.4956217  46.8691826  65.2159071  47.9479218  46.3543463
  65.4516125  50.0304842  48.1853628  66.6018248  50.3194714  47.8640699
  64.5137501  50.9638691  48.3137894  63.5606861  50.6449652  48.4141636
  64.7222042  52.4163103  48.0675602  65.6378746  52.5032139  47.4826717
  63.5387325  52.9577255  47.2891474  62.6851940  52.7510118  47.9347849
  63.7817383  54.0110683  47.1494532  63.3778477  52.2543335  45.9364843
  64.3056107  52.2940969  45.3657150  63.1688595  51.2023830  46.1309814
  62.2828341  53.0201006  45.2137661  61.4467430  53.1574249  45.8994722
  62.6018190  53.9866781  44.8237801  61.7653894  52.2512770  44.0198040
  61.5462685  51.2417316  44.3675232  60.8089685  52.6824808  43.7241316
  62.7866793  52.2679329  42.9762793  63.5968447  51.7975855  43.3537817
  62.4552584  51.8621349  42.1128035  63.0347681  53.2177210  42.7386713
  64.9750614  53.2379341  49.3267059  65.3067589  54.3742561  49.1273165
  64.8345566  52.6854134  50.5132437  64.4069386  51.7704439  50.5220890
  65.3985977  53.1911802  51.7740250  64.7594023  53.9948082  52.1396828
  65.4962015  52.1664190  52.8436947  64.4658756  51.8829870  53.0586195
  66.0083151  51.3025713  52.4198961  66.2218952  52.5496197  54.1390467
  67.2979069  52.5053549  53.9707088  65.9248161  53.5952759  54.2193556
  65.7470179  51.5932798  55.6364059  66.5222311  50.0591373  55.3161669
  67.6066685  50.1663160  55.2913809  66.1894894  49.3348122  56.0596275
  66.1936522  49.7462940  54.3250751  66.7973995  53.8090420  51.4761353
  67.7605438  53.1715870  50.9475851  67.0576668  55.0734091  51.8512297
  66.1224747  56.0583973  52.3592329  65.4779625  55.6287336  53.1261110
  65.4762411  56.4342213  51.5659857  66.8315887  57.2051001  53.0054808
  67.1355915  56.8900156  54.0036774  66.2712336  58.1314087  53.1321764
  68.0590773  57.1988773  52.1104574  68.9429903  57.5795650  52.6221991
  67.8077602  57.7929878  51.2318373  68.3535719  55.6980848  51.7463112
  68.7218046  55.6450081  50.7217693  69.2952299  55.1509905  52.8559685
  68.8262796  54.6458817  53.8589954  70.5892992  55.1134396  52.6073933
  71.0029030  55.6435585  51.8537283  71.6475677  54.4685316  53.4306240
  71.1900806  53.6749601  54.0214300  72.6796055  53.8609457  52.4965954
  72.2312117  52.9935503  52.0121670  73.0408955  54.5749283  51.7564631
  73.9869070  53.4672117  53.2306528  75.1136065  53.6791611  52.7133846
  73.9968634  52.9709053  54.4085836  72.2370005  55.4277849  54.3869400
  72.8752851  56.3874817  53.8624430  72.0773172  55.2406311  55.6284571
  40.0733614  40.5482912  46.1333227  36.4443684  40.5429029  49.5007420
  42.1623182  38.9309549  45.7667160  41.6037703  40.1729584  45.2974749
  39.1192532  39.5043707  46.2003469  41.8948936  35.3124475  57.8131342
  40.9305429  31.2157464  57.8187227  44.0352345  38.4740806  60.7055616
  37.9108930  39.7029996  46.7336273  45.0545740  34.1975260  58.7782955
  40.0654459  33.0537653  58.8026333  39.7657585  41.8399811  46.5808153
  46.1733961  34.9457359  58.7297630  36.8688560  42.3890734  50.5857801
  38.5505652  41.9754744  47.3254585  44.4266605  36.3426948  58.9780140
  42.4237728  41.4356279  45.2232409  37.6457000  40.9334230  47.4289274
  41.4872932  39.6364307  43.6691475  36.3485789  41.1709309  48.1588602
  39.1510153  38.1478953  42.5399303  36.6570830  41.2088871  50.6707478
  35.9166002  38.8538527  39.0722156  36.9222546  40.4940748  51.9997931
  37.0980239  39.1068625  52.0714045  37.7661848  38.5316181  53.1939125
  37.2232628  41.2896919  53.1239271  37.9393697  40.7090330  54.1909695
  38.2703304  39.3235588  54.2209864  39.0014386  38.6559868  55.3357792
  40.2918530  39.1881084  55.7805395  41.1016417  38.4740400  56.6368580
  40.7360983  37.1994615  57.1401072  41.7344761  36.5523577  58.0432558
  42.6220226  34.5495510  58.8430166  42.4695349  32.9790759  58.4403181
  41.0457182  32.4259710  58.4253120  39.6012664  30.6314492  57.8178453
  44.0274763  35.0204110  58.9271164  45.8295155  36.2295961  58.9668417
  46.8274355  37.2957349  59.1054916  43.5663891  37.3413372  59.4999933
  42.2684002  37.3338079  59.1734695  41.5597057  38.3554602  59.9455690
  40.0941133  38.6893892  59.8442173  42.4107456  38.9563465  60.9102631
  41.9829845  39.8241925  62.0538759  39.4808555  36.6464305  56.7170620
  38.5841799  37.3711872  55.7956409  40.5315542  40.1790762  42.7794600
  40.7806969  41.4510870  42.2354603  39.9831080  41.9364405  41.1893225
  38.8502836  41.1884499  40.7671976  37.9757738  41.8435669  39.7142053
  38.6526227  39.9033356  41.2940931  39.4807816  39.4508862  42.2546148
  38.0607843  37.7665496  41.7377758  37.7131844  38.8500953  40.9456348
  36.7457891  38.8891268  39.9419880  39.3032622  38.4900284  45.8587933
  37.2403812  38.8571429  46.8533564  40.4638529  42.6718855  46.5811777
  38.3566999  42.9260254  47.8135824  36.0886097  42.2344637  48.2259369
  35.5648756  40.7162237  47.5406027  36.2777638  39.5445943  49.5430613
  36.8638849  38.5348678  51.1784363  38.0571055  37.4861526  53.1519222
  37.1153140  42.3702955  53.1182718  38.3834481  41.3195467  54.9716473
  40.6605911  40.1244020  55.3721476  42.0740461  38.8682389  56.9169378
  42.2206926  34.6741343  59.8562336  43.0268908  32.2701716  59.0635872
  42.9114676  32.7758121  57.4579573  39.6456885  29.5886660  57.4804831
  39.1371179  30.6326222  58.8117075  38.8544202  31.2477660  57.3025179
  47.1800137  37.4374199  60.1337290  47.5775814  37.0146418  58.3572102
  46.4109182  38.2907248  58.9101124  39.5150781  38.7682152  60.7716656
  39.9029136  39.6711636  59.3956423  39.5540714  37.9216123  59.2780590
  42.7392864  40.5530071  62.3677063  41.0965729  40.4204130  61.8079948
  41.6996241  39.2366767  62.9348898  39.2531061  35.6690502  57.1320963
  37.6068807  36.9613194  55.5583763  41.4507818  38.6470079  43.8785601
  41.7019987  41.9543314  42.5135612  40.2007818  42.8977728  40.7333994
  38.4405398  42.7630615  39.3397975  37.9611111  41.2052107  38.8231707
  36.9608784  42.0049572  40.0957727  39.5770431  37.5004220  43.1867456
  37.6530385  36.7658353  41.7888260  14.3314564  21.1608005   5.5547380
  14.7940278  21.8759513   5.1179075  14.4037020  20.4233599   4.9487758
  13.8513136  72.5176001  72.4576807  13.0397022  72.0738602  72.2114849
  13.5794020  73.4078646  72.6806784   6.4901567  69.4130421   5.5817509
   6.0550046  69.9932051   4.9570242   7.3649961  69.7870445   5.6866843
  63.4699869  38.3131409  26.8696308  64.4041300  38.4174371  27.0505500
  63.2876158  37.3957348  27.0729470  59.2855787  23.3269000  69.8559475
  59.2627764  23.2617807  68.9012384  60.2144432  23.4200215  70.0675488
  27.3890734  25.0732207  60.2070856  28.0517817  25.7156706  59.9534941
  26.7139363  25.5875111  60.6497192   9.9509525  68.7148857  38.0206656
   9.1507673  68.3106565  38.3561206  10.3218973  69.1733980  38.7745881
  11.5297163  23.1015992   3.7930736  10.6698799  23.1947589   3.3829108
  12.0621574  22.6554537   3.1345201  86.3727379  13.5149813  20.2658558
  86.4106941  13.9520907  19.4151330  86.4767647  12.5854588  20.0623894
  47.7749777  35.3164935  74.1729832  48.5580683  35.8340645  74.3603849
  47.8171921  35.1506591  73.2312012   2.7887237   2.3936711   1.2034200
   3.1940123   2.4063851   0.3363496   2.4145919   1.5159580   1.2800805
   1.4946924  79.0884542  55.4164362   0.7773539  79.7128439  55.3078461
   1.3852514  78.7501001  56.3051271  36.5685320   8.4470373  33.5113049
  35.7049680   8.0828243  33.3167839  36.9596028   8.6078942  32.6525736
  20.7603812  59.3782568  41.4462805  20.7777572  58.9002037  42.2753716
  21.5069175  59.9750948  41.4982510   9.9164861  40.8175135  49.7650814
  10.4782569  40.7925177  48.9904737   9.3061137  41.5350294  49.5952368
  86.2147713  22.8480625  20.3220081  87.1025562  23.2052636  20.3005195
  85.7276630  23.3789897  19.6918666  14.2390609  16.9520748   4.5622393
  14.1155410  16.7804325   5.4957885  13.9931321  17.8706717   4.4530129
  56.0775518  10.0439274  30.4557562  55.7658434  10.9296370  30.6417346
  56.9648218  10.0220668  30.8142400   2.6825169  72.5579834   7.1318322
   3.6074522  72.3403645   7.0162147   2.4151874  72.0636129   7.9066634
  78.1319332  79.7939634  55.9181213  79.0595627  80.0171566  55.9950686
  77.7423906  80.5419064  55.4652834  84.6683502  72.7871037  71.5224934
  84.8563671  72.0954418  72.1569109  85.5024910  72.9372740  71.0776329
  86.0611820  29.4870019  44.9054432  85.1243782  29.5353246  44.7149229
  86.1345577  29.7649550  45.8184576  21.4345336  10.2279115  30.8682132
  20.8916759  10.9195566  30.4898429  20.8086944   9.5657355  31.1616087
  80.2539825  79.6355057  43.3344698  80.9768963  80.2628994  43.3331919
  79.8057079  79.7883129  44.1662931  25.9940648  56.5096283   9.2289048
  26.1168242  56.8360710   8.3375037  26.8283510  56.0953331   9.4492692
  79.0325928  78.8343620  16.2431264  79.4683027  78.4343386  16.9957018
  78.2539558  78.2955790  16.1029029  86.7398739  56.4177418   9.1040564
  87.6451683  56.1285353   9.2182732  86.7206001  57.2982168   9.4790506
  67.9364347  66.7310333   9.9589175  67.3968458  66.1353064  10.4787159
  68.0207920  66.2981796   9.1093558  76.3507462  53.0965900  26.2367249
  76.4887381  52.2153139  25.8895302  75.6508064  52.9931498  26.8814087
   5.6256866   9.0952981  32.0456815   5.0075626   9.8248088  32.0900440
   5.5945998   8.8102245  31.1324453  84.4032001  44.4574070  40.4552603
  83.7648678  43.7447405  40.4847383  83.9306355  45.2165079  40.7968521
  45.7034969  79.3505621  32.6566434  46.5110064  79.4399595  32.1505094
  45.0145006  79.2732477  31.9966936  77.6046038  85.9423828  23.3062172
  77.6070595  85.0203609  23.0491090  76.9804525  85.9873867  24.0305400
  39.2305183  73.6618185   4.3124995  38.5787129  73.1105280   4.7454673
  38.8072872  73.9402390   3.5003474  32.7770352  67.1101332  68.8577223
  32.7387333  67.9655695  69.2855072  32.3482895  67.2455120  68.0126905
  54.1917419   9.8085475   9.2076558  53.4899426  10.4570663   9.2635953
  54.3941259   9.5954669  10.1186275  41.3065434  20.5750990  48.0114985
  41.2598896  21.4181781  48.4623575  41.2160635  20.7941127  47.0840931
  89.3046093  69.5811892  38.6582685  88.4519100  69.6247292  38.2255459
  89.6622849  68.7323761  38.3978581  72.8482342  73.0980206  35.4224682
  72.9989529  73.6117554  34.6289992  73.4241343  72.3391294  35.3294468
  13.1236982  66.7253065  52.5126505  12.3272443  66.2224007  52.3424196
  13.6168194  66.1898232  53.1341982  87.2861862  50.9880829  25.5312371
  87.8068542  50.5818701  24.8383260  87.8066730  51.7407465  25.8119702
  16.6141772  63.3351707   3.6598817  16.8787193  63.3864832   4.5783678
  16.6861093  62.4060059   3.4414628  45.2662563  17.0296454  35.7130504
  45.4916525  16.1030173  35.7954311  44.7835493  17.0863307  34.8884201
  82.1321678  67.3632002  58.8348866  81.4836502  67.5876570  58.1675911
  81.8061829  66.5507078  59.2219639  31.1463714  17.0957792  22.0327091
  31.3433003  18.0317140  22.0711350  30.2362967  17.0304334  22.3220611
  50.4337311  23.4691906  69.9482441  51.3412809  23.4806085  69.6441889
  49.9352407  23.1365466  69.2018652  48.1298113  19.5925736  47.1482420
  49.0359020  19.9010634  47.1560001  47.6555777  20.2549529  46.6456604
  21.0612440  85.3516006  22.1641731  21.9864249  85.1340103  22.2778535
  20.7665300  84.7812271  21.4542103  19.3495011   6.3374674  37.6849461
  19.7783458   7.1882510  37.7770877  18.4251034   6.5151423  37.8585911
  82.9989338  74.8329735  49.4472980  83.1342316  75.3788280  50.2218771
  82.4798298  75.3792000  48.8570499  71.7251110  63.5447884  23.3163738
  71.1681652  63.3866882  24.0786386  71.8563652  62.6781416  22.9317617
  73.1337261  49.4921684  10.6303322  72.5951290  49.3402004   9.8537707
  73.9516640  49.0292645  10.4488492  20.4085159  77.4356651  12.9356086
  20.1270866  77.4910784  12.0223951  20.2395177  78.3079576  13.2916665
  21.9521689  77.0179081  24.3605781  21.6571212  77.7858877  23.8713121
  22.4386334  77.3785448  25.1018786   1.1136822  77.3342466  30.9277940
   2.0507494  77.3167086  30.7332945   0.9149028  78.2604313  31.0652971
  12.1999860  29.5251346  71.8235207  12.9586315  29.8708177  71.3532114
  11.5276539  30.1987934  71.7216158  12.1973109   7.9829377   0.1642340
  11.9325936   8.8797247  -0.0405331  12.2028422   7.9473299   1.1207553
  26.3870454  16.4330900  15.8100390  27.1566677  16.6281843  16.3446915
  26.7449808  16.0913408  14.9906981  34.8683405  67.0597982  40.6815767
  34.1774774  67.3570633  40.0894833  35.4535389  67.8127766  40.7640028
  84.2195225  70.9191942  15.7612717  83.8287544  70.1663542  16.2048447
  84.2300987  71.6091156  16.4246917  24.6184492  25.8655095   1.4431433
  24.2784905  25.4818249   2.2515044  24.3670177  26.7878270   1.4915638
  56.5365410   7.6350182  16.7161620  56.8531752   6.7325234  16.7545962
  55.8946848   7.6939940  17.4238157  67.8469801   2.3919071  29.0569472
  67.1176004   2.2023268  28.4667826  67.7042055   3.2979056  29.3308330
  40.5040503  27.8949809  14.4639075  40.8449364  28.7101150  14.8321223
  39.8871231  28.1768250  13.7884820  27.7331996  20.2821517  60.1110125
  28.4668469  20.4127097  60.7118034  27.4528861  21.1675715  59.8793030
  38.4612370   2.8902864  23.7439299  39.0081263   3.6539024  23.9284158
  37.6337147   3.0754390  24.1879535  11.3309467   5.4109466  27.2360396
  11.0366654   5.4630333  26.3266897  11.2197196   6.2991744  27.5750256
  83.0160713  79.3243265  38.1150270  83.6703491  79.3126869  38.8136125
  82.8413677  80.2535629  37.9659510  73.1508160  47.1151114  33.1017089
  72.7984810  46.6294050  32.3559332  73.7875223  47.7170229  32.7163005
  16.7522097  79.2217159  45.5496883  17.5459313  79.2234898  45.0146818
  16.9562745  79.8022556  46.2828779  84.7435951  70.4795456   8.9117241
  84.4923973  69.7216320   8.3838034  85.6858826  70.3768587   9.0450436
  38.3304501   5.2925885  17.9451823  39.2165613   5.2984190  17.5832391
  38.4560180   5.1528603  18.8837671  10.7836795  73.5157967  26.0556483
  10.1725709  73.9371586  26.6599941  11.5060222  73.2226658  26.6110992
  32.6886320  13.2462943  37.4159479  31.8630409  12.7705204  37.3250055
  33.3230257  12.7204275  36.9288731   3.1131256  33.7827754  59.8882675
   3.6665747  33.4814310  59.1677713   3.1633317  34.7377062  59.8456383
  23.7567997  22.7667737   5.8921832  23.2908010  22.3834682   5.1491112
  24.5709419  22.2665071   5.9482032  67.6669312  63.4059811  74.0408373
  67.1264887  62.6290560  74.1841602  68.3510542  63.3482170  74.7078228
  85.9306335  15.0591063  13.8400161  85.3072834  15.7769656  13.9511549
  85.7381344  14.4608164  14.5619774  39.4221306  74.5335340  69.8154736
  39.3788815  74.1803932  68.9268494  40.2207565  75.0611162  69.8249388
  42.2895575  10.2356291  24.2315602  42.5658226   9.3974090  24.6020985
  42.8646374  10.3653145  23.4774423  91.5425491   4.3688726  18.8116395
  91.9895935   4.9569872  18.2029498  91.4726162   4.8719329  19.6229780
  85.6106758  54.5337152  38.5315561  86.4882278  54.1602278  38.6130881
  85.5738831  54.8652458  37.6343560  49.4774199  37.6295161  70.3788757
  49.9785852  36.9775820  69.8889303  49.7881413  38.4710312  70.0449085
  50.1743793  58.6888170  71.6177750  50.6758547  57.9311800  71.9190073
  49.8881674  58.4512949  70.7357883  59.2811775  67.6686525  70.2709913
  59.1500998  68.5429716  70.6379032  60.2029181  67.4736547  70.4401112
   2.3011358  80.0894260  11.0227132   3.1540310  79.7110939  11.2364089
   1.8519138  79.4036245  10.5286384  67.9328775  61.9910526  32.5367022
  68.6352730  62.2668791  33.1255913  68.1064463  61.0637665  32.3746943
  35.2777171  18.4712875   2.4420543  35.9266615  17.9676461   2.9334274
  35.7453012  19.2595267   2.1658753  83.8047886  74.0047550   2.7474147
  83.9273357  74.9465132   2.8670448  83.2287502  73.9329529   1.9863227
  80.9602642  41.4409828  62.8351641  80.6117439  42.3011303  63.0695057
  81.2043285  41.0453701  63.6719131  29.5132542  47.9195261  14.0518570
  28.7765002  47.9982805  13.4458697  29.6512771  46.9764185  14.1398084
  25.9270025  81.4266876   0.0075064  25.4618574  81.4709405   0.8429204
  25.3016115  81.0221199  -0.5936946  34.0265155  42.9557133  72.9125357
  34.5245886  42.3398781  73.4500313  33.7191606  42.4329948  72.1719074
  13.2683039   8.2180595  18.5254335  13.9717591   7.9866791  19.1319370
  13.6236477   8.0187911  17.6592612  31.1019993  22.3773026  45.5293560
  30.1595902  22.2343969  45.6169510  31.3405204  21.9158292  44.7253799
  63.4043312  29.2329097  70.2631998  62.7054691  28.5866404  70.3639889
  64.1651011  28.7218904  69.9869299  22.8490901  18.9226723  11.2496006
  22.2095776  18.2764673  11.5490603  22.3354983  19.5498192  10.7405412
  19.4675839  62.3805952   8.1878757  19.5997560  63.0526495   8.8565314
  18.8921380  61.7387104   8.6039042  29.4085312  70.9526348   5.8050299
  29.4118142  71.7704487   5.3076363  29.9595690  71.1332607   6.5665817
  40.7785416  19.8263621  26.4610982  40.9293747  18.9873457  26.8964529
  41.0424423  19.6760404  25.5533600  27.1746588   2.3929508  18.9579964
  27.1476793   1.4417365  19.0614152  27.7575374   2.5363743  18.2124007
  63.7225723   9.3464035  60.9800243  63.2293367   8.6337090  60.5738068
  64.4205046   9.5415008  60.3546762  76.5645599  46.6842651  57.4567938
  76.8596888  45.7905531  57.2824192  75.7666826  46.5763092  57.9744530
  12.5685334  73.7276220  37.3585129  12.7568603  72.8841543  36.9470191
  11.9174194  73.5261679  38.0305982  61.7728806  81.1496067  40.5221176
  60.8725071  81.3803482  40.7508373  61.9469166  81.6346931  39.7154951
  63.3479643  81.7431068   9.4178343  63.4657717  81.4235973  10.3124094
  63.8865566  81.1603832   8.8824981   6.9924904  76.8463782   0.0780402
   7.0521189  77.7877692   0.2406989   7.8405882  76.5009741   0.3567134
  77.8884315  38.5849786  70.6276989  77.0955420  38.6811924  71.1552382
  78.2090807  37.7072620  70.8351278  77.4377251  84.3698311   8.3090585
  77.9604101  84.1662693   9.0846813  76.5305662  84.2972755   8.6057633
  70.8255577  45.1030302  36.2298870  70.0034428  45.4800224  35.9164596
  70.9779787  44.3512583  35.6573105  76.8766212  61.7457390  40.3416824
  76.7189932  61.9366312  39.4170499  77.8297710  61.7552853  40.4291153
  60.0335789  69.8261166  58.3150816  60.8961916  69.4125223  58.3478022
  60.2154541  70.7641983  58.3712387  10.4242158  78.9986372  36.4587927
  10.3028607  78.1356859  36.8547964  10.5735755  79.5840168  37.2012568
  11.4273226  83.0881977   6.3627452  12.1097648  83.1413364   5.6936550
  10.9289777  82.3033905   6.1347735  74.9203777  84.4701576  20.2382898
  75.6685209  85.0619984  20.1592278  74.4439220  84.7875595  21.0054159
  67.2644663  77.2640562  46.5894222  67.1564388  77.3452044  45.6418085
  68.2031965  77.1228838  46.7122507  89.2008877  41.8333864  19.9603820
  89.8535538  42.3844337  20.3923631  88.3719635  42.0753813  20.3733587
  66.2857819  67.3217964  18.4934449  66.5465212  66.4589691  18.1712914
  66.2572098  67.8713036  17.7102125  67.0285463  78.7600946  22.6861644
  67.2117424  78.3430576  21.8442893  66.0926390  78.9586496  22.6564717
  62.0152855  70.1895952  39.9773383  61.3651228  70.8279371  39.6840048
  62.5256062  69.9896145  39.1926026  83.7041664  66.1947203  36.2031722
  83.6550617  66.2317419  37.1583939  82.9668522  66.7271328  35.9046268
  57.8600311   6.9464523   0.4972745  58.0766821   6.1193138   0.0670028
  57.4466896   7.4717677  -0.1878727  69.4853830  69.2134428  43.0068350
  68.7174416  69.2093420  43.5782194  69.9514341  70.0170040  43.2377386
  16.6556847  81.1740494  30.2012730  16.8549144  80.2416801  30.1162362
  17.4201262  81.6168880  29.8328280  51.4692116  74.8550701   2.6052275
  52.4193621  74.9600506   2.6545444  51.1863995  75.5238724   1.9815665
  24.4483089   8.0991793  37.5466824  23.6632252   7.9454911  37.0210814
  24.8225069   8.9041370  37.1885610  49.4893646  76.9896173  15.5223858
  49.8173141  77.7929211  15.1181674  49.2031765  77.2600746  16.3948429
  32.9772043  67.5975227   9.6220636  33.0771446  66.7086935   9.9629921
  32.1680188  67.5686550   9.1115570  82.6466846  59.4791460  24.4800568
  83.5733318  59.6751499  24.3417430  82.4225330  58.8717127  23.7750649
  11.1410582  18.7127435  65.2693605  11.7987323  18.3942211  64.6511078
  10.7834911  19.4981325  64.8551846  20.8084559  34.6666384  18.0454361
  20.0926876  34.4438195  17.4502385  21.5205240  34.9456978  17.4698377
  70.4475307  73.2218027  73.8949966  71.2545776  72.7195835  74.0076113
  70.4146528  73.4153891  72.9581547   5.9040332  44.3394327   1.7503175
   6.1372483  43.4205151   1.8823706   6.3424182  44.8027468   2.4640328
  49.9174595  13.0625832  72.5436115  49.2632437  12.8267837  73.2013607
  50.6646156  13.3787835  73.0515623  91.4367485  39.6127582  69.7892237
  91.4833832  39.1091084  70.6018734  91.1977959  38.9693260  69.1220427
  70.4627562  59.9886847   6.6011709  69.7118425  59.4430923   6.3673115
  70.7608414  59.6387482   7.4407691  33.5383129   3.2993409  46.6353369
  33.6292958   2.6446065  47.3276377  32.6248217   3.2293940  46.3580799
  44.0397501   8.8783556  30.5366921  44.9261999   8.5642403  30.3584671
  44.0226936   9.0233326  31.4826965   3.9209244  29.4482327  11.7467630
   4.1195187  28.5293460  11.5666485   3.5694337  29.4472480  12.6370919
  33.5262251  72.4934673  54.5048141  33.2326221  73.3941460  54.3676901
  34.0454173  72.5304699  55.3081226   6.0485357  69.0505028  19.3842077
   6.7618901  69.6667480  19.2180884   5.6148803  68.9519739  18.5365832
  80.0119591  70.8344555  32.1297431  80.0992489  71.6915274  32.5469279
  79.3427086  70.9623718  31.4574504  43.4540224  32.5110030   1.2187509
  43.7002850  31.5867615   1.2557021  42.5234365  32.5021458   0.9947682
  16.1046147  74.6855593  14.1536677  16.4500511  74.0250635  14.7542131
  16.5850401  75.4837561  14.3734467  58.5529852  15.2673233  35.8000183
  59.0672922  16.0432768  35.5772638  59.1056395  14.7812569  36.4120221
  17.3154581  43.8138676   9.1439819  16.9309604  44.4718218   8.5647684
  18.2601488  43.9148235   9.0273637  51.7502737  12.0033872  12.9972053
  52.4742270  12.1722221  12.3942018  51.9800091  11.1768436  13.4217989
  57.4382830  54.5108414  69.8278570  56.4864445  54.4159412  69.7928333
  57.6012230  55.4041243  69.5249844  47.4845934  38.5282540  71.9438601
  48.0473280  37.9998755  71.3778448  46.9106436  38.9985919  71.3392162
  89.3386459  17.4677765  21.4353395  89.2770100  17.9124618  20.5899477
  89.4958496  16.5502596  21.2124419  82.2881508  19.7342432  44.6450996
  83.2009792  19.4462562  44.6510696  81.8720531  19.2258739  45.3412724
  26.7278504  76.7196035  72.7830744  26.9606090  76.0051727  73.3760691
  27.5612497  76.9951248  72.4012852  48.0512047  11.5163386  74.3041182
  48.1136608  10.9069657  75.0396395  47.7668715  10.9747505  73.5678625
  76.6718149  49.7315741  20.6839037  76.6348553  49.8749590  19.7382259
  75.7595873  49.7813749  20.9695387  49.7032547  55.3739738  49.4513321
  49.8181295  54.7136211  48.7679863  50.3749609  56.0301495  49.2656517
  32.0492578  58.3870220   7.2593021  32.9843879  58.3797741   7.4635327
  31.8849444  57.5333118   6.8587899  59.7698927  38.1969213  29.5314574
  60.6462097  37.9137182  29.7924137  59.7288656  38.0144787  28.5927010
  57.0871878  62.5912571  35.6666279  56.2170219  62.4595404  35.2901983
  57.6764250  62.5949001  34.9122977  60.7094908  69.7109747  62.3496151
  60.1836729  70.3768730  62.7927065  61.5123701  70.1677036  62.0985889
  67.3011017  13.2559526  68.0629015  67.9899883  12.6499248  68.3356619
  67.7452564  14.0992188  67.9742241  81.2268162  80.4925156  73.4876537
  81.5466404  80.1360989  72.6588535  80.8219147  81.3264847  73.2493782
  14.8713636  65.1268291  58.1806660  15.4437137  64.3790579  58.3523798
  14.4966269  65.3426838  59.0346050  71.4103794  65.3986406   5.3685874
  72.2419643  65.3004313   4.9048528  71.2499380  64.5387888   5.7573587
  74.1195679  48.8649893  36.3663626  74.0250826  49.4166136  35.5898213
  73.7703276  48.0145264  36.0999513  79.9853516  51.1001825   4.0770218
  79.9668741  51.6793394   4.8389053  80.9041023  51.0864735   3.8088125
  37.5865841  20.9034276  56.0416937  38.1578732  21.3308358  55.4035902
  37.5038695  20.0040913  55.7245445  54.7862387  30.9186864   5.6430876
  55.4755354  30.6326079   5.0437027  54.9424553  31.8560553   5.7578373
  66.9922447  66.2069559  62.6041460  66.9875097  66.4488792  63.5302591
  67.8361368  65.7743835  62.4739122   9.4320047  54.1004848  72.0195150
   9.3899018  54.9589157  72.4408817  10.3326118  54.0332937  71.7022991
  91.1850834  65.2826738  57.5103474  90.3374481  65.3123713  57.0666647
  90.9837818  65.4808950  58.4249067  57.7167749   2.8505328   6.9015402
  56.9637203   2.6725739   7.4649835  57.3843336   3.4604356   6.2429583
   0.3347662  26.6729522  14.2745650   1.1295011  26.1628437  14.4308293
  -0.0280688  26.3096356  13.4667408  88.2096863  86.3669777  19.3241000
  88.5485840  85.5006123  19.0987086  88.0406952  86.3206768  20.2651262
  63.2689905  61.6146946  44.0072823  64.2158985  61.6232681  44.1470098
  63.1177425  60.8603621  43.4377718  59.7029018  74.4317627  61.2706423
  59.1019201  75.0081301  60.7985640  59.2238998  74.1816568  62.0607233
   4.6013549  61.9080067  10.9801745   3.9727876  62.6287985  11.0200882
   4.5511582  61.4983416  11.8438220  70.7221079  54.8180628  10.2409065
  70.4152727  55.6360245  10.6320894  70.0413370  54.1800880  10.4548573
  86.9278526  67.4556637  39.5601106  87.7473927  67.0515394  39.2750382
  87.1481705  67.8875875  40.3854179  77.0713568  16.3108647  32.4082518
  76.3268805  16.9107223  32.3617840  76.6765404  15.4388869  32.4110365
  74.3779898  59.8281717  17.9866552  74.8770618  59.5664930  17.2129071
  74.4030046  59.0610027  18.5585415  88.4905815  81.9204140  24.3994451
  89.0119648  81.1271286  24.2766309  88.9158535  82.3764992  25.1256490
  74.3251085  25.3532600  29.3540144  74.0563488  24.4346642  29.3674994
  75.0016022  25.3949881  28.6781073  76.2945843  21.6375375   8.3659691
  76.1798668  22.5037599   8.7567741  75.9892988  21.7391586   7.4644673
  75.6788588   1.6662686  63.6937618  75.4818678   1.7280349  62.7590895
  74.9859762   1.1090593  64.0482521  80.9342098  40.2587223   1.8371084
  80.8058357  41.1945963   1.9916838  81.4150810  40.2162313   1.0105573
  31.0655355  24.7312498  63.7939978  31.8979025  25.2006793  63.8490772
  30.8161044  24.7933340  62.8719568  69.9693251  57.9046869  22.4595881
  70.8019018  58.0728149  22.9009271  69.9453640  58.5394287  21.7435145
  90.7288265  77.1149969  10.5774903  90.2059650  76.8820906   9.8102844
  90.3204250  77.9133415  10.9122837  29.9867439  51.3432741  57.3764658
  30.2972531  52.2280788  57.1842718  30.7544422  50.8906126  57.7257013
  85.1829720  48.5407019   1.7891030  85.1852036  49.0433884   2.6036784
  85.5808449  47.7023745   2.0239086  11.0444367  76.7263079   2.4926591
  11.8461525  77.0089388   2.0526558  10.8801687  77.4032164   3.1491989
  40.5986786  81.1119843  43.9935827  40.3007030  80.9849834  44.8943138
  40.7429790  82.0553589  43.9198017  89.5466995   9.8028862   6.2843943
  89.3127155  10.7195759   6.4298850  88.9061832   9.3081826   6.7955166
  11.3675833  60.6563187  25.3325748  11.9447339  60.0248718  25.7619977
  11.8890297  61.4569616  25.2751708  45.2711296  24.7520947  13.4589195
  45.2545452  25.5727816  12.9665482  44.3487978  24.5410872  13.6038947
  49.3372536  31.7650414  68.3709478  49.7376442  31.1886764  67.7200079
  49.6288967  32.6429796  68.1251764  52.3062563  44.8183727  33.6857176
  53.1363249  44.3715811  33.5195947  52.5077915  45.7474279  33.5740519
  21.9781423  63.2271719  38.8588691  22.1727324  63.9511347  39.4540524
  21.7662001  63.6511374  38.0272651   8.4426373  49.6627140  18.4293890
   9.0440261  50.3766775  18.6410892   7.9109508  50.0028324  17.7097642
  27.4160361  22.0161057  71.4430714  26.5386987  22.3327065  71.2279654
  27.9778314  22.7854848  71.3499212  74.0095234  73.0707693  51.6594458
  74.4897842  72.2730207  51.4376926  74.6881580  73.6958742  51.9142675
   7.3041934  62.0237446  19.2603123   8.0649710  62.4984550  19.5951211
   7.4121684  62.0384693  18.3093357   5.9180540  16.1478102  33.5875821
   5.1179206  16.3330925  34.0792012   6.0431367  16.9187915  33.0342531
  80.2479649  56.4834309  18.4484291  81.0736656  56.3793468  18.9213181
  80.4710102  57.0291090  17.6942897  71.8838549  71.9047880   9.2869848
  72.3645592  72.1631098  10.0733852  71.8476963  72.7005053   8.7561744
  60.2688599   3.6809281  21.0174537  59.6546841   4.3246901  20.6644773
  59.8783731   2.8340226  20.8018088  69.0708447   2.2285442  64.6425962
  69.5886469   2.5052387  65.3986120  68.2941723   1.8172249  65.0218391
  65.0221252  56.0549736   4.7108147  65.2592659  55.1811934   5.0214618
  64.9462557  56.5800190   5.5075598   3.5090950  35.9423113  16.7190182
   3.7319595  35.0632668  17.0253623   3.2257178  36.4059043  17.5070596
   8.1349981  14.0468419  23.1254601   7.6332891  14.0141213  23.9399838
   7.5673425  13.6294150  22.4775767  39.3116045  23.9705563  21.0837460
  40.1074696  24.0850210  21.6031003  39.5325780  23.2833338  20.4551530
  61.9029808  11.2836802  68.8946390  62.4281979  11.6324329  68.1744003
  62.4930000  11.2941945  69.6482992  27.1124363  22.3306990  68.1836367
  26.4703155  21.7226505  68.5499573  26.7810512  22.5302076  67.3080683
  64.5254326  15.3142810   7.7572715  64.6331024  14.3938541   7.5175768
  65.1613998  15.4551017   8.4586620  84.9192715  36.2829351  24.8567128
  85.5625534  35.8914351  24.2658210  85.2153587  36.0336852  25.7321787
  72.6326990  60.6461668   0.2098777  71.7379379  60.9851551   0.2367611
  72.9332685  60.6912327   1.1175444  80.7985210  43.1494665   1.8163976
  80.9549236  43.5460091   0.9593535  79.9017715  43.4013987   2.0368263
  53.0815983  71.4103365  55.3198195  53.5575962  71.9440460  55.9560633
  53.7383556  70.8046818  54.9761868  52.3053789  55.8358765  16.5853107
  51.8059015  56.6512966  16.5424263  52.4294615  55.5826187  15.6705999
  28.3411717  26.3829875  40.8940125  28.0009127  25.5154467  40.6753159
  28.2503009  26.4431643  41.8449879  81.8231297  10.3282392  53.7281847
  82.5695610  10.7705247  54.1324759  81.2810898  11.0385382  53.3848095
  24.1052985  15.1207721  69.3385124  24.1303110  15.6941152  70.1045942
  23.2796097  14.6439826  69.4230413  72.3173857  55.4532957  25.1192403
  72.0524311  54.5725822  24.8539686  73.2064152  55.3444529  25.4568934
  74.0230751  73.5582972  42.5305986  74.6659422  72.9964066  42.0978928
  73.7400723  73.0547428  43.2938623  73.5326529  56.6586590   6.3870645
  73.7975693  56.7482328   7.3025024  73.8184547  57.4735641   5.9741813
  31.4315152   4.6686563  11.3029218  31.2335968   5.2150047  12.0635557
  32.3689055   4.4887066  11.3746810  67.7614069  32.2984695  64.3527317
  68.2492924  32.4461246  63.5425472  67.9768991  33.0516553  64.9027395
   7.4897707   0.8859133  26.8599892   8.3636117   1.2412307  26.6975594
   7.6055455  -0.0633229  26.8178129  82.6387215  59.3677282  60.4111576
  83.2987309  59.4199944  61.1024523  83.1374836  59.1710234  59.6182060
  82.0832253  68.5501146   0.0687707  82.9252434  68.4657431   0.5161064
  81.4317989  68.4261608   0.7590704  49.8451900  54.9288750  35.4151607
  50.7929516  54.8267460  35.3282762  49.5601511  55.2547550  34.5614719
  56.4483929  19.6543694  51.5347242  55.9103441  19.7906971  52.3145676
  56.5916443  18.7084186  51.5049458  26.9362521  66.8240976  11.9035482
  26.6903472  66.8142509  10.9785259  27.8796840  66.6623306  11.9023132
  30.3884315  81.6313744  12.7207637  30.7041693  81.0734272  12.0099652
  29.4407916  81.6705418  12.5916219  29.2110062  13.1132758   4.7035068
  29.5878363  13.4509039   5.5160576  28.2907391  12.9549587   4.9139252
   8.2005382  29.8683667  57.5239420   8.0519944  29.4728494  58.3828545
   8.7663788  30.6198525  57.7009296  40.0775146   1.4127532  66.0984659
  39.6432829   1.5405971  66.9418716  40.4231739   0.5211002  66.1397648
  41.5889788  59.7569847   6.1625695  41.9926167  58.9957666   5.7456118
  40.6942654  59.7699356   5.8226335   3.9346910  16.1472249  52.8914118
   4.1255665  17.0411253  52.6072645   3.5356885  15.7327712  52.1263933
   5.1543581  39.9374342  23.7906671   4.5405728  40.2594757  23.1305242
   4.9826476  38.9969921  23.8388276  90.0627041  79.4103432  23.7581801
  90.9615993  79.5967484  23.4871292  89.6718311  78.9688921  23.0041456
  67.4862099  59.4981050  70.2237463  67.1414471  60.2607727  70.6881905
  67.5924730  58.8319683  70.9028673  66.1204100  19.8907721  41.9617605
  67.0312977  19.7523749  41.7022133  66.1513090  20.6436467  42.5520611
   1.7392656  31.5312696  60.8854342   0.9018788  31.7725134  61.2814331
   2.0159262  32.3165298  60.4131460  20.6680226  36.4700341  70.4751015
  21.0755205  35.8321023  69.8892498  19.8013639  36.1073995  70.6584835
   7.5631648  67.1583414  38.7982607   6.7653430  67.6475620  38.5973287
   7.8390729  66.7941999  37.9571271  15.2917182  34.8301053   1.9163096
  15.7510197  34.0383744   1.6362415  15.8906019  35.5442500   1.6982163
  83.6753750  68.7552261  17.4843347  83.8397598  68.0410910  16.8685257
  83.4161949  68.3174372  18.2951343  87.7758026  17.3139846  70.6387520
  87.9893303  17.5499272  71.5415096  87.7096748  16.3591385  70.6499958
  40.8674860  29.8999429  73.9373398  40.9267282  30.8441710  73.7918901
  41.6372395  29.6903181  74.4662666  89.2464447  67.9822683   4.2305699
  90.2005196  68.0570507   4.2108479  89.0174961  67.6126242   3.3778220
  81.9887257  57.1777964   6.1226380  81.9606590  57.5632954   6.9983274
  81.7622662  56.2577581   6.2585986  24.6041346  10.4156578  40.0947762
  24.7706938   9.8492557  40.8482170  23.8507032  10.0181627  39.6582317
   7.9192293  51.2668657  10.2555323   8.0904764  50.3298616  10.1610267
   8.6181790  51.5814495  10.8288872  86.6177845  51.5899706  15.3598642
  85.9928703  50.8653116  15.3357124  87.0756149  51.5394926  14.5207715
  29.2034602  15.1610291  73.2109404  29.4211936  15.1196313  72.2797537
  28.2921076  14.8719692  73.2568979  47.3718739  55.7910728   9.2123878
  47.7878618  56.6513729   9.1569358  46.5599155  55.9482574   9.6943063
  66.1194134  39.8237419  56.3813496  66.2578344  40.4140043  55.6406307
  66.4812183  40.2934837  57.1327972  10.0598347  80.7654762  10.2827132
   9.8775446  79.9684238  10.7804251   9.5633179  81.4483166  10.7337475
  35.4764676   9.9678707  64.3035889  34.9364161   9.7085071  63.5570574
  35.0151753  10.7149184  64.6848536  23.5013795   1.1990032  14.6256900
  23.5273719   1.7465511  13.8409948  24.0059328   1.6879579  15.2757525
  20.6023598  84.4356632   7.8116965  21.0611200  85.2289200   8.0883181
  21.2651253  83.9258099   7.3458445  89.4475937  80.0848579  29.9828243
  89.9023819  80.0670719  30.8248949  90.0629425  80.5125141  29.3872643
   6.1540806  76.2249708  17.4420905   5.7512069  75.4125261  17.7484584
   6.3736731  76.0529757  16.5264332  12.3787928  52.1928549  38.7985134
  11.7693424  52.9054451  38.6061096  11.8717647  51.5818357  39.3331218
  31.3644123   3.4794587   0.1870370  31.7589974   3.7395984   1.0194197
  32.1043372   3.1987110  -0.3514070   4.8437825  81.4200878  27.5419641
   4.5048520  80.5559731  27.3081636   5.7723778  81.2726307  27.7214026
  83.8582611  76.3975334  43.0091953  84.4446564  76.3998795  43.7657452
  84.4436359  76.3649416  42.2525501  86.7246342  74.3218613   2.5203425
  87.1321678  73.5920954   2.9868001  85.7852459  74.1985130   2.6566017
  13.8949597  53.2225180  15.0750661  14.8215413  52.9843569  15.1060092
  13.8033211  53.7233067  14.2644846  86.5142727   0.4450356  28.4590960
  87.3778629   0.1504423  28.7483168  86.4610577   1.3547859  28.7519360
  13.4345984  59.6768665  37.2544003  13.0547547  58.8521242  37.5573063
  14.0342188  59.9356937  37.9541802  48.8654566  27.2286320  72.6901960
  47.9415035  27.1124864  72.4687099  49.2186117  26.3394094  72.7183676
  17.5155020  57.1482897  32.8883934  18.1849360  56.4871931  33.0645776
  16.7005146  56.6511679  32.8184247  85.3742313  69.8520470  21.4204407
  86.1069298  70.1313066  20.8714437  84.6605396  70.4459143  21.1876345
  26.2096357  59.2443180  34.5835400  26.9318533  59.3831635  35.1962018
  25.6204987  58.6436176  35.0399518  17.4993682  47.5209808   1.3629745
  16.9522154  47.8246260   0.6386436  18.3728564  47.8557110   1.1599872
   2.7587023  50.3672743  20.4518676   3.4279367  50.7964563  19.9187982
   2.1706338  49.9600554  19.8158026  72.9353523  60.1997042  45.0629854
  72.3494959  60.0664759  45.8081436  73.5141134  59.4373798  45.0740480
  46.6952276   9.2013878  50.1520252  45.8230782   9.3077856  50.5318403
  46.5679741   8.5884535  49.4279051  27.5388551  19.0710533  67.4253607
  26.7226696  18.8399470  67.8688288  28.2080817  19.0070987  68.1067419
  45.8242321  10.2414060   2.9072890  45.7891321   9.2852873   2.9361939
  46.6860342  10.4384542   2.5402626  78.0858755  16.0203052  71.6630745
  78.5708761  15.1994920  71.7483616  77.6184368  15.9370553  70.8319283
  22.2411585  57.4925947  13.7225795  21.5759897  57.9367256  13.1967187
  21.8275428  57.3683643  14.5768166  13.5826242  62.0964527  48.3722115
  14.0560257  62.5455809  49.0725040  13.2082295  62.8023624  47.8451967
   5.1481748  66.7732000   2.5767472   4.8202762  67.4926233   3.1163228
   4.5198119  66.0644722   2.7149567  52.9796839   9.4882292  74.6712446
  53.7606478   8.9734143  74.4680309  52.8630114  10.0569618  73.9102173
  18.8029349   0.6260838  23.0419350  17.9030609   0.3764360  23.2520151
  19.2295432  -0.1961832  22.8008652  76.5722561  78.9887619   8.9071554
  77.1720505  78.2561398   9.0476626  77.1439028  79.7353888   8.7282735
  13.7537384  68.6927271  11.0011590  13.4953701  69.5582628  11.3178957
  14.6163404  68.5436487  11.3883615  71.9032431  26.8705153  45.8307171
  71.8924856  26.8005347  44.8761415  72.5043249  26.1817932  46.1146021
  81.6080284  35.5286002  21.7990398  81.8505859  35.2676392  22.6874638
  81.0282803  34.8305917  21.4942384  13.1057930  72.1792603   3.0617338
  12.7330828  71.4977932   2.5023401  12.6281369  72.9734612   2.8223079
  60.4775667  52.3347807  32.2057772  60.3574705  51.9223022  31.3504004
  59.6404743  52.2081375  32.6523995  56.2306881  84.6881104  35.4060078
  56.3079357  83.9484787  34.8033357  56.3866949  85.4589558  34.8603964
  58.6488438  32.7494979  71.9892836  58.8447237  33.6859822  72.0185757
  58.9369392  32.4716258  71.1197901  87.3762989  51.2409496   2.1412425
  87.5962830  51.2610483   1.2098811  87.0218372  50.3634548   2.2847375
  77.4664021  26.9697595  59.6896791  77.5896692  26.7441416  60.6117058
  78.2526731  27.4634600  59.4567156  19.2326236  35.5050826   3.4878314
  19.7046709  34.7728205   3.8843095  19.4348490  35.4430747   2.5542945
  63.2129812  22.4174213  23.3527398  62.3939037  21.9542050  23.5281610
  63.0737686  22.8369975  22.5037360  85.7677364  57.8752756  19.1789877
  86.4320850  57.1973801  19.0551972  86.1940479  58.5303593  19.7315753
  25.5120587  50.3477001  17.9271042  25.3262162  49.6054649  18.5022402
  26.3992357  50.6179762  18.1639564  57.8588963  48.7685490  10.5505061
  58.7716007  48.6240435  10.3008664  57.7038860  49.6949005  10.3659213
  48.5666943  64.4953108  59.3307543  47.7232838  64.4772530  59.7830439
  48.9870977  65.2977753  59.6398497  89.9870205  59.3135834  31.4298820
  90.0986481  58.9618969  32.3131108  89.3933392  60.0561619  31.5410233
   2.0943761  75.6840086  13.8704348   1.9025420  76.1782837  13.0734873
   2.3191208  76.3518953  14.5182383  55.8955479  64.9460030   2.8655717
  55.5160284  64.0901661   2.6662329  56.7712402  64.7482157   3.1976447
  74.6141958   1.3290642   1.0572612  74.2579460   0.5899253   0.5643210
  75.2043390   0.9288980   1.6958785   7.6743704  56.2659931  22.6392531
   7.1966255  56.8756437  22.0768285   8.1156111  56.8254089  23.2784653
  30.2483606  61.1641979  14.9583757  30.5422854  60.3320360  15.3289819
  29.4954348  60.9317493  14.4149601  29.9150586  34.1023827   4.4693208
  29.6723080  34.2733908   3.5593429  30.3930020  34.8859549   4.7410166
  63.0117655  32.8095174  63.5324335  63.7798071  32.7805328  64.1029596
  63.2787657  33.3640480  62.7993298  65.7811069  30.2947664  64.1368437
  65.5404997  30.6857634  64.9767637  66.4852810  30.8523798  63.8060331
  17.6293492  40.1391935  34.3625522  17.7789497  39.8904729  33.4504175
  17.0767295  39.4409394  34.7136617  49.5440769  24.9157476  19.1314530
  49.3355513  24.5886564  20.0065303  50.4185534  25.2949071  19.2195737
  43.3890200   6.8094039  65.2141523  44.2156553   6.8888128  65.6901789
  42.9138899   7.6135617  65.4234743  88.8505363  51.1664009  40.1405954
  89.0533543  50.2878523  40.4619122  88.7697697  51.0619736  39.1925430
  32.6195312  84.6975994  37.6957297  33.4531355  84.5050049  37.2664881
  32.2010326  85.3439331  37.1271038  65.8304882   7.5975794  17.6308751
  65.7319260   7.9964930  16.7663610  65.0558710   7.0438701  17.7288818
  25.6407499   1.4500822  65.2053356  26.0322428   1.5828134  66.0686684
  26.2867546   1.8017609  64.5927715  82.4157047   6.8033224  49.1826677
  81.8668652   6.7064708  48.4044504  82.2208214   7.6832199  49.5052052
  14.7379267   7.9729605  29.0564013  15.3718209   7.3785579  29.4577694
  15.2737200   8.6308986  28.6133718   6.2599194  45.0448990  33.4253621
   6.7950726  45.5760813  32.8357124   5.8786279  45.6755352  34.0362215
  54.2002106  12.5260603  11.7488384  55.1417446  12.4432015  11.9000959
  54.0901279  13.4120715  11.4037323  34.9406958  72.7008343  12.5586748
  34.3291855  72.2599411  13.1485045  34.7297049  72.3538685  11.6918826
  70.4199123  81.7976761   6.8641710  70.0770807  82.6395893   6.5643638
  70.7323503  81.9689655   7.7525848  50.5500460   5.8949333  19.5289886
  49.7626543   6.4384264  19.5582783  50.4686213   5.3143585  20.2856493
  11.8942118  50.3991604  14.7383773  11.6556823  49.5118666  14.4699681
  11.8314838  50.3854990  15.6934226  71.7389774   6.4994538  61.9467592
  71.6205406   5.6140000  62.2905254  70.8746815   6.7461896  61.6176033
  83.9466190  46.5002728  65.6584597  84.4686127  47.2980309  65.7441044
  83.9736652  46.2955427  64.7238016  12.5148416  74.2628860  52.3190975
  12.6870310  73.5013390  52.8728390  12.2675359  74.9544001  52.9330015
  64.1314936  11.2221861  31.2643647  64.0211821  10.9012210  32.1593738
  63.2438803  11.2443864  30.9067678  52.8227329   2.5396290  18.4119749
  53.7356424   2.7275923  18.6299193  52.7604961   2.7116156  17.4724126
  21.9255304  39.6756291   1.9514616  21.8399000  38.7335086   2.0974448
  22.7883124  39.7783256   1.5498513  82.2064209  72.4013376  28.3032298
  82.5249672  71.8920803  27.5579667  82.8291702  72.2134161  29.0054417
  39.4968081  18.7345600  44.4154501  39.5147443  17.9559481  44.9719334
  39.5860362  18.3947027  43.5250759  71.7048502  34.0225220  71.4015627
  71.5240145  33.0890703  71.2911177  70.8421326  34.4369483  71.3873053
  25.9951973  35.7537675  24.9023509  25.3903246  36.3369775  25.3608537
  25.6448936  35.6962061  24.0134144  91.3131523  79.1875887   2.5483137
  90.3799629  79.3720913   2.6548064  91.3564491  78.2406282   2.4155653
  80.4360008  65.8249617  22.2526932  81.1184502  65.6876469  22.9096937
  79.8488998  66.4692354  22.6482368  22.6131582  67.0353174  21.2209201
  22.4388814  66.3154602  21.8272734  22.0231819  67.7342844  21.5030599
  73.6926842  52.0906591   9.6034706  73.6531639  51.2547588  10.0681591
  73.5761595  52.7504635  10.2870762  37.9702377  38.4205651  10.9142280
  38.7170601  37.9021502  11.2137866  38.1370735  39.2996359  11.2542760
  81.7999649  69.1675138  30.9421206  82.3755646  69.9245787  30.8336353
  81.0359669  69.5118427  31.4047098  22.1710873  81.8846130  33.4861135
  22.5260067  82.2486591  34.2971206  21.8634844  82.6469898  32.9958224
  91.3734309  36.3009882  39.6068144  91.4436368  35.4698396  39.1372442
  90.8324527  36.8511629  39.0403485  29.1741586  81.2532425  58.1839180
  28.8016057  82.1335697  58.1344175  29.6566749  81.1508846  57.3635912
   5.9016359  74.5651579   7.1068448   5.8525419  73.6092710   7.1169758
   6.4371461  74.7693729   6.3401908  33.3890510  60.7639265  63.5217571
  34.1656399  61.1934566  63.1630802  32.8250718  61.4844847  63.8027430
   0.2888483  65.4589558  17.4171412  -0.2322492  64.6560478  17.4222779
   0.0896422  65.8683920  16.5751731  18.0118251  73.8401842   3.0839682
  17.9997742  72.9029608   2.8898063  17.1473622  74.1515112   2.8156152
   0.0980451   0.8109761  13.8743186  -0.0324366   1.0903258  14.7805023
   0.3634241  -0.1061866  13.9422691  22.0144820  61.5073442   6.7482817
  21.7071652  62.3498917   6.4137721  21.2672830  61.1545277   7.2314441
  24.3249321  55.9059620  14.4540524  23.5302711  56.3354826  14.1374171
  24.6057248  56.4396715  15.1973832  41.0536385  46.5490007  14.1366410
  41.9650745  46.2581062  14.1066349  40.7295942  46.2347555  14.9807262
  55.1655722  32.9998779  37.7303791  55.9448195  32.6825690  38.1867957
  55.4608011  33.7856221  37.2702909   1.7960945  22.8165412  73.6123323
   2.6640034  22.4213362  73.5300016   1.9478065  23.7543058  73.4947968
   1.4118458  64.2130661  33.0742383   0.6472428  63.9643240  33.5936046
   1.3456240  63.6816931  32.2808337   1.6681504  67.4797344  13.3322561
   2.5102636  67.5825167  12.8889585   1.8733324  67.5781155  14.2620158
  19.9096286  63.3305740  73.5901594  19.5298648  63.6817122  72.7847290
  20.5269241  62.6623440  73.2924175  59.6747494  39.8252892  73.9880753
  59.3095589  39.1129160  74.5128536  59.1227865  40.5802727  74.1919708
  65.6571913  51.6594267  21.0400581  64.8946381  52.0746708  21.4429474
  65.2944756  51.1310530  20.3290796  20.9076834  84.7460556  25.4757667
  21.0729718  85.1613998  26.3221741  19.9744892  84.5336056  25.4913926
  19.6722758  76.9452381  16.4842594  20.1287603  77.3283625  15.7352126
  19.9426401  76.0270166  16.4854395  17.1467030  78.6525488  17.6005828
  16.2851286  78.8120794  17.2152627  17.3093724  77.7219343  17.4465477
  34.0832472  75.1891232  14.2648506  33.3669758  75.0271749  14.8788214
  33.9301562  74.5713520  13.5498989  22.8987265  83.4586334  24.3297386
  22.2582531  84.1279697  24.5706010  23.7050605  83.9471912  24.1643333
  43.9025784  81.6081142  65.6102705  43.5331297  82.4112034  65.2431393
  43.2404947  81.3012314  66.2297106  47.0552921  26.2953305  57.4548531
  46.8314219  27.1500802  57.0867252  46.6963768  26.3151860  58.3419943
  29.0215111  57.0045137   2.8464788  29.0810490  56.9987917   3.8018084
  28.7366247  56.1194706   2.6189515  37.3441172   7.5472581  14.9392033
  38.2267761   7.3826766  15.2709520  36.9826531   6.6758019  14.7775280
  15.2149558   1.3394617  63.7241173  15.7900345   1.8855509  64.2601252
  14.4378078   1.2055324  64.2666435   7.3539698  58.9370060  15.8323789
   8.1916296  58.5470009  16.0822880   7.1546185  59.5500708  16.5399384
  62.0518303  32.1276188  73.5752630  61.9925213  31.1738300  73.5204792
  61.1947536  32.4025750  73.9009237  58.4366226  18.0523837  66.8381071
  58.4113646  17.4508023  66.0939980  57.6599932  18.6011577  66.7289019
  16.9385350  83.0479622  26.1419463  17.5869250  82.3869705  25.8992386
  16.1000490  82.5883198  26.0983419  89.7568321  54.7527266   3.4314987
  89.8796654  53.8611937   3.1054506  90.1731110  55.3082561   2.7724579
   2.1823868  34.2939043  36.9507027   2.5643528  33.9789391  37.7699304
   1.2392326  34.3023825  37.1138620  66.2848997  23.8494349  59.1942739
  66.3444042  23.9796877  60.1407003  66.4514875  24.7155547  58.8223600
  12.8436291  68.4372139  22.1636653  11.9308412  68.5367155  21.8932056
  12.8370345  68.6242247  23.1023955  45.0825167   1.1841754  16.3662839
  45.9391880   1.0407671  16.7685032  45.0208855   2.1341380  16.2662625
  67.7111387  14.4462597  24.8443913  66.7641973  14.3065667  24.8404169
  67.8762770  14.9899340  24.0740800  11.8690670  49.3423653   5.3419060
  12.7071226  49.4914770   5.7796973  11.2144709  49.4656563   6.0293162
  25.6106400  71.5058231  66.6331434  25.8781338  70.7727528  67.1874809
  26.1207318  71.3976955  65.8304310  83.6167145  82.7169704  19.2942441
  84.3918705  82.1782207  19.1357267  83.3637333  82.5135612  20.1947188
  74.5430040  58.9864874   5.4002017  73.6620951  59.3247175   5.2395016
  74.9523830  58.9639235   4.5352548  24.1732430  86.1229706  19.3354869
  23.5647845  85.7078362  18.7241983  24.4950628  86.8932247  18.8671148
  23.0990434  43.0441523  53.3290195  22.6219082  43.2213783  54.1396761
  22.6144814  43.5226917  52.6563883  35.8834839  60.5808067  58.9657307
  35.7320619  60.0950003  59.7764683  35.1980114  60.2750349  58.3717060
  40.7472086  31.2794542   9.9259466  40.4171896  32.1067953  10.2764106
  39.9896073  30.6945586   9.9391520  79.3096066  62.6175261  66.2675667
  79.9953175  62.1714401  66.7645931  78.8972616  61.9239235  65.7526684
  86.4592266  37.4408555   9.9123889  86.6077232  36.7664504  10.5752289
  86.0534477  36.9736814   9.1820955  59.6629715   5.9227055  55.0832033
  60.5844212   6.0064548  54.8379564  59.6162510   6.2873435  55.9669971
  15.9383595  53.1659317  30.7887697  15.1949620  52.6094103  31.0208941
  16.6271293  52.5517750  30.5345178   1.0082363  42.2303677  11.0591447
   1.1412654  42.5961494  10.1846504   0.6620204  42.9595280  11.5736306
  16.9790590  48.2116032  26.2566757  16.2967443  47.5506353  26.3741541
  16.6737521  48.7429285  25.5213428  69.9295521   7.6643568   1.5720971
  69.9881411   8.1243563   0.7347204  69.9873543   8.3568811   2.2303534
  77.5226212  75.2535486  37.6657200  76.8927431  74.5840788  37.3987007
  78.2691908  74.7588348  38.0035543  77.2423983  14.2722285  16.0180593
  78.1020308  14.4262016  15.6261957  77.3067284  13.3970451  16.4003503
  72.3233652  74.5413494   8.0292279  72.0636749  75.2176762   7.4036288
  73.1710052  74.2321920   7.7096057  64.7528982  23.2106948   6.3028044
  64.0090799  23.6870337   5.9339339  64.6396303  23.2862282   7.2502726
  69.0614891  83.5913181  38.2178831  69.7475481  83.0401707  37.8413272
  69.2588854  83.6132622  39.1542506  80.3020573  63.5440874   7.9270339
  80.8219910  63.5591888   7.1234941  79.4474459  63.2111502   7.6531160
  37.5839210   3.7312284   6.5057462  38.0600786   2.9611263   6.8163103
  37.1395040   4.0679166   7.2837991  83.4796238  30.6636548  63.4978294
  82.6169109  30.7604384  63.9010525  83.5320473  31.3831735  62.8687239
  47.3374987  53.6384869  20.1778555  46.4470339  53.9842749  20.2389717
  47.2316122  52.6899481  20.2506089  85.9745693  65.5526781  65.9522247
  86.8829155  65.7072067  66.2115717  85.9214497  64.6064091  65.8181000
  11.0369098  39.8267746  65.5028820  10.7142568  40.5331564  64.9432802
  11.3034034  39.1398692  64.8918390  13.9336908  36.4911532   3.7143895
  14.1763926  35.8649158   3.0323663  14.7209406  36.5767217   4.2521143
  39.2944479   8.5351288  17.2182930  39.2236948   8.0173165  18.0202270
  38.4383178   8.9533699  17.1269345  85.7518959  21.1581612   8.7359852
  86.0745907  21.7614007   9.4054627  85.8186150  20.2932906   9.1406822
   6.6080564  27.3147178  20.2404308   6.4593601  26.4475751  19.8633599
   6.6594827  27.1601272  21.1836648  55.3059721  36.1146402  68.7466621
  54.4743824  36.5882277  68.7266111  55.4924965  35.9191990  67.8283787
  17.7029693  80.7399750   9.2031848  17.2931182  81.5961266   9.0796185
  18.5846865  80.8425999   8.8450277  79.0242290  59.0895796  46.9532919
  78.2236147  58.6336708  47.2129011  79.4342709  58.5078859  46.3131952
  86.0010529  82.0521450  37.9357052  85.3426838  82.3815823  37.3239350
  86.5150261  82.8240013  38.1729698   8.7873626  69.8928261  25.2243376
   8.3835185  70.7425928  25.4005289   8.0981898  69.3840742  24.7972059
  79.4742966  16.8765783  27.7957320  79.4829512  15.9309876  27.9441071
  80.3333855  17.1739125  28.0953765  91.4712497  67.4525785  11.1999702
  92.3099859  67.5330591  11.6541469  90.9534660  68.1910753  11.5205276
  62.8241396  25.6709838  60.7885075  63.4182310  26.3285518  60.4267263
  63.1410694  24.8405576  60.4332924  46.5013313  32.5422955  27.3584867
  47.2553730  32.6371551  27.9404283  46.8000174  32.8945827  26.5200853
  77.0909595  20.0491786  56.9589758  76.5144157  20.7168460  57.3305178
  77.2702312  19.4550586  57.6877499  24.5495009  47.7037382  23.5647821
  24.7186589  47.1716642  24.3422842  24.9614406  47.2197199  22.8490567
  50.8635616  49.7960758   9.3229002  50.0232458  50.0365162   8.9326578
  51.4887476  50.4148388   8.9454031  46.3097525  26.9151449  71.6901970
  45.7194281  27.5053430  71.2217808  46.2459898  26.0863018  71.2156582
  13.9496744  66.5176010  60.3703880  14.5946562  66.5863419  61.0743093
  14.2459190  67.1459770  59.7118950  73.7769413  35.6991982  70.6883764
  73.0263615  35.1130867  70.5917406  74.4379854  35.3415465  70.0956392
  12.9000771  72.8414345  14.3183494  13.5079992  72.6753855  15.0388288
  13.2599151  73.6087227  13.8733602  31.2598753  45.0785446   1.9610037
  30.4858518  45.5019093   2.3323232  31.3938284  45.5182981   1.1214166
  64.4285107  23.6326075  16.5701294  63.8654900  23.7096667  15.7998681
  64.0483570  24.2384672  17.2062516  61.9069624  32.7042985  66.7385817
  61.7370415  31.9765043  67.3366356  61.2139225  32.6410580  66.0813665
  18.1621420  83.2135391   3.0008021  18.6708999  82.4344635   3.2253841
  17.3101759  83.0702591   3.4129405  28.2571030  77.2199631  23.1812263
  27.3386669  77.1483755  23.4411979  28.7399936  76.7896605  23.8868356
  32.0147228  83.1504059  28.2022595  31.5172219  82.9223919  27.4169350
  31.8490314  82.4286175  28.8087225  20.6499505  37.7953768  49.5187092
  20.8881092  38.1193852  50.3873444  20.6217265  38.5792661  48.9701176
  85.0722885  49.1660929  65.5795002  85.1014233  49.2584133  66.5317917
  85.4843521  49.9642563  65.2487707  10.4903173  78.0250263  12.8142369
  10.6450868  77.3943901  12.1109760  11.3636589  78.2317400  13.1470680
  40.0651789  53.2994699  70.9162617  39.1349196  53.3944035  71.1208057
  40.5157995  53.5985947  71.7060089  57.0299101  52.6631594  71.8481255
  57.0797920  53.3580732  71.1917496  57.3281336  53.0769157  72.6581240
  54.2680071   0.3136332  14.2721534  54.2352484   0.2347261  13.3187735
  53.9249609  -0.5202406  14.5934200  44.3515110  63.0634785   7.0752215
  43.9568233  63.7932730   7.5525671  45.2389336  62.9984903   7.4280494
   0.5718089  27.7180791   6.8907565   0.5203778  26.9209814   7.4182230
  -0.2129286  28.2126594   7.1269965   6.5151650  19.8901069   7.4037737
   7.4095988  20.1299119   7.6460832   6.6039050  19.4650388   6.5507358
  62.9353189  27.1616268  64.6254873  62.6132727  27.5383019  63.8065672
  63.8860083  27.2624135  64.5779371  29.2472911  75.6600523  48.4077120
  29.4767308  75.0739622  49.1288853  28.8744307  76.4311314  48.8350868
  59.6821594  81.7650986   6.7001367  58.8324881  81.3571930   6.8671751
  60.0989819  81.8112469   7.5605792  26.5829396   0.4119793  16.1764169
  27.3684597   0.9581882  16.1473763  26.8455505  -0.3586593  16.6797888
  75.3531075  65.9807253   0.6352464  76.2359905  66.0869551   0.9894575
  75.2949953  66.6330957  -0.0628003   9.2611265  78.2751703  16.3760900
   9.4692987  77.5790215  16.9992030   9.7585207  78.0496073  15.5899894
   8.9396399  64.1436148  62.2691631   9.4504470  63.9316559  61.4878941
   9.5731038  64.5351124  62.8705645   5.0569755  13.9861012   9.6728104
   5.9358311  13.6557078   9.4865698   4.9752942  13.9261925  10.6246352
   2.6011887  46.0620928  69.2562962   2.8030846  45.8003044  68.3580017
   1.6755009  46.3045406  69.2328072  82.6463985  10.3692412   4.4912741
  82.2633362  11.2152386   4.2593578  82.3363113   9.7713810   3.8110983
   6.0765338  59.9400759  34.9400425   5.3492320  60.4801464  34.6308708
   6.6701031  60.5586481  35.3658032  62.3434925  12.7871919  66.5168047
  63.1581259  13.0928040  66.9158125  62.6260185  12.2548282  65.7731628
  69.5850420   6.4205927  30.2980733  70.0710917   7.2102386  30.0604844
  70.2111721   5.7073790  30.1735091  66.8534660   2.7280676  24.0875888
  67.0020533   3.1180260  24.9490333  67.0981455   1.8089591  24.1953135
  47.9795466  84.6482376   0.9808217  47.8120111  85.5902247   0.9522353
  48.6232971  84.5405964   1.6809855  64.7031546  11.2070787  12.5097096
  65.2758455  10.7156157  13.0985403  65.0766945  11.0664654  11.6396952
  84.7469997  68.9138126   4.3907630  84.4533920  69.5676041   3.7562656
  85.6348133  69.1865683   4.6223214  76.6771746  62.5919294  72.5002956
  76.2866497  62.9288530  71.6939449  77.6208735  62.6384830  72.3470259
  70.4729843  11.3727200   1.0431286  71.4295483  11.3860810   1.0752907
  70.2633142  10.6505692   0.4508710  74.4386625  34.5162892  58.5561991
  74.3730402  35.2243781  57.9154730  73.9318800  34.8251247  59.3072176
  43.2329178   3.3626097  20.0713611  42.6250219   2.9954541  20.7131481
  44.0724659   3.3982524  20.5297470   0.6309856  71.4471626  73.1655455
   0.1731303  72.2297859  73.4722996   0.1660281  71.1948967  72.3677921
  19.5654011  60.2486467   3.9093766  20.0313997  61.0656214   3.7315336
  19.1080773  60.0509644   3.0920589  70.9766722  51.5450859  70.8043575
  70.9381247  52.4998283  70.7476854  70.0695229  51.2770271  70.9508276
  23.4234786  67.8086233  18.6895800  24.3042159  67.4512482  18.5763741
  23.1254196  67.4506903  19.5258081  35.1312065  75.1267290  32.4667406
  35.1755500  74.8386097  31.5550089  34.2045498  75.0552416  32.6957178
  78.9878511  28.1361222  33.5367632  79.3997955  28.7342811  34.1602516
  79.3247414  28.4100199  32.6836991  88.0193520  59.9252892  53.9077663
  87.2454166  59.6215391  53.4334373  87.7584553  59.9069405  54.8285437
   1.9268738  45.4526091  64.5281839   1.7707220  44.6437502  64.0407467
   2.3021555  45.1625633  65.3596115  -0.1913283  84.8193073  70.3855562
   0.6314638  85.3064823  70.4292774   0.0706270  83.9007378  70.4475737
  39.5421267  50.3157711  62.2691822  39.9885798  50.2739763  61.4235115
  40.2436209  50.4643202  62.9032755  14.2714632  47.6212358  71.2704325
  15.1593566  47.3946428  71.5470743  13.8585532  46.7795038  71.0774946
  15.2362621  77.4295568  42.8559971  15.4143167  77.7758265  41.9815683
  16.0706961  77.0566607  43.1404257   3.2814232  47.8624964  65.7568884
   3.3738387  46.9117022  65.8175325   3.1476310  48.0311251  64.8242044
  20.3675032  50.2034473  50.9652424  21.3245893  50.2009678  50.9506845
  20.1275921  49.2862129  51.0969830  53.3374310  14.8507798  32.1348953
  53.5300827  15.3654528  31.3511658  53.4922981  15.4541111  32.8616953
  26.8963695  42.1099281  12.7403748  26.4087868  42.7165937  12.1831977
  27.6419902  41.8392515  12.2046340  30.2084398  83.1945705  21.9806314
  30.5455327  83.7110138  22.7126694  30.6992269  82.3737335  22.0205426
  86.6403675  32.0632863  17.5525403  85.7893372  31.9514155  17.1289170
  87.0665932  31.2109566  17.4625528  17.5781703  82.9150867  16.2113559
  17.0439732  83.5231495  16.7223561  18.2982671  82.6791859  16.7962003
  58.0733681   7.4834538  38.1511545  58.4860229   8.2632852  38.5223818
  57.2879887   7.8129995  37.7143359  20.9382129  12.0804358  24.4733071
  20.4304051  12.6181448  25.0809550  21.2518692  12.6974487  23.8121367
  65.8555841  40.8969879  19.1493499  65.5731201  41.2632513  18.3113158
  65.5442381  41.5241861  19.8019743  11.7734706  78.9782381  21.5540695
  12.6462770  79.3112087  21.3453341  11.1873579  79.7133303  21.3742375
  56.8696880  38.2070017  71.6349936  56.2297821  38.9153314  71.7058325
  56.9872761  37.8996754  72.5338602  47.2643661   4.6581638  18.3453691
  47.9007101   4.4277048  17.6684713  46.4870787   4.9338052  17.8594983
  60.3259850  38.1464696  68.9717627  60.7472610  37.4342561  69.4529200
  59.4076729  37.8835464  68.9101267  78.5238838  54.6839809  70.5307913
  79.2814159  54.7611189  71.1108112  78.0978155  55.5398130  70.5781746
  83.9169025  36.1194992  13.1842566  83.6126804  36.8553257  13.7155163
  83.2108784  35.9700251  12.5554371  54.7722626   4.0831378  33.6968088
  54.2279339   3.9034927  34.4634032  55.6446409   3.7776977  33.9456081
  60.0921011  14.3256187  61.8894768  60.1571512  14.2819571  60.9354877
  60.6856585  13.6425757  62.2015285  10.3425360  51.8262434  62.2063303
  10.5648720  52.5252914  62.8212547  10.2886546  52.2631121  61.3563490
   4.0373671  28.0808973  43.0646324   3.9613998  28.6374831  43.8396645
   4.8387295  28.3782840  42.6338053  65.6566095  36.5110064  71.0952377
  66.4370632  37.0629263  71.0451460  65.2884436  36.6946697  71.9595051
  69.9827433  34.0937471  62.5245380  69.8308563  33.1712985  62.3189831
  69.4892931  34.5720148  61.8582058  81.7530060  68.6750746   7.3113686
  82.2094345  68.0607414   7.8862512  82.1327877  69.5279741   7.5224662
   8.5283399  66.0614852   0.0432883   8.0219198  65.7358078   0.7873975
   8.2376934  65.5277447  -0.6962241  71.3751030  71.7685270   4.4233635
  71.8730545  71.1887884   4.9997103  71.8344116  72.6069164   4.4720677
  71.1685085  34.5346069  51.9111681  70.7245970  34.1601276  52.6720524
  70.8466196  34.0218902  51.1697245  20.7218218  66.4427757  26.3399172
  21.3782811  67.0764065  26.0504293  19.9676335  66.6031837  25.7727313
   0.5859321  68.9680052  41.1186934   0.7524516  68.9845324  40.1762342
  -0.3589150  68.8337517  41.1926556   1.5405373  72.0071173  40.1299095
   2.1377176  72.7411032  39.9854207   0.7047347  72.3039293  39.7699523
  58.2785082   3.5486925  13.6759305  58.5655403   3.8231537  12.8050029
  58.2542276   2.5929052  13.6299610  88.5364342  44.0503931  70.2160692
  88.0742645  44.3428373  71.0016346  87.8406811  43.8392305  69.5935154
  65.8047438  13.5642505  22.2087002  65.9047365  14.5157182  22.2393703
  64.9816275  13.4248948  21.7404175  87.0201206  18.8263810  55.6054783
  86.2236500  18.8753605  56.1341238  86.8609810  19.4259465  54.8764896
   7.2052085  28.6019802   8.6981708   7.7820462  29.2753005   8.3374357
   6.3426375  29.0159440   8.7270790  53.4693050  23.5543942  20.0516176
  53.0960798  23.5838675  19.1706717  52.9291725  24.1586375  20.5609107
  15.2806640  61.9887543  28.9474344  15.9083080  61.4299583  28.4891319
  14.5574462  61.4030552  29.1713595  34.0625596  45.7745838  20.6599975
  34.5760417  46.5597630  20.8498907  33.1702614  46.0968781  20.5328703
  45.0310898  86.8043423  17.3492634  44.7480583  86.1541271  17.9921794
  45.1611423  86.3038635  16.5437567  64.9415016  28.1666398  67.9038763
  64.0894842  28.5897231  67.7975798  65.3731346  28.2812881  67.0572424
  16.5009308  51.8002653   1.8815883  16.3501561  51.2069273   1.1457565
  17.3331916  52.2272015   1.6783623  18.0310142  50.1982355  46.4427948
  18.5822260  50.9205818  46.7438126  18.3880293  49.4257784  46.8810654
   8.9766598  56.0896349   7.1424508   8.5770154  56.2945366   6.2971514
   9.7094542  56.7011213   7.2154415  57.8315735   1.9211353  27.8560781
  57.7824020   1.5178654  26.9893694  58.4126663   2.6725501  27.7380037
  81.3242435  13.5890388  67.0369005  81.9400883  14.3217945  67.0434475
  81.5536690  13.0764222  67.8120279  31.5432644  75.1539803  12.6018727
  32.0634604  75.0772047  11.8020380  32.0892048  75.6713438  13.1939173
  24.7203469  30.6236029   9.5034277  23.9168310  31.1060238   9.6980125
  25.3424454  30.9158230  10.1696348  50.5603075  14.2404783  31.8944073
  50.4116344  13.3796537  31.5031147  51.4973211  14.2563868  32.0892954
  75.1859093  76.2084484  28.1846023  76.0317183  75.9623718  27.8100634
  75.2613831  77.1482849  28.3496714   7.7319276  76.8451166  35.4778218
   8.5270017  76.9010401  34.9477625   7.9796749  76.2997246  36.2244153
  78.7506628  63.9287376  14.6575713  79.3311501  64.2433023  13.9645219
  79.3419600  63.6436129  15.3542113  58.2437849  11.5230322  17.2485650
  58.7185049  11.6120076  18.0749738  58.4092093  10.6213450  16.9731987
  26.1086607  34.8741484  69.1912651  25.7105827  34.9561858  70.0578880
  26.2243366  35.7767701  68.8944054  21.7400193  15.7550848  16.3726854
  21.2115312  15.5683994  15.5967462  22.5312114  16.1702800  16.0293782
   6.9941115  83.8548183  10.5120623   7.4664164  84.1060638  11.3058102
   6.0794312  83.7925053  10.7872140   2.3835400  58.9043331  51.6669798
   1.7116374  59.5697975  51.5188837   2.5128409  58.4995031  50.8092928
  89.5350456  43.7244606  57.9597807  90.3633785  43.9100599  57.5174570
  89.6061993  44.1759729  58.8007975  85.2710915  50.1995420  23.4500146
  85.6896687  50.3388643  24.2994952  85.9530544  49.8008013  22.9094958
   2.6945162  76.4249325  26.3251400   1.8278110  76.7979240  26.4861679
   2.5827992  75.4861164  26.4747190  65.7822418  57.5412750  22.0301890
  65.6286287  56.7360163  21.5360355  66.6168690  57.3937941  22.4750209
  69.9522257  67.2710752  72.3664808  69.1189528  66.9522810  72.0197058
  70.4228783  66.4787149  72.6250935   4.7870085  24.2377758  71.8877554
   4.9133822  24.2521262  70.9390402   3.8933408  24.5561361  72.0151854
  59.0698528   6.8191725  24.0786076  59.5278931   6.0560584  24.4308686
  58.6668348   6.5042174  23.2695270  27.3679233   3.2848686   1.1123685
  27.2419381   4.2080605   1.3316309  27.8739285   3.2985383   0.2999617
  61.5209912   0.0635321  17.1223938  60.8891438  -0.6257456  16.9176900
  61.1643098   0.8472616  16.7043340  27.5051999  78.7954426  11.9978738
  26.5775371  78.8452339  11.7672336  27.7709842  79.7069073  12.1196485
  82.7150440  48.0027485  57.6665306  83.1539059  47.6054955  58.4187365
  83.4274197  48.3482075  57.1285582  80.5927849  83.2560635   5.2588463
  80.9533596  84.1391850   5.1794708  79.6538782  83.3663177   5.1087266
  48.6177778  19.6718752  69.1511440  49.3780375  19.9494994  69.6621847
  48.4735441  20.3853202  68.5295153  10.9010923  74.0360641   3.6302632
  10.1385856  74.2911911   4.1496155  11.0293651  74.7625065   3.0202973
  32.5631260   7.8890215   0.1563750  32.9393839   8.4760462   0.8121644
  33.1906675   7.1691834   0.0910865  38.7403274  10.2363062   2.6213077
  37.8904867  10.0127196   2.2418186  38.8579750   9.6068960   3.3328086
  62.8096914  21.4041662  52.9576731  63.1175613  21.7794418  53.7826681
  63.5846806  21.3922238  52.3959970  49.4261694  23.4445095  42.9686069
  49.4881773  22.8708339  42.2048759  48.4985733  23.6749864  43.0203581
  80.5062962  83.0911255   8.1660569  80.2308846  83.1604481   7.2519577
  80.3850460  82.1668243   8.3832943   1.5412714   2.9215553  74.4872189
   1.0701237   2.8329927  73.6587191   2.3820965   3.3091849  74.2443419
  59.1850996  21.6528440  63.6716509  58.9094400  21.4441681  64.5642328
  58.4964848  21.2868762  63.1165743  22.0495321  86.0388063  70.6960011
  22.9801990  85.8849607  70.5334425  22.0306875  86.7943527  71.2833929
  24.1626835  36.0968924   9.5204425  24.6380901  36.9256878   9.4628227
  23.4177423  36.2064910   8.9294428  49.0357065   4.3425617   6.7163551
  49.8707867   4.1678616   7.1503484  48.6143208   3.4853792   6.6538662
  53.2424450  22.9545879  73.3920050  53.7959099  22.4461508  73.9847994
  53.3660698  23.8625741  73.6686087  32.1463871  32.2515631  71.4773607
  32.2827125  31.9654489  70.5741549  32.4589920  33.1561637  71.4918184
  27.9382324  78.0518150  20.4652286  27.0016646  77.8575611  20.4286265
  28.2090068  77.7623558  21.3365054  49.4909811  27.5619864  17.0401406
  48.7954235  27.3496366  17.6625049  50.1394606  28.0379868  17.5589216
  42.4307394  22.0490026  10.3656065  41.8767834  22.2715974   9.6173972
  42.6587868  21.1293697  10.2295828   5.4778516  23.8352680  10.1472139
   5.7407194  24.7543573  10.1962817   4.5730224  23.8612270   9.8360199
  13.1908000  39.7666240   8.4821504  12.8191638  40.1805353   7.7031803
  14.0251517  40.2159166   8.6171430   6.0806364  50.7369566   4.2575517
   6.2771279  50.8862257   3.3327046   5.4962766  49.9788332   4.2589310
  87.4389839  51.8786240  73.2368803  87.3011398  52.2063589  72.3481607
  88.1690598  52.3983097  73.5732555  31.1067080   9.2663085  17.0066845
  31.5172577   9.0474534  17.8432155  31.8103456   9.6589875  16.4900303
  21.6957259  71.6989708   6.2112796  21.9695807  71.9605112   5.3321707
  22.3347831  71.0365677   6.4740747  59.2689848  19.1682792  21.9060183
  59.0662766  18.5623765  22.6187754  59.1657686  18.6456668  21.1107469
   3.8345513  22.6547909  66.4173126   3.3589306  21.8643641  66.1618805
   3.8286179  23.2021570  65.6320810  40.7282639  82.9945946   2.2344902
  41.3950729  83.6425877   2.4618869  40.5292177  82.5554466   3.0613852
  56.0901070  82.9982376  43.1955433  55.3042459  82.4584579  43.1101131
  56.5641499  82.8626537  42.3750925  75.8456898  67.1842194  20.1224875
  75.6091309  66.2567377  20.1293731  75.9725714  67.4058962  21.0449815
  89.0608215  51.8346119   4.8291487  88.2950115  51.6269922   4.2937443
  89.7299480  52.0989418   4.1977727  66.1181593  35.7566595  67.8031397
  65.8068562  36.1871505  68.5993814  65.5658579  34.9793553  67.7195311
  46.6178179  68.3121729   1.9749719  47.1231508  68.7219238   1.2728529
  46.1797476  67.5722742   1.5544079  19.6456254  67.4778605   7.5607097
  20.3595591  67.7432108   8.1404686  18.8514745  67.6338816   8.0717987
  81.3028812  16.7408669  75.1161432  82.1811390  16.3602567  75.1226854
  81.1235905  16.9136059  74.1918850  89.9449730  83.6247253  29.1981459
  89.8794842  83.3336449  30.1076603  90.8550739  83.9050388  29.1013193
  69.4260216  44.2827940  11.7481482  69.9836683  45.0313187  11.5360689
  68.5655212  44.5195484  11.4021528   5.4066843   8.7215203  58.7706518
   5.4208690   8.5675484  59.7152805   5.3620857   7.8461683  58.3859396
  60.4241323  21.8184829   6.2134683  61.2899399  21.4522910   6.3937950
  60.5840826  22.5025702   5.5633372  81.9623852  55.3315163  67.9393339
  81.5429115  54.6638012  68.4819460  82.7002525  55.6391382  68.4657812
  49.9840260  35.4175043  22.1698141  49.2859840  34.7682786  22.0833421
  50.7925081  34.9141455  22.0738244  44.6228790  12.0802879   4.3727797
  45.3132343  12.7432323   4.3607837  45.0310516  11.3025296   3.9923617
  87.3375702  38.7677336  55.5289888  87.5589752  38.0132604  56.0748625
  87.2551727  39.4943166  56.1466646   2.8979379  44.9184704  50.7378292
   3.5679254  44.7784948  51.4069700   2.0694122  44.7710037  51.1939287
  56.6400003  61.8516302  58.2547522  55.7394838  61.8916988  58.5767603
  56.6343021  62.3856688  57.4603939  19.4017160  51.4895105  24.5578122
  19.9607539  52.2076511  24.8544383  20.0003576  50.8860254  24.1177416
  52.0077562   7.7076709  11.3103497  51.5881824   7.7618665  10.4517162
  52.9271936   7.5251752  11.1165488  60.4625607  74.2575455  30.2979660
  61.1467791  74.5566988  29.6991467  60.3123569  73.3444834  30.0530553
  45.9981394  85.5482864  50.0486088  45.6571960  84.9821186  49.3561888
  45.2534151  85.6856918  50.6340504  90.1466465  76.3743162  38.5014176
  91.0414982  76.1940002  38.7894559  90.0813293  77.3292732  38.5062170
  11.4270818  53.1660652  51.5391874  12.1686304  53.2885361  52.1319294
  10.6570446  53.3456135  52.0786667  74.1358948  56.3042593  67.5727892
  73.8619232  56.5249538  68.4629917  74.7606659  56.9902086  67.3374796
  10.6621242  74.5144081  40.8313131  10.4080904  74.4497967  41.7519236
  11.6092265  74.6513271  40.8532333   3.2586440  75.3538322   7.3646009
   4.1626471  75.6262064   7.2070497   3.1656796  74.5370388   6.8742621
  31.9625950   0.3363635  15.2642906  32.6705432   0.4088162  15.9044409
  32.3529339   0.6303076  14.4412088  76.1160946  44.6188021  23.0758572
  75.9659815  45.0812960  22.2513580  77.0018959  44.2653227  22.9943609
  66.6328621  61.9091940  66.8989420  67.2667742  62.6116943  67.0434380
  65.7999849  62.2725105  67.1998549   5.7538795  42.3956394  70.1690912
   5.5893761  43.2477427  70.5729342   6.6759074  42.4256039  69.9137545
  77.9373455  82.5944901  59.3991661  77.4612141  82.2619343  60.1600456
  78.7494564  82.9491043  59.7610474  57.8708220  63.9143801  61.6342878
  57.3227119  63.1395960  61.5096760  57.9163647  64.0253258  62.5839424
  90.6959152  45.9012890  28.3480024  90.5216599  46.7734146  28.7019372
  89.9467945  45.3751898  28.6277866  40.7848883  83.5772991   7.8691882
  40.4422331  82.9539299   8.5096735  40.0059986  83.9377213   7.4453259
  63.5151482   3.2097271   6.7313540  62.7676249   3.7568578   6.4903426
  63.1342983   2.3507005   6.9137263  61.7543411  27.1362400   5.2294815
  62.4243975  27.1783614   4.5472181  61.9714928  27.8550100   5.8231527
  52.3822260  29.5627117   5.6675136  53.2326460  29.9990249   5.6160796
  51.8266535  30.1767278   6.1476785  73.7295055  39.9612784  64.3621683
  73.9701223  40.8832169  64.2707300  74.0692997  39.7090793  65.2207518
  61.5949821   7.3422498  35.5786467  61.6014099   7.8632200  34.7756648
  60.9968567   7.8090572  36.1622286  45.1509190  20.3451204   9.1754466
  45.3035355  19.8622334   9.9877030  45.4744244  21.2275124   9.3569934
  64.3333292  79.3732882  64.7848415  63.7780905  79.1475344  64.0385294
  65.1667881  78.9389658  64.6033335  48.4431601  16.8012476  23.5557461
  47.6532078  16.6982853  24.0864158  48.1445312  17.2540033  22.7670360
  38.0330944  40.1059580  64.6560812  37.4103880  39.4607854  64.3210840
  38.5084176  39.6439767  65.3466368  53.6477423  46.2354803  14.6742201
  52.8192806  46.3401651  15.1421154  54.3171835  46.2983847  15.3554845
  86.6766453  57.0298147  32.1008849  86.5562534  57.3927116  32.9784060
  85.8539867  57.2177076  31.6490555  69.6129799  51.7297125  53.3501911
  69.9899244  51.8223095  52.4752235  69.3076801  52.6089430  53.5737371
  12.7093065  83.2393360   3.2128873  12.1732533  83.5759163   2.4948400
  12.8447759  83.9946270   3.7850809  -0.0188754  61.8182802  73.6727333
   0.1158598  62.6757145  73.2691431   0.4027155  61.8878269  74.5292711
  29.5956421  12.3569584  15.2793062  29.4996953  11.4064503  15.2196372
  29.6165752  12.5370407  16.2191808  57.7402592  82.8779697  72.3342371
  56.8211985  83.1422138  72.2924900  57.7304411  82.0528412  72.8193045
  11.3106943  62.3536686  -0.0716199  11.7996145  62.6959078   0.6767522
  10.7364012  61.6856233   0.3027306  42.8119230   3.6949188  15.0216341
  43.1526232   4.5433056  14.7380972  43.3497524   3.4615812  15.7782876
  47.9256201   6.5675026  10.8460212  47.2866631   5.9706199  10.4565358
  47.6292181   7.4393588  10.5847847  56.5652514  72.5045443  59.2609930
  56.7548609  72.0061493  58.4660816  57.3574972  72.4198437  59.7914743
  26.9051862  78.1477261  29.8847389  26.6646266  78.2451487  30.8060837
  27.6186633  77.5096416  29.8896623  26.3889575   4.5925099  28.5846114
  26.4945507   4.8982462  29.4855046  26.2700748   5.3924638  28.0725837
  80.8981323  58.7442398  56.3887787  81.7686844  58.8062429  56.7818832
  80.9406281  59.3149090  55.6214666  67.7388620  86.5367603  67.8327274
  67.3917437  85.6606770  67.6647758  67.6975965  86.6323853  68.7842464
  29.1923714  11.7769992   2.1753807  29.8456883  12.3313379   1.7486292
  29.1471004  12.1074748   3.0725807  38.5080266  19.3896508   8.5687190
  38.5355139  18.7890327   9.3135238  38.2173777  18.8480937   7.8349137
  33.6238337  39.2851710  16.7910647  34.3940210  39.6837187  16.3858449
  33.8125420  38.3467579  16.7925382  61.5413141  41.2352037  25.2688742
  61.8149710  40.4729605  24.7586513  62.2438955  41.3613367  25.9066057
   1.3930902  70.4232407  67.6780367   0.4977820  70.7471085  67.7768517
   1.5855047  70.5314493  66.7466402  43.0478430  12.2914195   2.2306298
  43.0956364  11.3600945   2.0148000  43.6099100  12.3882830   2.9993510
  75.2916718  63.7696218  70.3329229  74.5645332  64.1120672  70.8527708
  75.2171612  64.2195082  69.4913292  49.4964170  46.6826296  18.0931091
  48.6027098  46.3512278  18.1807840  49.4585085  47.5706482  18.4483886
  74.9759531  42.5084162  64.4799566  75.3573084  43.3265018  64.7986031
  74.9064159  42.6294422  63.5329914  36.3359284  71.1707926  19.0886450
  36.1037588  72.0406771  19.4136512  37.2480440  71.2545300  18.8106823
  89.5478821  82.7766514  67.9125500  88.9601707  83.4607887  67.5919437
  89.5245934  82.1030426  67.2328901  70.8846521  22.9543734  32.3044515
  70.0072479  23.1545067  31.9783449  71.4358664  23.6539435  31.9537425
  17.8426707  72.3347187  29.4345093  18.4697390  71.9874525  30.0688815
  17.0313275  71.8600893  29.6152973  73.3483219  17.4108660  16.6240823
  73.7031460  16.6811216  16.1163366  73.5060930  17.1671188  17.5361824
  50.9463978  15.7322443  26.6825223  49.9933577  15.7476664  26.7703199
  51.1140919  16.1198556  25.8235288  76.0287094  58.2403421  67.8435469
  76.7099667  57.9411793  67.2413683  76.2754202  57.8661013  68.6893082
  74.4585371  21.6554785  69.4029284  75.2736807  22.1272922  69.5737076
  74.0583515  21.5486073  70.2658701  26.5773606  60.3241682  45.2161121
  25.9430051  59.9729967  44.5912123  27.4298429  60.0892162  44.8496437
  64.1561842  10.9537792  21.3699484  63.5759640  10.4892409  20.7668042
  63.7604952  11.8203533  21.4632773  84.9647522  55.8236504  68.2504654
  84.8722267  56.3939142  69.0136623  84.5162106  56.2915230  67.5460958
  59.1094732  11.1021936   4.6418935  59.6592903  10.4085433   4.2774966
  59.1602850  11.8102837   3.9998201  55.8445644  53.5297346  25.9133673
  55.9222794  52.6716661  25.4963398  55.1747561  53.4091282  26.5864515
  22.6306248  54.5721340  11.7372572  23.4962463  54.9425983  11.5649509
  22.2483134  54.4428968  10.8692908  26.7384982  16.9080210  48.9030218
  26.4529848  16.6645169  48.0224419  26.6783357  16.0966241  49.4072533
  11.7304325  26.8703866  72.8586245  10.8759189  26.6735649  73.2424212
  11.5758395  27.6409841  72.3122644  30.5259633  49.3232632   5.9730232
  29.8608327  48.6393023   5.8953559  30.2607822  49.8291159   6.7411536
   0.4173854  26.4123702  27.1860194   0.1177052  26.0557556  28.0222297
   1.2686169  25.9993982  27.0407963  16.9160891  76.4591408   8.8398397
  16.3836193  75.8329535   8.3493322  16.7944729  77.2894144   8.3793157
  88.8149166   2.6421529  15.9075844  89.4886684   1.9681163  15.9967959
  88.5844612   2.8710997  16.8079782  80.1987553  78.0557823  13.8095713
  79.8269272  78.3689499  14.6341360  79.9124098  78.6968231  13.1589484
  88.4006119   3.0066162  69.7809553  87.8149796   3.3804166  70.4393911
  88.0180168   2.1532530  69.5769358  12.7168310  69.4567537   8.5670286
  11.7641544  69.4180727   8.6515450  13.0451798  69.1004276   9.3925297
  61.8927193  85.0495243  35.8350039  61.1277008  85.6189156  35.7526493
  61.5383577  84.1622734  35.7762814  69.8671198  19.8612654  30.5703616
  69.0463448  19.5044160  30.2309251  69.9538374  20.7124710  30.1412225
  84.6101189  55.0904989   8.7791270  84.5929432  54.9930573   7.8270543
  85.4340076  55.5434704   8.9587003  48.6651850  49.4003248  66.6262007
  48.1461430  49.9250507  66.0167027  48.0712795  48.7052488  66.9097090
  28.7142301  12.3296118  37.7634645  29.2985106  12.2872722  37.0064592
  28.4919858  11.4166093  37.9458451  79.6810341  75.4711246  39.8791647
  79.9843025  76.1442804  40.4883575  78.7722206  75.3102827  40.1329851
  58.7508631  17.5408912  69.3552351  58.9111662  16.6155338  69.5402956
  58.6600780  17.5825346  68.4032583  43.6479092  66.5499592   2.0258619
  44.3503237  66.4770460   1.3796973  42.8706312  66.7672253   1.5112077
  88.8331509  47.9597330  11.9039428  88.3668995  47.4245358  11.2617588
  88.9950466  47.3666906  12.6376462  14.0316951  45.6551123  21.2174892
  14.2371953  45.2154541  20.3924417  13.7513900  46.5327549  20.9578657
  56.0258865  12.7365351  18.7283671  56.6548967  12.5810313  18.0238116
  55.5060911  11.9336915  18.7669003  33.1422734  69.8302889   7.7482140
  33.0254388  69.4833660   8.6326498  33.6830187  69.1770744   7.3042059
  10.5791962  46.6434145  60.2912569  11.3724852  46.8710041  59.8063564
  10.6089067  47.1962214  61.0721207   0.8507373  31.1381292  54.3977928
   1.4129390  30.6878328  55.0281858   0.6288731  30.4668665  53.7524939
  12.3570943  37.0860720   1.1310188  11.8070042  37.0419669   1.9131231
  13.0449009  37.7122521   1.3569629  56.7060900  59.5392084  66.8775082
  56.3751411  59.9825621  67.6586246  57.6573944  59.5456982  66.9833755
  64.1975737  33.9671135  58.4252691  63.6117983  34.5818424  57.9834461
  63.9057398  33.1043792  58.1307268  35.2832127   5.9740937  61.9030476
  35.9814382   6.1019534  62.5452042  34.9137688   5.1176888  62.1182489
  58.2444334  24.3684673  63.3696032  58.6891794  23.5403299  63.5502195
  58.4590721  24.9240088  64.1189623  54.2708063  16.4544678  48.1053352
  53.9048862  15.5725706  48.0375957  53.6334133  16.9385767  48.6303091
  80.2615738  83.4618378  57.1865845  81.1339474  83.8325405  57.3198795
  80.3310299  82.5636292  57.5100613   8.3526242  51.3524055  14.0763414
   8.8137019  52.1809959  13.9456820   8.6278999  50.8064079  13.3399010
  59.1141987   1.2367089  50.1465607  59.6155310   2.0156002  49.9052668
  59.7306299   0.6998965  50.6446314   1.2521113  50.3032255  62.8639412
   0.3206782  50.5237389  62.8577137   1.3051200  49.5021725  63.3852243
  52.4055195  80.4053879  61.9714880  52.4416208  80.4709148  61.0172176
  53.0801010  79.7634935  62.1931791  57.5147247  62.1177292  27.8367519
  57.8828764  62.8636408  28.3103681  57.1737146  61.5433598  28.5223508
  74.9646568  40.9831429  20.5899429  75.7323074  41.5164661  20.3837562
  75.2841187  40.0813675  20.5587029  38.7823510   1.7819387  73.1728458
  39.1887999   1.1782534  72.5510788  39.1660118   2.6339355  72.9651499
   2.2167863  36.5036678  11.0188580   2.0505893  36.9318581  11.8586576
   1.6391434  35.7404137  11.0207105  79.6641970  37.9519200   6.0833138
  80.0365257  38.6998439   5.6161809  80.1572323  37.9117680   6.9027865
  13.3136392  25.6083202   3.1057736  12.7949178  25.2237988   3.8123879
  13.1762004  26.5515113   3.1936902  66.4158773   9.1150475  64.6778345
  66.3170052   9.6551710  65.4618788  65.9252691   9.5823032  64.0016651
  78.4154177  52.8400803   1.5554582  79.1546535  52.2403526   1.4549963
  77.9853487  52.5570726   2.3624131  73.5222578  -0.0143603  59.8000145
  74.1123724  -0.4271122  60.4305983  73.0814648   0.6733029  60.2990675
  87.6413727  30.5316186  13.4112525  88.4424400  30.8246994  13.8455558
  87.1694088  31.3393903  13.2088017   7.9688495  41.7395687   4.8549268
   7.2979474  42.1833897   5.3737193   8.6645949  41.5418625   5.4818892
  17.3184657  12.4783170  26.1815953  17.9028380  11.8022358  26.5246081
  17.8357613  13.2828856  26.2177444  64.8194838   8.3402705  71.2966442
  64.9854136   7.4802816  71.6828012  64.4933081   8.1490642  70.4172802
  21.1143827  57.7084017  16.2756002  20.3481269  58.2141256  16.0048139
  21.7156935  58.3596277  16.6369307  25.7654476  58.4148550  13.2776201
  24.8272705  58.6041498  13.2924533  25.9036636  57.8303432  14.0229225
  88.3456230   4.5467964  43.5864401  88.8026714   3.9811891  44.2088795
  89.0396500   5.0661230  43.1804132  15.4278994  75.7511377  53.5178089
  14.6300888  75.6686544  54.0402317  15.2703166  75.1999140  52.7512884
  68.5465860   5.2562326  45.2464724  69.3233728   5.8055216  45.1410341
  68.8385391   4.3786439  44.9998236  12.0580196  60.2371836  68.4133482
  11.4615583  59.5854044  68.7816525  11.7918026  60.3148651  67.4972010
  35.3689170  81.0842609  62.4489975  34.8774314  80.7320786  61.7069435
  34.7358394  81.1067390  63.1665897  37.7436423  79.5554638  66.1049557
  37.7738023  79.2280102  67.0038986  36.8170810  79.7364092  65.9469223
  51.8186283  30.3357005  67.7268791  51.5969563  29.5536017  68.2322645
  51.9497442  30.0150681  66.8345594  46.0937548   9.7522098  61.9779444
  45.5112076  10.1507425  61.3313818  45.6278038   9.8441362  62.8090096
  38.4777641  74.7228622  51.2504148  37.8592801  74.0034628  51.3775921
  37.9619312  75.5132294  51.4099884  30.9102869   0.9574607  54.7864485
  30.2910757   0.2838776  55.0676823  31.5467143   1.0104655  55.4994583
  52.6117802  32.5830507  31.3599157  52.3104095  31.6910958  31.5326118
  53.4155369  32.6678061  31.8727756  30.4676676  69.4675779  72.0796871
  29.6997523  70.0046396  72.2748899  30.7439327  69.1265392  72.9303360
  56.8655920  26.4438510  61.5037346  57.5208759  25.8161116  61.8083382
  56.9865847  26.4748716  60.5547190  52.4459267  13.5887480  60.3482866
  52.0550346  13.3091533  59.5204830  53.2206249  13.0351686  60.4464006
  87.3002529  69.4255018   5.2300155  87.8250408  69.7381306   5.9669608
  87.9265881  68.9735603   4.6646142  32.2837710   2.5697634  43.3387566
  33.1808662   2.3370565  43.0993795  32.0931721   3.3522820  42.8214836
  38.8740325   3.3109087  61.1522293  38.4529853   2.9508543  61.9328117
  39.5743012   3.8674635  61.4929676  11.4379299  72.1568203  67.8229189
  11.7914867  72.9012442  68.3098078  11.9814157  71.4157057  68.0905056
  43.1032228  83.9444542  52.7401352  42.6285982  84.7719479  52.6612329
  43.9684725  84.1945839  53.0641985  63.8095570   6.1222517  18.7403929
  63.8004684   5.1692045  18.8289940  63.1157637   6.3106740  18.1084299
  27.4949622  81.9817352  54.9857426  26.7890358  81.4888287  55.4040051
  27.6518250  82.7208519  55.5733919  76.9503832   6.2501258  74.3623447
  76.0910988   5.8730477  74.5512390  77.0123339   6.2384784  73.4072208
  56.0865259  65.1650810  23.8791203  56.1471653  65.6543446  23.0586481
  56.3577843  64.2765045  23.6487150   6.7381549  10.7322311  22.8914785
   7.1095663  10.5892622  22.0209360   7.4973738  10.8884740  23.4530902
  36.1178374  53.6563015  10.5493474  35.4735827  53.3106709   9.9315214
  35.7832575  53.4045982  11.4101243  85.3788948  53.1049442   2.2936913
  84.8400974  52.9837704   1.5118703  86.1621761  52.5801611   2.1284567
  40.4366016  76.7648697  72.6787186  40.7910156  76.0801268  73.2459497
  40.5122900  77.5669909  73.1955433  28.3053851  68.7008238  47.9831457
  29.1818976  68.7087965  47.5985765  27.7566075  69.1464186  47.3377609
   4.6012813  53.7551069  50.9561634   3.7362140  53.4362650  50.6988096
   4.8373297  53.2213402  51.7148495  79.1759109  42.3795509   9.3832260
  79.0037823  42.2581530   8.4494877  78.4466505  42.9164028   9.6933895
  54.8396969   7.8561985  68.3616304  54.8741961   7.4860400  69.2436886
  55.6893253   7.6396549  67.9776096  44.9101448   7.9972196   9.1308475
  45.1101732   7.1362495   8.7634909  45.7511759   8.3214515   9.4529802
  88.6146927  29.7232413  60.9462500  88.1654739  29.6564221  60.1036549
  88.5924053  28.8343668  61.3007116  86.5932655  59.7416592   6.2028629
  86.8576908  58.8603115   5.9391630  85.8327198  59.6046066   6.7676836
  71.9603491  23.3601737  59.3737268  71.1835957  23.2060695  59.9114418
  71.6367960  23.3364367  58.4731817  41.5521908  43.9937496  19.0241992
  40.8844900  43.7999916  18.3662724  41.2032795  44.7437334  19.5058811
  84.6026802  45.0944281  43.3832359  84.9570560  45.4423666  42.5649500
  84.3012238  44.2141581  43.1585598  72.5963163  51.9623184  49.6089888
  72.2413731  52.8368235  49.4493484  72.0085096  51.5805864  50.2609062
   6.4348167  19.4427884  37.9678893   7.0533812  19.5842719  38.6845422
   6.5067959  18.5089934  37.7702093  80.4156494   4.5263270  35.2795553
  80.5128002   3.6632615  34.8771739  80.6117058   4.3824059  36.2053418
  71.8354607   6.3194370  73.7563896  72.4229336   6.9840473  74.1161060
  71.0494375   6.3751560  74.2998028  60.6606102  74.1310072  56.6362524
  60.2908754  74.9220371  57.0284271  61.6070890  74.2719030  56.6597891
  35.5498505  84.6103573  74.1610479  35.2675390  84.3747520  75.0447989
  36.4634514  84.8765755  74.2644501  46.9374943   7.7786779  68.6531830
  46.2409163   8.2105350  69.1476583  47.5666952   8.4756386  68.4672070
  47.3724604  53.9140463   3.7510329  47.1017599  54.1549253   2.8650698
  47.2630835  54.7164297   4.2613769  65.6652212  17.5548518  57.2819853
  65.4152489  18.2363486  56.6580391  66.2228584  18.0043542  57.9169798
  35.7072496  72.5279665  43.9548683  35.4288888  73.4407568  43.8803244
  36.5660405  72.5730228  44.3752003  33.8490415  10.4880619  67.3062611
  34.1807842   9.5942581  67.2208643  33.8200426  10.8195519  66.4087629
  86.4640713   1.7434220   7.5510079  86.3352203   1.6695367   8.4966141
  86.0118580   2.5519419   7.3101145  60.6312418  34.9779677  74.3054676
  60.2419806  35.1665258  73.4515619  61.1515379  35.7553530  74.5084333
   8.5591274  11.5370536  72.0789099   7.7015477  11.1133385  72.0434999
   8.6425197  11.9799125  71.2344217  31.5035343  73.4525967   1.8936200
  32.3127890  73.7627697   1.4872527  31.7878699  73.0403280   2.7093518
  54.2550421   7.8207856  18.3649874  53.6257696   8.1806535  17.7398944
  53.7251949   7.2893727  18.9592052  46.7274570  66.0546303  71.6284609
  46.5596008  66.8420601  72.1461535  45.9633064  65.4991865  71.7826986
  72.6558542  64.6675205   9.9504834  72.7776575  65.2241802   9.1813761
  72.0351791  65.1481867  10.4981649  80.4411507  46.8242025  12.7206647
  80.8822727  46.6211796  13.5455453  81.1475754  47.0819139  12.1283937
  11.6537344  14.1436183  49.8426771  11.1335444  14.8719370  50.1820660
  12.3343956  14.5610058  49.3147373  64.2171097  33.9769149   4.2715120
  64.4286156  33.7009358   5.1633257  63.5222578  34.6262264   4.3801701
  35.8076811  77.9677248  12.5822544  36.1848259  78.5846043  11.9549930
  36.4492965  77.9247713  13.2912791  50.5959892  41.0157919   0.6696685
  50.5847120  41.7836332   1.2410933  51.1841536  41.2581301  -0.0455698
   8.3189195   7.3390514  70.7883739   8.2069343   6.8352205  69.9822426
   9.2515963   7.5533128  70.8092928  73.6896467  40.9979820  70.9095860
  74.1835642  40.4293108  71.5002537  73.1362915  41.5220451  71.4887142
  29.6862721  71.3267946   0.7005442  30.1710749  72.0578241   1.0836790
  28.7681198  71.5262079   0.8834715  77.7702904  21.2580442  69.6143961
  77.5198460  20.5062175  70.1513004  78.4122562  21.7287397  70.1459599
  70.7870054  79.8710537  38.4181309  69.9190426  79.4677687  38.4332657
  71.3949060  79.1319180  38.4372258  12.9283285  48.1106806  20.2921295
  12.1120095  48.5913134  20.1548433  13.1505525  47.7642679  19.4279277
   0.8639505  63.4127188  30.5417013   0.7952001  64.3434477  30.3289986
   0.5829599  62.9634619  29.7445488  86.6207314  55.3494167   3.0692112
  85.7495499  55.5944300   2.7573639  86.6921139  54.4156265   2.8712839
  55.7790279  75.2530336  13.3984363  55.4076195  76.1351967  13.3898175
  55.9071064  75.0380468  12.4745274  17.4144244  83.6740208  11.4640450
  17.3242438  84.0818501  12.3253119  17.2168005  82.7496719  11.6148579
  38.9267063   8.1454796  20.0155401  39.0594935   7.2148520  20.1959062
  37.9785109   8.2663292  20.0660634  37.9814148  65.5503511   5.9387255
  37.1418548  65.9833717   5.7842577  38.6200452  66.2632656   5.9503829
  90.0815201  44.1460848  14.7569323  89.7586823  45.0404310  14.8671985
  89.7091103  43.6642599  15.4954362  81.1279774  29.7247267   8.8719308
  81.0219479  30.5928183   9.2610413  82.0730686  29.6287680   8.7543344
  83.0961607   0.5555517  42.9339266  82.7165364   0.9380800  43.7249994
  83.8484667   1.1131365  42.7355194  74.4414282  23.9349103  59.8802567
  73.5380888  23.8668180  59.5711088  74.4037628  23.6525917  60.7941008
  82.7760601  37.0679593  68.6530018  82.3578262  37.7921033  68.1872511
  83.6742592  37.3645091  68.7997580   8.1300145  25.5083776  43.7490654
   7.5159889  25.9601378  43.1701708   8.2454818  24.6461463  43.3497429
  64.5239973  17.4953473  63.4502411  64.2599487  18.0040193  64.2168951
  63.9073753  16.7636800  63.4242821  85.5758667   2.1377566  72.0690107
  85.4034996   1.8307377  71.1789179  84.7592258   1.9747177  72.5409603
  78.5640001   8.5755193  65.0527382  78.9386034   7.7372128  65.3231907
  77.8789759   8.7510186  65.6978512  38.7867522   5.7527250  57.9393578
  39.2793512   6.3488650  58.5034418  39.3890238   5.5470109  57.2243881
  23.1594920  68.5052919   4.0577486  23.7559795  68.2994747   4.7775233
  22.2977734  68.5644531   4.4702661  20.0367808   1.9503148  67.9146862
  20.9500265   1.8485025  68.1827307  19.7719276   2.7935979  68.2820511
  58.1471157  24.2291117  50.7747030  58.3792305  24.0070772  49.8730087
  57.5640392  23.5227704  51.0527945  14.4430745  71.3426781  39.3360233
  15.3538513  71.5215063  39.1020632  14.2315674  70.5320740  38.8729668
   3.5060343   1.7715299  53.6840534   2.9474148   1.3454379  53.0339575
   4.3870372   1.4521018  53.4890366   6.5212333  20.5623579  53.1945848
   7.2356653  20.8599877  53.7578249   6.6377383  21.0525584  52.3807287
  52.2262192  50.5505276  13.9204299  52.0390224  50.1753902  14.7809315
  53.1223440  50.2742052  13.7284887  44.3843794  53.7204361   8.7623829
  44.5383930  53.8695669   9.6952665  43.4553957  53.9152622   8.6388516
  34.7689199  18.8177800  62.8873396  35.6155515  18.4330630  63.1141424
  34.8985410  19.7604156  62.9915953   5.8870405  24.5561433   7.0309293
   5.4910195  23.7012482   7.1999139   6.5784973  24.6339369   7.6882476
  60.5233765  68.8553286  54.3673229  60.0369263  69.5498848  53.9232683
  59.9347305  68.5559654  55.0602198  91.6723787  21.2479138  26.1413169
  91.4247816  22.0981002  26.5047884  90.8515654  20.7572937  26.0990214
  13.9646208  12.8606999  67.4135065  13.4005451  12.1130407  67.6111317
  14.7971249  12.6511645  67.8368998   5.8369470  46.8993044  10.8959758
   5.3528523  47.0307112  11.7112160   6.5865052  46.3594484  11.1468685
  58.3056450  30.7343245  59.8558378  58.2912159  31.1956358  59.0172577
  57.4058533  30.4316068  59.9781847   6.8178654  30.2401423  64.0901756
   6.5997833  30.5591154  64.9659204   6.5107894  29.3335700  64.0821171
  52.1595621  17.9629397  48.6699009  52.6435757  18.7196088  49.0006828
  51.5552187  18.3288598  48.0240679  52.3122454  80.2343369  71.4362955
  51.5386868  80.5659962  71.8921900  52.8311729  81.0157108  71.2454891
  88.8145733  52.3587751  53.4735394  88.8013554  53.3031416  53.6291838
  89.1097069  52.2694921  52.5673628   8.7626231  72.6031876  21.5838480
   8.5812646  73.3875227  22.1016860   8.2267463  71.9204617  21.9875240
  83.3199501  31.6358423  47.0271778  82.5456524  32.1453047  46.7881107
  83.1668091  30.7727075  46.6427565  39.0380669  69.6395016  47.1477890
  39.9619532  69.5422697  46.9171143  39.0192008  70.3801107  47.7539062
   4.9080172  61.4703465   8.2070065   3.9546567  61.5530348   8.1846672
   5.1412886  61.6341448   9.1207820  66.3810110  71.1012030  17.8525472
  66.1681557  70.1872015  17.6640701  65.5557775  71.5699148  17.7279234
  23.3220196  83.0373573   3.5908124  22.8712010  83.5339260   2.9078704
  22.6918936  82.3670197   3.8550591  46.0076380  62.8166723  58.7836123
  45.7464504  62.3253059  58.0047846  45.4538393  63.5973024  58.7711954
  80.0352383  50.7113600  63.1687546  79.4142389  50.1973200  62.6526546
  79.5695400  50.9025621  63.9828777  70.8999872  81.7451286  64.3424559
  70.8082628  81.0495758  63.6912823  70.0272131  82.1335602  64.4025612
  64.8609114  34.8319530  38.4713316  65.5218983  34.7226787  37.7876759
  64.5173693  35.7146740  38.3334327  14.1541982  85.1448154   6.5718573
  13.8151395  85.3642178   7.4396884  13.4827638  85.4584980   5.9660459
   1.9544025  50.0479317  10.8846819   1.6218507  50.0347614  11.7821598
   1.9970900  49.1258049  10.6315160  63.5283613  76.1017466  54.5489264
  63.6152029  76.9378471  55.0067759  63.3867502  75.4607677  55.2455807
  24.9761653  72.7275181  10.5660224  25.2616644  71.8600512  10.8527660
  25.4446149  72.8743601   9.7443020  88.5869122  14.1418064  62.3536873
  88.3280754  13.7405443  63.1832838  88.5588074  13.4238172  61.7212868
   8.2581991  40.5264139  13.8969886   8.3462644  40.3818703  12.9548717
   8.3705044  41.4707375  14.0059495  88.3495712  66.6451359   6.7537886
  87.5569630  66.9339561   6.3014823  88.6865997  65.9303713   6.2136418
  49.3885040  72.4645472  38.9017129  48.8595009  72.9742098  39.5154142
  49.7900915  71.7828369  39.4404459  58.4759665   1.5966155  21.9237566
  58.0468559   0.9729924  21.3379335  57.9047871   2.3646794  21.9158697
  71.2986374  24.4070268  71.4652395  70.4003572  24.4522786  71.1377048
  71.4832258  23.4699941  71.5294933   7.9446501  33.1753445  71.1263323
   8.3617765  33.7663126  71.7532253   7.0062006  33.2970977  71.2702799
   4.0206945  66.9943190  40.2328587   4.2830408  67.5391531  39.4908619
   3.8077220  66.1461210  39.8437190  58.4307957   4.7907230  27.8784251
  57.7307129   5.3954285  28.1242752  58.9913797   5.2989459  27.2921729
  67.6917601  16.4458013  72.9963350  67.9478502  17.3640120  73.0831623
  67.5435066  16.3261724  72.0582819  26.4445710  62.7555418   9.4632524
  26.6532278  62.6466751   8.5354364  25.7114816  62.1591806   9.6154600
  34.3778491  33.8064671  57.5185537  35.0410032  34.4937253  57.5828743
  33.6831284  34.1931200  56.9855499  55.0771284  83.1101036  64.7681999
  55.8458090  83.5606861  65.1179790  55.2778292  82.1797562  64.8701477
  85.1404858  14.9292839  69.8410225  85.1869678  15.4847181  69.0628386
  86.0064125  14.5255375  69.8991776  82.2388363   6.5393835  68.5520220
  81.2849998   6.5778112  68.6223125  82.4186134   5.6642962  68.2083130
  70.9758377  34.1870522  35.9313679  70.3301001  33.6951256  36.4385748
  70.4942751  34.9460888  35.6024408  18.8583386  40.9547472   7.9222882
  19.2693293  41.5209723   8.5755152  18.6681223  41.5367317   7.1865273
  20.4085708  78.0946684  69.6120882  20.5923104  79.0260839  69.4898891
  20.6156135  77.6967430  68.7664986  25.6862545  44.6386766   0.8267879
  25.3049397  43.7644815   0.7454711  26.5977764  44.5285034   0.5561898
  40.9543657  16.6701853  70.2665424  40.9975052  17.2051299  71.0591364
  41.7343092  16.9158936  69.7690010  13.5597837  61.6151142   3.3121327
  12.6729774  61.4257669   3.6186564  13.7505376  60.9174728   2.6851228
  22.9799104  15.9248912  55.5584574  23.6175609  16.5788639  55.8447313
  22.9462242  16.0236835  54.6069670  16.3135970  60.6772757   6.1939710
  15.3688097  60.6164789   6.0528624  16.6576171  59.8430252   5.8747470
  88.3656788  23.9149475  56.4210987  88.8947964  23.1874251  56.7481709
  87.4981880  23.5357404  56.2800455  20.9830523  53.9572096   9.7541922
  20.3339648  53.2874107   9.9693298  20.5833030  54.4586229   9.0435445
  15.2798176  22.3546219  60.3388023  16.1279428  22.2074413  59.9201727
  15.1021397  21.5418863  60.8122158  11.2961829  85.7814312  40.8563900
  11.6809237  86.2306786  40.1038027  12.0291209  85.6515598  41.4581919
  59.3741989  10.3598011  73.6818886  58.4545231  10.3828204  73.9462757
  59.5623875  11.2523127  73.3916473  63.7695312  12.4698329  55.2157450
  63.9612055  11.5323853  55.1896191  63.4432554  12.6721179  54.3389034
  80.3047276  85.8290005  26.3395429  80.5951405  85.0321674  25.8957529
  80.8433342  85.8729935  27.1296096  70.2347040  25.0525475  55.0857115
  71.0374832  24.5633841  54.9054384  70.5171776  25.9656405  55.1376963
  47.1276283  42.0729733  70.8376455  48.0300951  42.0516062  70.5193281
  47.2075129  42.2686625  71.7712212  14.0771365  82.8028965  53.4615088
  13.6532772  83.5287285  53.0035210  14.0379059  82.0736694  52.8427076
  75.6109571  34.6843815  47.4201202  75.1973009  34.0953851  46.7890882
  76.0500622  34.1015577  48.0395842  60.9949780  72.3297071  58.6498356
  60.9643316  72.8429079  57.8424215  61.3595104  72.9291773  59.3009758
   8.2733285  36.8753529  11.5053916   7.5855434  36.2099695  11.5265167
   9.0057176  36.4487410  11.0606003  87.6155949   1.8445419  66.4549112
  87.8252792   2.3739782  65.6855249  88.3942795   1.3055883  66.5942383
  28.5256243  45.4049301   7.6289719  28.6092424  44.6793890   7.0102417
  28.0830622  46.0933113   7.1324790  84.3935013  11.2922263  65.6961489
  84.8260212  11.7950737  66.3862944  85.1119995  10.9250033  65.1812315
   2.3948488  34.1042399  26.1348367   2.6437077  34.3018913  27.0377398
   3.0276099  33.4445071  25.8509398  15.9385550  66.6696644  62.1361446
  16.3631344  67.4810886  62.4146318  16.6615701  66.0613680  61.9829798
  87.1345043  26.5128350  57.7778053  86.2528515  26.8234015  57.9839039
  86.9944572  25.7421303  57.2276878  86.9991207  18.6155403   2.2103058
  86.7151165  19.4799399   1.9130059  87.8770351  18.7601578   2.5632820
  26.7194462  82.3341465  30.4897523  26.7480993  83.2673264  30.2786112
  26.6992998  82.3055172  31.4463139  85.6395912  62.2647953   1.4942718
  85.8895302  61.3413525   1.4622778  85.9881306  62.6354837   0.6835046
  28.7078929  76.1667585  61.7309284  29.2639184  76.6971254  62.3017025
  29.0623832  75.2808857  61.8070889   4.9064115   7.3659259  53.7241888
   5.7909346   7.4993926  53.3835459   4.8728827   7.8985220  54.5188236
  34.8716307  47.3635149  13.5895658  35.6987572  47.8244209  13.4493411
  34.1994572  48.0318642  13.4564269  57.2047424  13.8886213  71.4572811
  56.3549471  14.3278062  71.4918518  57.5107050  14.0291643  70.5612516
  38.8465428  78.0467653  64.0300941  39.3662953  77.3538971  64.4375563
  38.6153769  78.6295843  64.7533607  34.2021084  67.0680332  18.9583957
  33.9896679  67.2744560  19.8686099  33.4576130  66.5515184  18.6498988
  56.7278910   4.3548787   4.7934440  55.9310818   4.8393241   5.0093985
  56.6978312   4.2564130   3.8417965  48.1922197   2.8018680  22.4153352
  48.9491177   3.3055344  22.1159101  48.2689810   2.7985382  23.3694482
  50.5597305  36.0582471   8.4799367  50.3634453  36.5212202   7.6654691
  49.7471571  35.6015706   8.6976618  68.9618444  65.2064705   3.9461362
  69.0838766  64.7570515   3.1098592  69.8452902  65.2877998   4.3054938
  70.4695988  32.2754955  49.8475456  70.4391623  31.8403006  50.6995487
  69.5792437  32.5998640  49.7123384  87.5888062  42.3568201   1.5093772
  88.0066681  42.1382999   0.6763846  86.9356346  41.6689205   1.6374080
   1.2971368  24.5459747  60.8609056   0.7071348  23.8705969  61.1955547
   0.8988441  25.3709221  61.1384964   9.0106249  31.2252641  44.0095472
   8.4579295  31.9029665  43.6203432   9.8176968  31.2499499  43.4954882
  37.7735639  20.8965087  62.1486330  36.9248366  21.1189175  62.5312948
  38.3954406  21.4714718  62.5946379  37.6313496  61.6354609  52.6359177
  38.5582614  61.8217087  52.7855206  37.1932554  62.4755859  52.7719069
  43.2100344  55.8910608   0.1916578  42.8153849  56.7493439   0.0372668
  43.5523987  55.9419060   1.0840897  83.6339951   5.7931530  51.5355921
  83.4834480   5.9181267  50.5986023  82.7603912   5.8278251  51.9252634
   9.5658624   7.6811743   9.7642845   9.0848428   7.9484850   8.9810884
   9.3305099   6.7616040   9.8877007  79.9405289  49.2506886   9.1830665
  79.7792721  50.1836586   9.0423733  80.1504326  48.9101028   8.3134848
  84.2301941  58.8180447  11.0644543  84.3218708  57.9624033  11.4836240
  85.1189899  59.0488529  10.7942784  41.9173765  83.3804893  69.9306726
  41.8573284  84.2180252  70.3901911  42.5468588  82.8715897  70.4415560
  29.1692901  61.7617083  18.7414217  29.9067020  61.1595821  18.8409078
  29.4713187  62.4066734  18.1018662  47.5165606  79.8129225  69.7945070
  46.6653013  80.1289463  69.4916439  47.4318457  78.8594818  69.7947359
  68.4445286  26.5818977  66.0929632  68.3664465  25.6547976  66.3179588
  69.2735100  26.8547773  66.4861012  11.0288441  21.1497402  14.7015452
  11.3558173  22.0462322  14.7765267  10.1088357  21.2080050  14.9592698
  88.8428020  28.3860826  28.8561654  89.6679211  28.3965588  28.3710718
  88.1911373  28.1041336  28.2142425  23.0301619  38.7191534   9.9095452
  22.1009398  38.6664176   9.6859413  23.0691457  39.3566680  10.6224883
  45.5875254   4.5775437  66.4302301  45.8047152   4.3067759  67.3222733
  46.0387325   5.4141390  66.3173008  52.8779125  59.1889286  10.3887045
  52.6686239  58.9351702   9.4897974  52.3247290  58.6268759  10.9312129
   6.2204039   3.9857331  69.2186356   5.5434418   3.9508981  68.5428095
   5.8937109   4.6245816  69.8521757  44.5015669  18.5517204  71.0384274
  43.9882708  18.9852726  71.7201805  44.7164011  19.2499208  70.4198837
   2.8821778  40.6318426  13.2062387   2.4956068  39.7686219  13.3533490
   2.2345959  41.0972071  12.6767993   4.5551416  59.6549273  12.6783311
   3.9095709  59.8749733  13.3499336   4.0853208  59.0807772  12.0734727
  25.2438998  65.0427008  67.6272202  24.7433877  64.2901897  67.9425812
  24.5822549  65.7077742  67.4371290  74.0237522   3.4791791   8.7062687
  74.3922806   4.0454876   8.0282474  74.7810268   3.1931373   9.2170960
  14.9859512   4.5231786  31.4367294  14.1961718   4.9583152  31.1155796
  15.0901425   4.8460162  32.3318005  29.2714071  73.1711388  18.3303046
  29.4495273  72.3427773  18.7756324  29.5084739  73.0080891  17.4173725
   8.3921862  54.8068762  48.8091898   8.2847071  54.2047215  49.5454597
   7.7333581  55.4854393  48.9565945   0.9111438  75.6231546  59.3301868
   1.3317163  75.5999756  60.1897287   0.8856785  74.7078609  59.0512371
  75.7382631  20.0508475  72.4366474  76.0472441  19.8882270  73.3278894
  76.4368057  19.7137487  71.8757248  70.5846739  14.3756926  62.9095268
  69.8711443  14.9786532  63.1182051  71.2016249  14.4745958  63.6346626
  18.1950939  85.2188206  41.4798737  17.6840079  86.0227108  41.3861561
  17.5950575  84.6008205  41.8973160   1.8604873  29.4804454  44.5862532
   2.1183203  29.1369796  43.7308073   1.1888526  28.8727403  44.8958206
  27.5686455  13.8950002  58.2403231  27.0189834  13.1169319  58.1469822
  28.4358215  13.6118197  57.9504108  10.3007710  85.4566956  68.8460207
  10.3659904  84.5389080  69.1099405  10.2562642  85.4284954  67.8902721
   5.6252831   2.4317409  19.3211496   6.2180513   2.9125687  19.8987842
   6.1697102   2.1798484  18.5752392  17.4216545   2.2525644  14.4897485
  17.5925469   2.1889237  15.4294181  18.2223606   2.6301712  14.1257226
  62.2963476  59.8701525  66.2050772  62.9074097  59.4946289  66.8389654
  61.9730902  59.1178417  65.7093334  54.1167068  79.1617584  48.5217190
  54.1522312  79.9401903  47.9658318  54.7165394  79.3544722  49.2423439
  29.5854378  42.6625204  59.6469212  28.9747381  42.8825140  58.9434433
  29.0986156  42.0570803  60.2060986   2.8962749  85.2735806   6.9474262
   1.9453511  85.2015972   7.0298541   3.1799170  84.4006062   6.6759408
  51.3030481   5.1295459  16.9844854  50.4873371   4.6359053  17.0691645
  51.4803600   5.4525203  17.8679335   5.8602220  47.4204683  59.2309904
   6.4874786  46.8148994  59.6260405   6.0997927  47.4428225  58.3045244
  52.4686480  67.7302408   2.7547535  52.1943378  66.8133926   2.7353197
  53.3310890  67.7134705   3.1696594  13.9105952  22.3835492  47.6616716
  14.7218263  21.8756104  47.6733017  13.9559567  22.9253912  48.4494400
  16.1118102  44.9740314  69.5823097  15.8559382  45.4619360  70.3650713
  16.4349043  44.1373062  69.9165773  14.5990217  17.1574986  58.7741423
  15.5072355  17.3572302  58.5472345  14.2946339  17.9316902  59.2476463
  50.1942205   5.0131315  60.2957582  50.4628849   5.9080553  60.5035162
  49.5619011   4.7883260  60.9783077  48.9687777   3.0866590   2.2679822
  48.6761808   3.9855802   2.1177790  48.5844851   2.5862569   1.5481550
  72.4507141   7.4408150   3.8318825  72.6386452   7.7991980   2.9644290
  73.0186176   6.6734982   3.9021957  91.2712669  44.6256208  71.5200806
  91.1306953  45.5533934  71.7090416  90.3973579  44.2850113  71.3290453
  90.9199905  24.8205590  25.3261065  91.4247799  25.5754900  25.6286001
  90.5442810  24.4484043  26.1239624  46.0568762  66.3890219  63.1210470
  46.9988155  66.2408495  63.0372381  45.9745598  67.3318148  63.2645750
  33.7051702   7.9465389   3.6611405  33.6825228   8.8322341   3.2988378
  33.4610081   8.0573249   4.5800215  85.2053928  32.5344729  56.9039631
  84.8922443  33.4388304  56.9213724  84.9760532  32.1849799  57.7650642
  57.9719782  16.4740860  61.1941099  58.2054949  15.9186685  61.9378901
  57.6101112  15.8684361  60.5472136  39.4004583  72.8752041  10.3251803
  38.6123300  72.7092695   9.8079300  40.1227283  72.7348232   9.7129309
  50.3754282  79.5779896  14.4096661  49.6623230  80.2092838  14.3138039
  50.9891462  79.9994421  15.0112963  64.0322351  81.9839191  60.3553772
  64.9227619  82.3300838  60.2973843  63.9986086  81.2966728  59.6899557
  22.6196933  63.8112307  66.4031553  21.9670630  63.6976051  65.7122183
  23.0788851  62.9721403  66.4392185  20.4289913  39.9208069  59.0581465
  20.5874419  39.1548586  58.5063791  19.8235703  39.6099830  59.7312641
  69.2165089  52.3472261  67.6822090  69.6389055  51.4888525  67.7140379
  69.6423960  52.8496408  68.3767796  84.2833424  30.7600403  66.1505651
  83.7856483  30.4731035  65.3849316  85.0086880  31.2685680  65.7879162
  74.6344471  51.3362360  30.7238317  75.1573181  51.8432856  31.3449073
  74.7751904  50.4248333  30.9802866   8.8754201  28.3138967  32.5395370
   8.9631611  27.3740625  32.6984096   8.2746720  28.6168432  33.2203865
  31.4780951  80.5740547  21.6095519  32.1515703  80.2061081  21.0374689
  30.6521821  80.3602886  21.1754942  19.5535946  55.3097296   7.8332025
  19.5088279  56.2429619   8.0412865  19.7415578  55.2822638   6.8950409
  62.1353912  22.0364952  38.8963604  61.7269945  22.5196910  39.6146679
  62.5321341  21.2732363  39.3161964  58.8419771   5.5339456   5.6401592
  58.4628153   6.4074719   5.7372075  58.0861187   4.9528694   5.5549455
  89.5364285  43.7070131  17.4899459  89.9586010  44.5653200  17.4536920
  89.5501804  43.4723330  18.4178293  22.8648138  60.0320005  10.9548879
  22.4854398  59.1702080  10.7827866  23.3806849  60.2271652  10.1725709
  73.8255644   5.0488353   4.3236291  74.5812559   5.3225207   3.8037646
  73.6126375   4.1753054   3.9952400  83.1706619  18.8901770  66.7442274
  83.1435299  19.8469234  66.7327309  82.2640038  18.6230254  66.5931129
  69.8392534   4.6587592  71.6796017  70.7273054   4.9755463  71.5145636
  69.7972536   3.8166893  71.2264061  67.3681498   1.7380764   6.3287306
  68.2202101   1.3111956   6.2392801  66.7942476   1.2540478   5.7349414
  84.4914150  68.6808205  39.1183090  85.2915096  68.2204676  39.3716025
  84.0237236  68.0591440  38.5606194  12.2589564  66.6705704  29.7007465
  12.7619588  66.9022608  28.9200163  11.3841975  67.0221424  29.5351458
  62.5915909  12.3131001  44.8914289  61.9789648  13.0455685  44.8250389
  63.3914995  12.6311982  44.4728708  77.4747658  44.3249559  45.4701757
  76.7664003  44.9356556  45.2664757  77.5545025  44.3599939  46.4234066
   3.8104582  77.8694201  53.3519030   4.3048313  77.4739790  52.6339483
   3.1025055  78.3477020  52.9203033  47.6532602  46.6362810  15.4682779
  48.2124233  46.3564730  14.7435188  47.6106215  45.8742142  16.0459185
  84.6871758  27.6674247  57.7012730  85.1380539  27.9862475  58.4831238
  83.8199615  27.4091649  58.0134583  69.8283243  82.4409103  26.3006973
  69.1236067  82.0332718  26.8041205  69.9051714  81.8999100  25.5147958
   4.6746057   4.5540267   7.2084433   3.7528324   4.4192114   6.9884646
   4.7360432   4.3223879   8.1351584  77.3853350  33.2715654  65.1928282
  77.9708242  33.2918453  65.9498072  77.9505205  33.0291867  64.4593096
  83.5068989  15.0748098  66.1855650  84.2387867  14.6503747  65.7378817
  82.9500198  15.4005325  65.4784441  86.8308735  76.4105129   5.4872137
  86.2508392  77.1497393   5.6697971  86.2496948  75.6503296   5.4630166
  84.6825886  17.3883796  47.0875692  85.3517437  17.9788005  47.4337912
  84.7397614  17.4922705  46.1377430   2.9568398  76.0610294  17.9341841
   3.0561855  76.9858122  17.7080333   2.8098637  75.6238031  17.0954561
   0.8541423  35.9775901   5.3591084   0.6501850  35.8370876   4.4345045
   0.5114796  35.2005553   5.8007306  89.8036385  60.1849270  74.3854427
  90.5753613  60.7510233  74.3706989  89.2633820  60.5348825  75.0938797
  66.3502455  49.4096947  10.5564773  66.3809109  48.5013723  10.2560759
  65.9420633  49.3624020  11.4209902   4.5990127  60.6729078  51.2884665
   4.6920374  60.9369087  52.2038221   3.8494790  60.0775719  51.2858772
  87.6295567  48.9018583  72.6696682  88.5023022  48.9297915  72.2775364
  87.1100807  49.5078421  72.1413183  88.1280899  54.9099779  54.2243862
  88.1133747  55.3927231  53.3979654  87.3097134  54.4134998  54.2263508
  63.1013870  25.4134393  57.7130747  62.8633595  26.2468219  57.3068142
  63.7938452  25.6389403  58.3342695  15.4903722  32.1806693  36.5338159
  15.6812263  31.4226723  37.0863080  14.6260870  32.4750042  36.8212342
  76.1090708  32.8826976  73.2699156  75.7451391  33.4493089  73.9501619
  76.4182472  33.4869480  72.5949907  59.7264433  28.4662676  66.6076088
  59.2507076  28.0215716  67.3091459  59.2405748  28.2472658  65.8125019
  46.3289213  83.2891655  24.1161895  47.1088076  83.1287956  24.6474957
  45.6551552  83.5381794  24.7488523  41.4575672  72.2836018   8.5414916
  41.9291878  73.0162907   8.1452894  41.3106775  71.6741180   7.8181779
  79.0507078  34.9568248   0.9788880  79.4366074  35.8057213   1.1949570
  79.7748184  34.4517088   0.6090799  36.9668531  74.8473120  21.6963577
  37.7395535  74.3452740  21.4372826  36.2855005  74.5717478  21.0831261
  74.1222191  59.2568588  74.1267967  75.0459099  59.5073986  74.1109753
  73.6484909  60.0886011  74.1310787  72.9491711  81.6407108  46.8905449
  73.1158543  82.1283722  46.0839272  72.9869318  80.7213593  46.6267538
  19.2410290  84.3381596  18.6842418  20.0432706  84.1029835  19.1504323
  19.5351470  84.5702362  17.8034079   9.1524690  31.8218160  59.5024157
   9.3117869  31.4507461  60.3702593   9.7955698  32.5261450  59.4213343
  88.2331276  71.1469507  24.0278983  88.6892128  71.6176081  24.7255373
  88.8656807  70.4953766  23.7253189  28.3643413  54.2141008  29.4323993
  28.5829782  54.1194153  28.5053277  28.2949448  53.3156109  29.7550964
   8.4686965  71.5985918  14.9586546   8.8967395  70.7760715  14.7210073
   9.1897631  72.2131395  15.0951171  24.4825864  68.5541677  15.1825476
  23.7498403  68.0916500  15.5892289  24.1331172  69.4207048  14.9746609
  41.2147427  15.7641494  13.8967216  41.1868763  16.2327707  14.7308981
  42.0747852  15.3440905  13.8865960  15.6765366   6.8793213   5.0209814
  14.8677945   6.5625834   4.6186826  15.4098094   7.1814185   5.8892131
  22.1705413  20.7058835  51.4777756  22.8857255  21.1864209  51.8946981
  21.5595889  20.5195332  52.1906853  24.5964289  79.1302872  15.3075743
  24.1356754  78.9227533  16.1205137  25.0968647  78.3392954  15.1072645
  40.6721067  26.0749102   6.3455033  40.3755426  26.9730520   6.4925456
  39.8966813  25.6166387   6.0215646   8.7539846  52.1984339   2.6138961
   9.5149153  51.6892052   2.8930116   8.7056279  52.9200649   3.2409060
  82.5052738  60.4299259  48.3699512  81.6292572  60.4276228  48.7557173
  82.4934673  61.1618567  47.7532101  54.5501947   4.0293273   0.1334915
  54.5047283   4.6427515   0.8668917  55.4730892   4.0276131  -0.1204630
  13.1139863  85.5957031   8.8531280  12.1805072  85.7874298   8.9430499
  13.4920120  85.8449173   9.6964651  83.7084293   9.2258340  30.9337902
  82.8955269   9.7261125  31.0055184  84.0807343   9.4930041  30.0934076
  18.9262187  18.2621813  71.6503382  19.3977320  19.0906346  71.5633154
  18.8137209  17.9549849  70.7507753  84.7387695  16.8916798  68.0343294
  84.1993332  17.6623809  67.8575373  84.4034100  16.2225902  67.4376059
  19.1083980  66.9231844   3.2267934  18.7860620  66.4029074   2.4908292
  19.1918206  66.2960482   3.9451081  10.8620250  83.2049561  40.0763750
  10.8162594  83.1542587  39.1216159  10.5475092  84.0846348  40.2848673
  68.7035036  54.9655008  73.7949324  68.0898190  55.4495287  74.3475056
  69.5681715  55.2235508  74.1142941  61.1834002  20.6803274  69.6234512
  61.5921021  20.8410978  68.7729502  61.6074324  19.8852980  69.9464893
  82.3695278  47.2032690  74.2524862  81.9583893  46.3920212  74.5509386
  83.2087231  47.2296762  74.7121382   4.8576400  18.9031518  54.7984552
   4.2369848  19.5834160  55.0597191   5.5768347  19.3809748  54.3853283
  28.4457684  64.3996763  30.3842545  28.4052157  65.3128338  30.6683874
  28.7631726  63.9238882  31.1517906   6.7434180  21.8760777  73.4482384
   6.6751271  22.5075531  72.7321339   7.2335386  21.1432552  73.0754328
  46.9595146  10.7867551  21.0301423  46.6185427  10.8119667  20.1360869
  46.9085503   9.8641437  21.2799907   6.0635179  21.3118386  70.3941679
   6.8942714  21.7763186  70.4958391   5.4007792  22.0024776  70.3993082
   1.6062842  11.0006881  67.2640419   1.6765387  11.8924236  67.6047802
   2.2086063  10.4895854  67.8046083  55.8921862   6.3308215  21.7365694
  55.0423765   6.2314099  22.1657300  56.2191820   7.1757007  22.0455742
  66.5376425  66.0311127   5.0369459  67.1606684  65.5000544   4.5409095
  67.0275450  66.8196630   5.2702278  42.1837664  19.0312135  14.8577511
  42.9825878  19.5366907  14.7073984  42.1088839  18.4670663  14.0881002
  88.5933971  60.4766417  41.2976456  87.8035736  60.4766178  41.8383932
  88.9857578  59.6163702  41.4467239  85.8145046  34.3985271  61.4398384
  85.8415508  34.5808291  62.3791265  86.2454224  33.5487294  61.3482809
  81.9128227  25.3886127  62.2397566  82.3697281  25.1127815  61.4451551
  81.3853550  24.6295667  62.4884701  15.9026396  84.3992233  17.5731254
  15.3692102  84.3380356  18.3655536  16.4222395  85.1938343  17.6949358
  71.2234545  37.4598265  68.5576773  71.4883041  37.4974942  69.4767332
  71.0660219  36.5303659  68.3916855  28.5543942  74.2889452   9.1311407
  29.5011330  74.2915964   8.9900416  28.4053731  73.5676718   9.7425228
  40.9562063   5.6381917  11.4259350  40.9501314   6.3629484  12.0511723
  40.0399399   5.5363238  11.1684370  85.4763889  36.9422936  68.6847591
  86.2955379  37.3400283  68.9797831  85.3049850  36.2474203  69.3203688
  74.1260433  44.4146347  45.2565050  73.2944727  44.8848200  45.3168821
  74.2187071  43.9819336  46.1052799  68.3376312  40.6460762  66.9297028
  68.8210201  41.1681700  66.2894011  68.2512903  41.2202120  67.6907158
  78.9450073  61.0555601   0.1751433  78.1841230  61.5935898  -0.0435088
  78.5798979  60.3007364   0.6368412  73.5255194  85.7796001  61.3207054
  74.4516516  85.5942154  61.1653280  73.2554770  86.3008785  60.5646801
  36.5180540  23.9663815  37.1566415  36.3097763  24.8186088  36.7738128
  36.4982891  24.1170692  38.1017017  81.2308216  53.4555054  47.2512388
  81.8938065  52.8297806  47.5430489  80.4092503  53.1176662  47.6077604
  68.3752251  13.9723372  29.1743755  68.3652830  13.1702697  28.6520553
  67.8281069  13.7706292  29.9334598  62.0159912  68.4858894  24.8659444
  62.7862406  68.5387611  24.3001270  62.0226860  67.5875282  25.1962972
  19.1776407  52.6427031   1.0795073  19.8856544  53.0542088   1.5751024
  18.8552248  53.3351231   0.5025877  21.1971617  29.9836802  60.6256914
  21.7283463  29.8573852  59.8394823  20.7421613  29.1498613  60.7438231
  77.7694035  29.1971922  56.9295025  78.5396385  28.8359571  57.3682213
  77.8729630  30.1456857  57.0060968  85.1746273   0.7252005  69.7064209
  85.3235531   1.4426152  69.0904903  85.2129841  -0.0649729  69.1675425
  39.6496344  50.1136732   1.2229425  39.2139506  50.5863142   1.9321832
  39.2595768  50.4680920   0.4238971  80.1033306  20.1546526  53.1982136
  80.3483486  20.3304958  52.2897625  79.5968485  19.3434775  53.1569624
  16.6035604  49.9925804  50.5203295  17.3162055  50.4591990  50.0837135
  16.9651854  49.1269779  50.7105732  86.3314533  43.8190794  68.2175684
  85.4448509  43.4750748  68.3262873  86.3437080  44.1728687  67.3282337
  38.6707759  57.2580910  14.2402744  38.1910777  58.0684328  14.4119191
  39.5607662  57.5452614  14.0361154  54.3979549  50.0108385  74.5549297
  54.3176937  49.0909958  74.3025780  55.2292728  50.0580120  75.0270700
  37.0737410  72.8156662  59.0140104  37.7999139  72.3989534  58.5500526
  37.3716211  73.7119722  59.1693640  89.8129463  58.3152246  65.7857990
  89.5747185  59.0659428  66.3297701  90.7630062  58.2442331  65.8783817
  67.2644806  25.1286006  63.9616299  66.6633844  25.5270529  64.5910358
  68.0523491  24.9377704  64.4706202  36.6117883  10.9259057  54.9021721
  37.3546052  11.4112103  54.5430994  36.4534521  10.2266288  54.2680025
  67.3052883   3.2527462  73.1787395  67.1546984   2.3608500  72.8655720
  68.1571388   3.2133031  73.6135197   2.8397274  16.8245447  65.9240818
   2.7341422  16.6139722  64.9963188   2.2281115  16.2410831  66.3732243
  67.1241999  45.5223370  46.0402250  66.7909479  44.9184608  46.7039347
  68.0013037  45.1963425  45.8385992  10.1382279  54.7474909  16.3450587
  11.0117841  55.1356840  16.2956762  10.2453852  53.8692904  15.9796703
  33.7293720  80.0977516  19.8393238  33.7539983  80.5596924  19.0013301
  34.3272734  79.3592978  19.7234070  22.3224665  83.5865359   0.7433139
  22.0702101  82.6920656   0.5141316  23.0410314  83.7933163   0.1456986
  20.1857471  65.8964348  39.0570807  20.9117937  66.3603210  39.4740868
  20.5318689  65.6246138  38.2070541   2.6445815  82.7924061  29.7248554
   2.3674884  82.1669865  29.0552974   2.0626420  83.5431671  29.6068239
  79.8682404  43.8400841  63.6139536  79.8449421  43.7508440  64.5666981
  80.5106831  44.5313454  63.4537745  21.8897796  80.8076382   3.7852556
  22.2179317  80.5101299   2.9367062  21.2148309  80.1700497   4.0179655
  43.8777733  69.6554375  14.2279446  43.1743383  69.6880436  13.5796010
  44.1878271  70.5588579  14.2905879   9.4347507  40.6169367  55.8558941
   9.4294631  40.9166241  56.7649555   9.4730830  41.4214706  55.3386974
  40.5615091  34.1327524   3.0800205  41.1968231  34.3158484   2.3878622
  40.4163027  33.1880569   3.0280653  16.2077093   9.3449390  49.8231220
  15.7629168   8.9044976  50.5472803  15.5987728   9.2720765  49.0881968
  30.6908131  68.9362001  13.3230507  30.9448051  69.0663910  14.2367089
  29.9041796  69.4706964  13.2146442  70.4785252  16.2183893  18.9611387
  70.6399584  16.5517044  19.8437881  71.1818886  15.5866730  18.8113105
  70.9910536  34.8291850  67.8831911  70.2528620  34.4292450  68.3429193
  71.7275858  34.2431641  68.0573559  10.4536998  50.2976036  53.1465912
  10.6242061  50.4825926  52.2230482  11.2593532  49.8877144  53.4614706
  89.0672970  19.1574371  59.8298693  88.7603474  19.4140005  58.9602757
  88.3466434  19.3883681  60.4160166  53.6291599   9.0363348  23.7990952
  53.3411598   8.1787145  23.4864068  54.5396423   9.1028380  23.5112834
  16.3103604  39.2235970  59.6119833  17.1205401  39.1676497  60.1186514
  15.6813776  39.6275115  60.2098703  76.9535971  76.6073275  24.2742777
  76.0901546  76.8981838  24.5677090  76.9694042  76.8097305  23.3388543
  25.0637364  17.9485047  22.2736144  25.1029515  18.8037002  21.8454385
  24.7803974  17.3481560  21.5840268  83.5025406  16.0599911  55.9675074
  84.4180393  15.7805336  55.9648514  83.0083942  15.2598679  56.1459780
   3.9836124  34.6395826  20.1864123   3.8326097  34.1094279  20.9689522
   3.7146786  35.5225968  20.4397726  76.1503553   6.8877602  68.2029009
  75.5571938   6.3425797  67.6860142  76.3116693   6.3792628  68.9976549
  75.1106501  56.6623116  55.4311085  75.8521843  56.1923361  55.0496864
  74.4314051  56.6249275  54.7577143  28.7328744  63.8638496  10.4406726
  29.5836902  63.6545038  10.0552940  28.1461740  63.1837893  10.1097155
  43.3040571  15.4834270  61.6911507  43.6506414  15.0329673  62.4613428
  42.3594093  15.5215490  61.8408680  32.7455354   1.6089042  18.7311864
  32.0188618   0.9949448  18.6252213  32.7936530   1.7625120  19.6747553
  51.2168550  13.3023381   7.4770242  51.1554289  14.2346025   7.6852131
  52.1530581  13.1456339   7.3537469  77.4725437  56.1923838   1.4025761
  77.6112986  55.6002712   0.6633992  76.6135597  55.9481382   1.7471397
  89.3113518  71.9701529  26.5111303  89.8664474  72.6904583  26.8098950
  89.5324898  71.2410927  27.0906115  13.8648570  33.8854933  57.9340124
  13.2981861  34.6382189  57.7651262  14.6801519  34.0921688  57.4770546
  19.9667990  82.2624779  12.6214445  19.3620789  81.7105389  12.1255505
  20.2261448  82.9474163  12.0051479  73.7015057  31.9646788  49.6642399
  74.1970348  32.1833444  50.4534626  72.9230881  31.5114403  49.9880791
  14.6419358  40.5539751  57.5898218  15.3853619  40.1269579  58.0155039
  15.0187683  40.9787369  56.8192339  29.2262888  21.3861299  62.3234415
  29.4560623  21.4720917  63.2486677  29.9276567  20.8516169  61.9511366
  52.8790092   2.2957149  15.7055867  53.4018707   1.5796646  15.3448665
  52.2458696   2.5002307  15.0174451  87.9246998  54.4527531  50.2696085
  88.6683083  53.9044762  50.5199289  87.3899460  54.5072365  51.0616302
  87.3300552  79.7522593  37.1930003  86.7870998  80.4989052  37.4458933
  87.3804855  79.2142677  37.9830980  17.0071518  41.6722965  66.9863033
  17.2455347  41.0873842  66.2670803  16.2590718  42.1682930  66.6537428
  70.8531189  23.0618119  47.0740747  70.8330727  24.0187550  47.0835972
  70.1546764  22.8016305  47.6746750   1.0234757  28.8821173  60.9369993
   1.3057461  29.6882844  60.5049706   1.1471811  29.0546131  61.8703651
  17.7315366  64.8886108   9.1363567  16.9235861  64.4575739   8.8576919
  17.6005054  65.8102226   8.9134347  70.3955698  72.4774361  37.4195242
  70.6108952  72.4338722  36.4878750  69.5027733  72.1367693  37.4751854
  11.1362743  23.1081986  62.8207207  11.7494738  22.7945209  62.1560240
  10.3886986  23.4364176  62.3210859  74.4708204  62.9237080  62.0242643
  73.7896156  63.0729198  62.6799488  75.1733875  62.4852991  62.5042963
  35.4706311  72.2853708   9.9419659  35.3696227  71.3393497  10.0471926
  35.9635258  72.3844814   9.1274321  80.9879112  65.9297371  54.4089890
  80.8589363  66.1494160  53.4863091  81.9214630  65.7303810  54.4795036
  64.4162226  54.8538923  73.1740570  65.0750494  54.1646147  73.0899477
  63.9754105  54.8688316  72.3245287  54.7694349  25.8927965  69.9514818
  54.3146563  26.7309880  69.8687553  55.6886292  26.1300945  70.0739574
  13.5703613  36.6032406  74.6054141  13.8011076  37.4498506  74.9878415
  12.9406788  36.8153139  73.9163876  58.8393784  13.8818109  47.7305984
  58.7914658  12.9263520  47.6984119  58.4846735  14.1679060  46.8888378
  22.1745372  76.9457722  50.9138918  21.7461467  76.9340372  50.0579834
  22.9912758  76.4650202  50.7795525  90.6867695  75.9984350  74.4238329
  91.6380692  75.9964180  74.3177271  90.3971577  76.7915392  73.9728928
  78.5665035  70.4410744  65.7991743  79.2676401  71.0840225  65.9052753
  78.5149145  70.0007629  66.6475248  52.5067234  63.2380199  64.9108553
  52.3477030  64.1485977  65.1594400  52.1032810  62.7247000  65.6108332
  26.5112519  38.4134173  70.8573723  26.6523027  39.0848184  71.5248728
  27.3558807  38.3355188  70.4137897  67.1380949  80.2506733  44.4957495
  66.3123512  79.7672987  44.5227146  67.3969173  80.2314281  43.5744095
  21.3263679  73.7168741  31.9978499  20.5261302  74.0571356  31.5977597
  21.4950514  72.8959846  31.5353370  39.0233469   2.0246516  15.7493722
  39.2359161   1.2065576  15.3001857  39.5625567   2.0108201  16.5401268
  42.9941034   6.4177442   4.0012008  43.3477497   6.4827734   4.8882970
  42.5586557   5.5656207   3.9788195  56.3753700   6.0728860  12.6177680
  56.1544752   5.1416785  12.6348078  57.2797585   6.0988343  12.3052943
  59.3904972   3.0259427  11.2804556  59.2916250   2.7541345  10.3679991
  60.3352880   3.1212214  11.4009559  91.2762260  72.0776844  44.8915577
  91.8404961  71.3063002  44.8385763  90.8718300  72.0196199  45.7571936
  15.0336349  79.4373560  13.1445873  15.4815602  78.6331940  13.4071052
  14.5562196  79.1972733  12.3504400  12.3023427  77.9285383   7.9562753
  11.6441488  77.6199961   7.3335260  12.7493429  78.6408424   7.4990642
  59.8326683  77.5237226   0.8803372  60.3334379  76.7352200   0.6712343
  60.0075483  78.1188679   0.1513321  89.5702553  40.9365320  47.3451805
  89.2902279  40.0662851  47.6288748  88.9116764  41.2027407  46.7035961
  51.4213276  28.6169004  48.9114189  52.3579502  28.4194875  48.9127827
  51.0094452  27.8264761  49.2604399  84.3375206  54.7566891  27.9267693
  84.1899300  54.5228386  27.0103836  84.8145008  55.5856991  27.8885722
  21.3382459  34.0993142  61.6171503  21.5617228  34.9594688  61.9727087
  20.3897619  34.0334153  61.7279196  49.4223261  82.9295254  15.9995961
  48.9687252  82.7986336  15.1669216  49.2892218  83.8555908  16.2018633
  82.0571613  76.9588280  62.6535416  81.4858341  77.3316145  63.3249903
  82.8926754  77.4105549  62.7722263  64.1902447   9.8997843  45.4828787
  64.3267679  10.2070999  46.3790655  63.4843016  10.4512048  45.1455116
  17.7777040   3.5653695  44.6771669  17.6286817   4.2658481  45.3122663
  18.7016857   3.6484203  44.4413853  27.9483318  69.8530865   9.7478765
  27.5144649  69.2822075   9.1137725  28.7956119  70.0528717   9.3498373
   1.9135384  58.4961414  68.8542604   1.8981035  57.8116894  69.5232296
   2.0205827  59.3099594  69.3466759  74.3918085  37.1069670  40.5135870
  75.2242279  37.2155809  40.9734917  73.8816404  36.5242696  41.0761023
  80.2934647  56.8634462  64.1636467  81.0964012  57.2842789  64.4709206
  80.5326843  55.9432888  64.0526581  79.1936255  57.9913568  53.6512327
  79.9269533  57.3764658  53.6318588  79.6047306  58.8553524  53.6240864
   3.7702814  70.9695721  53.7964964   3.9439309  70.5188131  54.6228695
   4.3217137  70.5185461  53.1571722  33.4281826  83.3854580  15.0631750
  32.7244854  82.7779388  14.8352242  33.7475252  83.7089920  14.2208123
  33.0824709  71.8553257  45.8581829  32.6586151  71.0592365  45.5375338
  33.7729168  72.0329666  45.2194643  42.0222759  64.4945145  51.9390774
  42.7186823  64.7527218  52.5428820  41.8945646  65.2603197  51.3791943
  80.9952164  49.7819519  35.3809786  81.4966774  49.9051094  36.1869597
  81.6590309  49.6934795  34.6970487  69.4900322  76.3610506  54.3677950
  69.1721535  75.4582453  54.3567896  68.8759756  76.8380070  53.8095093
  90.2095509  62.8813219  63.9604950  90.2935314  63.1254292  64.8822308
  91.0389137  62.4523687  63.7498093  62.7455521  29.0183163  58.6308384
  62.7397823  28.5910034  57.7743292  61.8517494  28.9133239  58.9569092
  47.3565245  10.3683579  16.2941468  48.2579088  10.1289797  16.0786617
  47.1260214   9.7979861  17.0274794  24.4198847  16.5210378   0.3438357
  25.2540994  16.0611653   0.2498480  24.0122890  16.1229825   1.1130238
  82.1393681  12.0900488  19.7195125  82.3693371  12.9197204  20.1378274
  81.2787056  12.2479284  19.3314862  59.6357155  55.1390028  44.8991680
  59.1385555  55.2647066  45.7074165  60.0174093  55.9976435  44.7167540
  75.1599312  24.1583490  62.5732565  75.7759666  23.4699583  62.8239632
  75.6368780  24.9739981  62.7264643  45.6060123  40.5442810  10.7134819
  46.1482143  40.7528305   9.9527228  46.1136484  39.8934698  11.1982310
  69.0485573  64.3611765  50.9840679  69.7407055  64.8105145  50.4990339
  68.8562632  63.5827875  50.4612255  43.2847977  57.8566790   9.1119075
  42.5860786  57.3103428   8.7519902  42.9989433  58.7541628   8.9414889
  11.2323010  39.7025657  42.3656225  11.6302061  39.3591952  41.5656233
  11.2550271  40.6531382  42.2555017  18.0904257  30.6137538  40.1372385
  18.2966065  31.3359356  40.7306814  18.2627535  29.8248053  40.6511450
  24.2742753  59.8172379  39.0863800  24.0114164  60.5338717  39.6639395
  24.3891740  59.0681887  39.6711469   3.3658901  30.2941680  57.3972273
   2.4303365  30.1098824  57.3134995   3.5030526  30.4150081  58.3368111
  51.7598343  78.4690809  64.6952963  51.0923576  78.7804890  64.0839672
  51.8511295  77.5373173  64.4960022  66.4732981  36.1826754  60.7942343
  66.0304451  35.9227252  61.6020346  67.1265745  36.8235660  61.0748053
  18.9881730  75.6579399  20.9390044  18.3423817  74.9675798  20.7886958
  19.2173386  75.5741310  21.8645811  62.7317715  30.2498960  22.4057984
  62.2118139  31.0447621  22.2872138  62.1477175  29.6482968  22.8675270
  56.9949341  29.1728354  40.2860546  56.5035105  29.0751863  41.1016512
  57.8835583  28.8939667  40.5069923  16.5616190  42.9289389  50.9036016
  16.0490739  43.7350941  50.9639263  16.4985693  42.5392103  51.7755938
  71.7098761  25.9082913  48.6987162  71.2018204  25.5562663  49.4296026
  72.5279903  26.2055516  49.0969086  22.4851155  56.5527105  69.8291302
  21.8504643  57.1192217  70.2678919  22.7769136  57.0610332  69.0723658
  84.5538998  24.1924357  74.1520166  84.4281578  23.4191871  73.6020088
  83.9896107  24.0413284  74.9102879  61.1259460   5.0691056   3.9849320
  60.2801228   5.1598620   4.4237715  61.3328886   4.1371074   4.0541148
  69.9689293  58.5304403  72.4062157  70.2946711  58.8764381  71.5753078
  69.2245102  57.9807663  72.1614075  91.4177799  54.5989895  57.9567051
  91.0768414  54.4457293  57.0755100  91.7543316  53.7471581  58.2348156
  17.3503363  42.1259546  44.9390173  17.8258574  41.3316631  44.6956778
  16.5053773  42.0442247  44.4967508  15.9585524  46.5293598  37.6868129
  16.7515647  46.9806147  37.9761744  16.1699271  45.5991411  37.7658892
  28.6097193  40.2378273   5.2604300  27.7573967  39.8022318   5.2662665
  29.1679835  39.6647525   4.7349197  82.0956039  41.5171576  29.2683721
  81.7689991  42.4013281  29.1016197  81.8471622  41.3370895  30.1750612
  41.9618368  71.6579771  46.8633509  42.1706676  72.5086784  46.4774275
  42.0618200  71.7915297  47.8058958  60.1839781  84.4353199  43.8947010
  60.9144163  84.3501759  44.5074368  59.9343967  85.3579712  43.9462805
  84.6899128   7.9191560  47.9735374  85.3521538   7.3126614  48.3049345
  83.8807392   7.4079168  47.9631186  50.4139709  20.5160928  59.0156412
  51.0721016  21.1614418  58.7575340  50.0998211  20.1504779  58.1886768
  30.2656412  71.0301590  19.3413365  31.2119269  71.1487865  19.2594576
  30.1485038  70.0830364  19.4153154  46.0793114  78.9323473  41.9641829
  46.1279392  79.6320677  41.3128328  45.1852608  78.5984278  41.8906927
  70.3464603  84.7060680  70.4123878  70.2268744  83.7588310  70.4807806
  71.2884998  84.8369694  70.5203533  30.5648494  20.2381206  38.8607097
  30.1612163  19.4574177  38.4814811  30.4324436  20.1421118  39.8038340
  16.9607639  59.7630930  33.4660268  16.0115576  59.8534155  33.5501838
  17.0999706  58.8281298  33.3153915  77.0290327  80.5550766  73.9966393
  76.5852976  80.8773518  74.7811604  77.6163101  81.2674522  73.7439442
  45.9069061  24.3458223  70.7617474  45.5200815  24.1328144  69.9124956
  46.5452909  23.6493874  70.9156036  69.7245932  15.6243408  46.3945627
  70.4572010  16.2163007  46.5651655  70.1373863  14.8038363  46.1251068
  72.0250559   2.6490876  54.8896456  71.7601490   3.1550014  54.1214609
  71.3023281   2.0386010  55.0352669   5.3965509  16.1529934  66.6852617
   5.0877517  15.8969867  67.5543642   4.6249247  16.5228128  66.2562418
  11.8543434  70.5781031  64.9708223  11.0212469  70.7083464  64.5178127
  11.6590679  69.9330902  65.6505728  24.4730401   1.6898023  73.7327623
  25.4281783   1.7488597  73.7114811  24.2109728   2.2959183  74.4257116
  23.3306909  81.3778877  68.3417273  23.8953328  82.1050358  68.6037779
  23.1272101  81.5517998  67.4227190  11.3569140  19.3176329  61.2200451
  10.5035877  19.5615208  60.8614588  11.1989963  18.4882796  61.6711187
  71.8198586  76.6548300  61.1114645  72.3955584  77.4163198  61.1817503
  71.7607784  76.3159847  62.0047331  28.7932992  67.1183586   5.6237626
  28.2397652  66.3702106   5.3999335  28.3763194  67.5025892   6.3949490
   7.1848232  27.4677825  72.0499325   6.6398221  28.0718422  71.5456343
   6.5617383  26.9600344  72.5697279  57.3801517  83.1724262  56.5876102
  56.6075087  83.4038925  56.0721731  58.0552149  83.7849808  56.2955475
  84.5325375  59.7288609  62.2393036  84.9748039  60.0316763  63.0323553
  85.2334499  59.6389771  61.5936518  73.1581593   9.3664712  58.7776184
  72.7027845   9.7661763  59.5186329  73.5118055   8.5484105  59.1268253
  65.6138086  82.3519802  50.3386021  65.1910639  82.1506310  51.1734533
  64.9271202  82.2211361  49.6847105   5.3193498  11.1732638  48.5399818
   5.2455282  11.7733729  49.2820406   4.6890235  11.5046191  47.9003525
  83.0828190  19.5874798  53.2437277  83.2306480  20.3718948  52.7154541
  82.1334648  19.5531785  53.3611155  28.4452558  81.6440773  65.7597685
  28.5773587  80.8724976  66.3106203  27.7556348  82.1389866  66.2021828
  51.6252470   7.0746225  70.3556681  51.9598627   6.6491497  69.5662117
  52.3801184   7.5410271  70.7146597  41.9474602  86.2070942  35.6265283
  42.1233797  85.2938366  35.8528924  42.0033169  86.2321186  34.6712875
  90.8427048  15.6813741  36.8307877  90.9230614  14.7526062  37.0479703
  89.9662304  15.9224951  37.1305871  76.4848185  22.9016995  47.9853439
  76.5659857  22.2078276  48.6397028  77.0260906  22.6053596  47.2536087
  27.3609592  21.2748714  74.5347616  27.2070791  22.1703907  74.8357565
  27.4316599  21.3508411  73.5832043  72.2175455  14.1555655  50.3807783
  71.5532637  13.5367525  50.0774097  72.3673582  14.7324264  49.6317673
  36.8203616  73.0259466  64.3885660  37.6135111  73.3700132  63.9777565
  36.1783409  72.9928637  63.6793756  19.9609792  20.8680201  59.0229273
  20.5950451  20.5920577  59.6847725  20.4710031  20.9345770  58.2156610
  35.3304648  31.8611717   3.6224011  35.8359885  32.5024343   4.1218641
  34.7648478  32.3887491   3.0585116  91.2617397  13.3597815  44.0243769
  91.2131977  12.5260901  43.5565805  90.3520584  13.5684979  44.2368841
  54.4144630  12.9632270  35.6005335  53.8212824  13.6855221  35.3939939
  55.2131939  13.1620646  35.1119423  22.9573059   3.1161997  22.4760985
  23.3425045   3.3521834  21.6321993  23.6716008   3.2243410  23.1040478
  16.7210209   3.9264032  51.5003252  16.8400276   3.0399624  51.8413401
  16.7545307   4.4875714  52.2750473  24.5194268  76.8531084   7.2613901
  25.2822471  76.2992907   7.4275804  23.8459682  76.2468863   6.9528800
  23.1008744   9.1648060  70.0845146  22.6329517   8.5424227  70.6412172
  22.4426103   9.8194063  69.8512363  79.9143410  10.7597578  43.1897497
  79.0813017  11.1762834  42.9688835  80.4263973  11.4536798  43.6050797
  73.9492607  43.9261961  52.7240562  74.4400024  43.9687300  53.5447836
  74.5647144  43.5474730  52.0963478  66.7227745  84.3496799  15.0364327
  66.6273260  83.8134670  14.2492890  67.6159334  84.1792297  15.3355038
  39.6598125   8.5121948  56.1860514  40.1558590   9.3306637  56.2027502
  39.8617983   8.0926096  57.0223427  43.9594650  36.5214586  21.7540836
  43.0275059  36.6888094  21.6137886  43.9823341  35.7308960  22.2932696
  25.4214883  43.9027882  66.6755962  24.8731661  44.6723175  66.8285799
  25.7897830  43.6964989  67.5346851  68.4922886  78.1791782  38.6080217
  67.7203941  78.7436056  38.5651898  68.4688187  77.6789904  37.7922463
  48.9855528  75.5075788  68.7265873  49.4238281  76.3518572  68.6200809
  48.6769867  75.2854013  67.8481483  64.0793467  23.4686375  71.6562366
  63.5992336  23.8815165  72.3740530  64.4256353  22.6599836  72.0335960
  31.9634080  63.0443573  74.0723562  32.4917030  62.4567413  74.6125793
  32.1944690  62.8147697  73.1722832  70.6603575  59.4151688  36.1510754
  71.4192581  59.8479080  35.7598782  70.7123184  58.5118675  35.8386898
  84.6671581  84.1436195   3.0791962  84.2374325  83.3558178   3.4122729
  84.6397209  84.7592640   3.8116300   5.8390069  25.9028101   4.6577811
   5.5461043  25.2121186   4.0633172   5.7648963  25.5154872   5.5299747
  64.0641642  19.1201258  65.6145716  63.2640553  18.9793766  66.1207771
  64.1539240  20.0719786  65.5682039  51.2278414  58.5367584  54.5724726
  52.1116400  58.7431002  54.2682409  51.2939310  57.6446009  54.9129438
  48.8973904   0.6908878  49.2854023  48.8555908   1.4096297  49.9161911
  49.4947147   0.0575078  49.6832323  36.4513683  80.4221725  73.3627081
  37.0260119  81.0639668  72.9454279  35.9020376  80.9396458  73.9515162
  11.3346529  61.2903309   4.9396703  11.0410333  61.6248226   5.7870996
  10.5279469  61.1589909   4.4414657   8.6053371  39.4187570   3.5925347
   8.2997137  40.2218390   4.0142983   9.3362147  39.1256332   4.1367123
  55.6091738  47.7716684  33.8147950  56.2948227  48.3744192  34.1025615
  55.8857012  47.4936342  32.9416037  87.9375553  24.8411083  28.0271244
  88.0757618  25.2612090  28.8760352  87.3607731  24.1012073  28.2171154
  22.7904630  18.4647155  49.9376822  22.6789999  19.2821646  50.4230499
  23.3917165  17.9478359  50.4739285  58.7949800  44.3484831  34.6013355
  58.3608103  45.0739717  35.0500989  59.4624662  44.0498638  35.2190065
   3.1624040  19.0076792  51.7549324   3.2114920  19.8698723  51.3420868
   2.5488240  18.5155201  51.2094688   8.6698157  43.8635635  61.9210768
   8.6897820  42.9065800  61.9247437   9.2101109  44.1172695  62.6693726
  13.8853717  45.0877523  55.0171328  13.2989919  45.8328676  55.1482677
  14.1907227  44.8655701  55.8966923  89.0161800  61.6404486   9.7925365
  89.3035984  61.9153643  10.6631935  88.0732155  61.5035343   9.8837370
   9.7752249  40.3874636   6.2969840   9.7778171  39.4719291   6.5763074
  10.6261802  40.5120802   5.8767724  87.1960640  30.1027012  50.4629612
  86.6954422  30.0630713  51.2778473  86.9932938  29.2803335  50.0170565
  69.8689842  20.6474113  53.5707235  69.1992855  21.3209462  53.6894131
  69.3745279  19.8435938  53.4106588  74.3363619   9.0411234  38.1593037
  74.6585464   9.1438913  39.0547752  74.6728706   9.8071265  37.6942968
  45.3328705  59.8944807  20.8804584  45.3703594  58.9771509  20.6096625
  45.5632401  60.3864670  20.0923538  84.2143536   9.0929294   9.7383219
  84.7294426   9.8997229   9.7384512  84.0460491   8.9163697   8.8127244
  69.9676943  62.4867868  54.4833040  69.5469761  61.9945049  55.1882076
  69.6443987  62.0786715  53.6800909  17.3655486  38.4530258  25.9003091
  17.2058797  38.2398057  26.8196964  16.5429032  38.8372135  25.5971789
  33.5519767   3.0946800  32.5790215  32.7144718   3.5356367  32.4362898
  33.7435389   2.6682296  31.7437530  74.6835709  42.7936316  34.6779513
  75.0723839  43.4613752  35.2429104  75.0863266  41.9737577  34.9640036
  78.0309439  44.9038267  52.7369690  78.6228752  45.4876995  53.2112503
  77.1891403  45.0034332  53.1815815   0.5394437  63.7705183  45.4338026
   0.6314542  64.0463591  46.3457680  -0.3405497  64.0537405  45.1855326
   5.4037982  25.4458022  46.0634327   6.3540345  25.3695822  45.9769821
   5.2775985  26.0851073  46.7645693  86.6976070  37.1367764  58.0112839
  86.9703865  37.6870441  58.7454700  87.2965431  36.3905144  58.0358076
  34.3774605  76.1490011   3.7336355  35.1932335  75.9905720   3.2586104
  34.0678430  76.9923496   3.4032804   1.5178776  16.8602443  37.0085025
   0.6121473  16.5578222  37.0750284   1.8797235  16.7273557  37.8846526
  17.7003717  20.3324056  29.6215606  16.8064928  20.0782108  29.8509026
  17.6011837  20.8812356  28.8436270  78.3401299  43.2671165  66.1286116
  77.7456903  43.7788820  65.5800056  77.9040527  42.4210405  66.2297535
  81.9880295  71.3766718   5.5338889  81.0772800  71.1846638   5.3105175
  82.5006771  70.8893347   4.8889649  27.8902221  80.2601147  72.9798746
  27.8850627  81.1767006  72.7040720  26.9824004  80.0778961  73.2225466
  67.0746183  35.0653696  53.4440088  67.6837301  35.3135681  54.1394281
  67.6176167  35.0128174  52.6574850  12.2690582  49.1762352   1.8348531
  12.6611066  49.8152065   1.2396696  12.3923409  48.3339977   1.3970511
  35.0491881   8.0711007  66.2258720  34.9800611   8.6526293  65.4687214
  34.8350644   7.2038066  65.8820915   6.7560077  60.6233549   1.6631596
   7.0999414  59.8407888   1.2324286   6.6694939  61.2658882   0.9589598
  66.2059975  30.2953243  26.7016864  65.6658220  29.9182272  27.3961210
  65.8444977  29.9322152  25.8931684  22.8959727  84.5680618   5.7655275
  23.5542226  85.2628708   5.7521635  23.1651902  83.9696407   5.0686419
   3.4655479   1.9782013  36.4267421   3.1465477   2.6579139  37.0204258
   3.5345358   1.1956353  36.9736075  40.8155489  82.9685688  19.0013361
  41.5741110  82.4511051  18.7310839  40.2853489  82.3635101  19.5200086
   3.7181860  33.3903027  55.9549141   4.0634042  32.6494455  55.4567289
   4.1416562  33.3216786  56.8105984  71.2270737  71.1043882  69.5263290
  72.0580149  71.2651491  69.0791988  70.5782175  71.0764074  68.8231754
  76.6061258   0.8061419  57.7784443  75.8246279   1.2859069  57.5040102
  76.2904930   0.1948184  58.4439421  34.9087763  21.0076451  56.8889380
  35.7635188  20.9911418  56.4583874  34.8786712  20.1943684  57.3928308
  25.9661078  42.2608900  33.3414054  25.5317974  42.5843334  34.1307020
  26.2840962  41.3908291  33.5824561   4.0588495  34.1615415  28.6349344
   4.3381834  34.5024538  29.4846296   4.7787890  34.3769121  28.0420303
  37.4462557  62.3565388   8.8953400  38.2697511  61.8991327   8.7254453
  36.8443537  62.0208502   8.2310665  60.6965113  64.0210772  27.9813266
  60.4083014  64.1746187  27.0815539  61.2695169  63.2566214  27.9221344
   9.1969949  14.7130764  11.0130966   8.5898048  15.4223621  11.2239647
   8.6661118  14.0784812  10.5317605  81.0858463  36.0759064  73.9926852
  80.6766247  36.4647575  74.7657094  80.9438800  35.1347729  74.0943678
  75.2864313  69.1516829  32.3063040  75.4541874  70.0243187  31.9505024
  74.3470669  69.1444778  32.4900842  88.5593033  39.7678781  52.2077274
  87.9217625  39.2970943  51.6709471  89.4013596  39.3733692  51.9807100
  30.6341958  59.2547417  18.4019303  31.1559510  58.4545135  18.4622896
  30.0356746  59.0959358  17.6720095   3.8346413  36.1949611  54.3558502
   4.7857517  36.1752534  54.2498636   3.6754915  35.7299924  55.1772547
  24.4272733   4.6602356  18.6176538  23.6462116   4.2095968  18.9387488
  25.0594068   4.5824978  19.3322146  42.0398378  52.9013109  15.4855931
  41.1354065  52.9861593  15.1838744  42.5092030  53.6040831  15.0361109
  46.7824745  10.2994728   6.7924809  47.3598337  10.7160497   7.4322897
  47.3401976  10.1481330   6.0294104  54.2221355  71.1044645  64.0255499
  54.8531246  71.3336325  63.3432245  53.4622717  70.7725286  63.5473680
  34.7051120  66.6515303   1.0055834  34.6348476  65.9952164   1.6988012
  35.2512097  67.3411036   1.3830765  42.2174072  22.1705031  27.3037672
  42.6377869  22.9547906  26.9510508  41.2858868  22.2961378  27.1228957
  71.3825941  49.8265219  12.9004288  71.8388367  49.6738005  12.0729303
  70.5585003  50.2419662  12.6464438  17.9390967  28.6363411  74.1454840
  17.4450970  29.3764186  73.7926674  18.7744772  28.6617279  73.6788702
  17.3749590  60.6343842   1.8035768  16.4975762  60.4025078   2.1079841
  17.6849103  59.8518515   1.3477206  16.0482764  35.5282593  49.0971804
  15.4096508  35.8767509  48.4751368  16.8256164  36.0727644  48.9727306
  90.6589413   3.6824191  68.5590553  90.4723930   2.9072085  68.0294514
  89.9967861   3.6654294  69.2500591  53.8057089  58.0969477  49.9573326
  53.2299566  58.8544035  50.0622177  54.1536999  58.1817055  49.0696669
   8.4052712  31.1312342  41.2903786   8.1150466  31.2458968  40.3854752
   9.2801231  31.5190315  41.3122845  28.6529493  27.5528741  66.3327122
  28.3000255  26.7466640  65.9562826  27.8825021  28.0942583  66.5045977
  73.0667400  31.1998391   3.8708931  72.8971195  31.0480452   4.8006344
  74.0179062  31.1329937   3.7869245   0.1357725  42.7052784  33.0935907
   0.2139928  43.6578417  33.1458807  -0.0554488  42.5308895  32.1720409
  87.7136421  46.6798592  74.4959354  88.6325359  46.4613724  74.6512508
  87.7199936  47.1725178  73.6752748  27.8013372  66.5219212  23.8892198
  27.9060912  65.5710363  23.9220715  27.2593212  66.7296076  24.6503472
  84.2792416  26.3959312  64.7450113  83.8164330  26.5595841  63.9232683
  85.1643276  26.1495137  64.4764471  88.5262299  44.8778772  49.0151978
  88.6534405  44.0798712  49.5282602  87.8352833  44.6541548  48.3916855
  73.5495567  71.4258623  45.2756596  73.0393267  71.1438370  44.5164776
  74.3745661  70.9462070  45.2013588  24.5412898  25.0870848  66.7396259
  24.9377704  24.2564106  66.4769173  24.9247003  25.7335353  66.1468935
  48.9016438  80.4118347  52.7798891  49.2105198  81.1854553  53.2514191
  49.5410061  80.2877617  52.0784235  10.9216070  22.9117131  36.6699862
  10.2426922  22.5421953  37.2345757  11.4262640  22.1538329  36.3747406
  11.6517508  26.8655539  34.1377902  11.1265135  26.1860394  33.7151575
  11.0402751  27.5885725  34.2776990  90.8601761  18.5911036  72.1290159
  90.0097084  18.5882246  72.5682402  91.3554382  19.2810369  72.5705385
  88.3710575  34.9283838  57.9038334  89.0560436  35.4541898  57.4908447
  88.2164669  34.2110300  57.2892332  36.7240191  74.6910191  12.3275399
  37.2364807  74.8027086  13.1282532  36.1014605  73.9946938  12.5367904
  22.2380328  64.4309330   1.1637607  21.8641186  63.8444281   1.8213552
  22.3668122  65.2587795   1.6267036  76.9718838  33.4639621  49.7374773
  76.6958857  32.5712466  49.9451113  77.7321815  33.6162543  50.2987146
  59.5214081  54.0938950  15.1732707  58.9682817  54.5979881  14.5764709
  60.2591562  54.6734524  15.3631961   6.2421769  65.1785135  32.4502349
   6.6756308  66.0185480  32.2995949   6.6122019  64.8624802  33.2745147
  86.3067913   9.4081837  69.5109653  87.1624470   8.9921457  69.4060898
  86.1598778   9.4186610  70.4567671  23.2777572  29.6738625  25.0277972
  23.9532900  30.3520131  25.0274348  22.4965596  30.1141548  25.3626204
  15.3727376  29.6315312  58.7726974  15.9168339  29.6285129  57.9851818
  15.9386742  29.2726827  59.4562006  49.3405151  75.5530119  40.5913591
  49.0616465  74.6931601  40.9061956  50.2932835  75.5441713  40.6829453
  90.2104282   0.4597116  16.9811690  90.2090836  -0.0164904  17.8115070
  89.8109150  -0.1461057  16.3569784  50.4928923  85.0854301  55.2117825
  51.3013268  85.5768490  55.0662804  49.9321890  85.6865215  55.7022238
  63.0323648  74.0972281  44.0119839  63.9712667  73.9602900  43.8857412
  62.8807926  73.8834572  44.9326134  12.8909004  58.3020878  49.0178490
  12.0869589  57.9505110  48.6353540  13.3996296  58.6078691  48.2669020
   2.6060107  77.9028559   5.1415801   2.5050122  78.7483025   5.5789006
   2.5400603  78.1064034   4.2086005   2.7613452   4.2898893  42.0742130
   2.7987054   5.2291691  42.2547388   1.8424535   4.1226226  41.8647099
  72.1366978  29.2521667  63.9803600  72.9002380  29.2405581  63.4032059
  71.7422390  28.3866382  63.8731480  48.9085627  74.9587107  19.1838396
  48.5809135  74.0731907  19.0265560  49.5477009  74.8558855  19.8889387
  19.7335935   6.8951792  73.4106874  19.2546427   6.2222993  72.9268789
  19.4896853   7.7164549  72.9837847  65.3142166  53.1394482   5.4475087
  65.4499483  52.3702240   6.0007751  64.4372034  53.0204964   5.0829089
  74.4677401   4.3147635  55.1125622  73.7556505   3.6790717  55.1836300
  74.1604042   5.0749063  55.6064796   1.1849669  23.3506560   9.4207895
   0.7026401  23.4181070   8.5967481   1.5015833  22.4475360   9.4397599
  23.1899524  49.0772200  68.8861942  23.9913177  48.7361765  68.4890366
  22.5888038  48.3323479  68.8901043  45.0042582  75.6118202  30.6499767
  45.7101583  75.5459309  31.2930894  45.3177071  75.1093721  29.8979616
   5.6979799  66.8709087   6.0438991   6.1052984  67.7292204   5.9271550
   4.8956367  66.9138002   5.5236715  84.4346046  10.9990847  23.4324694
  85.0777912  10.5771291  22.8628159  84.2258644  11.8217456  22.9898763
   0.5479791  10.3903508  33.1564784   0.9784383   9.5536357  33.3321071
  -0.0576822  10.5064249  33.8885522  68.2345629  60.5788422  35.7152486
  69.0682507  60.2997541  36.0938096  68.3001709  61.5326357  35.6683207
   1.7568554  51.1917782   8.1129789   0.8667407  51.0340643   7.7982509
   1.6713496  51.2267780   9.0657097  19.0604305   6.2152183  28.7839794
  19.9642611   6.5224594  28.8541532  19.0753114   5.5909389  28.0585241
  26.6805553  17.1713340  19.3885362  25.7395506  17.3145330  19.2873526
  26.7499113  16.2970340  19.7719693  59.3586445  17.9671741  39.9147511
  60.1902771  18.4196687  40.0556946  59.5837069  17.2192097  39.3614650
  89.7943974  67.7837610  29.8312020  89.2130756  67.2171259  30.3383708
  89.3158245  68.6089993  29.7526145  19.0751636  29.4093060   9.1255742
  19.9622846  29.6388507   8.8488823  19.1671968  28.5494018   9.5358503
  50.5462122  65.4793787  13.5437131  50.5226469  66.4062262  13.7816942
  50.0494623  65.0418663  14.2351270  59.4708395  69.5641613  74.3962765
  58.7404633  70.1362085  74.6319628  59.5505524  69.6563196  73.4468651
  47.3304987  80.0558376   3.9840400  47.0012999  79.7216892   3.1496525
  47.4837303  79.2723370   4.5121258   6.8003207  58.7561846  73.3440542
   6.1926252  59.3801546  72.9470682   7.6678592  59.1155100  73.1583309
  79.3356180  12.9898012  61.1465311  79.5648432  12.6556993  60.2793121
  79.7477055  12.3772633  61.7558002  61.3268423  42.2049379   9.6782839
  62.1482754  41.7642212   9.4609177  60.6665468  41.5129614   9.6407181
  53.0564928  43.2377672  19.6477091  53.0667114  42.6915359  20.4336858
  53.8751268  43.7321043  19.6889246   8.3036250  10.2706373  20.7342649
   8.8990104  10.8191311  20.2234769   8.8440049   9.5353925  21.0234642
  22.0613694  17.5089335   8.0060560  21.8052745  18.2040203   7.3998362
  21.8458939  16.6979873   7.5454384  25.5118370  35.9855771  71.6887379
  25.3384161  36.1885977  72.6079416  25.6342721  36.8394470  71.2738323
  63.6991787  73.1838274  11.7449188  64.5737791  73.0432558  11.3822246
  63.8263559  73.8413000  12.4288714  33.0848670   7.4956185  34.9488878
  32.3677325   6.9500512  34.6259212  32.9810023   8.3266997  34.4854784
  68.8173437  76.2585068  19.4642103  69.2609215  76.3159418  20.3104806
  68.5161543  75.3513861  19.4127357  47.3808050  70.8448124  13.1794345
  46.5311813  70.9392405  13.6100781  47.5744200  69.9090004  13.2342505
   4.4305846  66.5139675  68.5803080   3.5439748  66.8456841  68.7221432
   4.6818447  66.1343622  69.4223261  18.0626070  59.2679787  67.8647995
  17.3055577  58.7629604  67.5680399  18.2814634  58.8926697  68.7177229
  76.6603518  83.4916973  30.6337261  75.9808683  84.1277790  30.8571887
  77.2816467  83.9835835  30.0968146  66.5794468  60.9761620  45.0890541
  67.4569178  61.3540840  45.1478052  66.6531467  60.3036928  44.4118643
  73.6434889  27.8786922  30.4605412  72.7346659  28.1365204  30.3062868
  73.6991549  26.9843459  30.1239705  39.2983532   0.3882708  22.9448366
  38.7204266   1.1338642  23.1070805  38.7101245  -0.3157372  22.6717234
  38.6672819  59.3166317  75.1944899  38.9694179  60.0375522  74.6420232
  38.2074685  58.7306298  74.5933201  42.5656748  50.5109167   7.6305127
  42.3024797  49.6309853   7.3609245  42.1230412  50.6472111   8.4682047
  80.4035091  52.2196054  39.5602036  81.2155819  52.7169228  39.4630408
  79.7427940  52.7506208  39.1155601  82.0533657  16.9280767  24.9939799
  82.9948711  16.9321072  25.1665640  81.6684151  16.5304232  25.7749486
  66.6448307  20.8654952  46.6456747  66.9495392  20.6389570  45.7670021
  67.0160723  21.7319632  46.8119383  81.8832684  26.0729885  47.5493336
  81.2569332  26.4386415  48.1740236  82.7408028  26.2862539  47.9172897
  18.6104238   6.0834461  32.5694418  18.7269878   5.2521712  32.1094131
  18.3084202   5.8336204  33.4427166  32.5403738  25.1498652  74.1618252
  32.8783822  25.0296187  75.0492477  31.5888286  25.1237178  74.2623663
  85.1606560  30.6259012  60.0418139  85.4839230  30.2296138  60.8509398
  84.5107174  31.2660503  60.3316689  85.6746960  63.3444166  15.2535343
  85.2403355  62.4914551  15.2499938  86.4366913  63.2228088  15.8199251
  83.3528137   4.0106997  29.7412252  83.0736828   4.9253026  29.7838497
  82.8052998   3.6247984  29.0574551  15.4040003  13.1003690  49.2000866
  15.0269282  12.2358048  49.3631077  15.9507048  12.9806781  48.4235382
  88.7540054  49.5915318  35.1982188  89.2349243  50.3060913  34.7806644
  89.1336536  48.7965059  34.8240113  41.1143398  69.0814686  43.1036186
  40.9512901  69.9947834  43.3392048  40.3454590  68.8244581  42.5947046
  84.5029163  79.5145273   5.2862978  84.7796059  79.4959688   6.2024456
  84.1628838  78.6351728   5.1209348  68.1977844  17.8286862  50.2891541
  67.9303885  17.7603078  49.3726063  67.3767853  17.8039467  50.7806540
  64.0162373  60.7527494  40.0756741  64.7966528  60.5167770  39.5741773
  64.2563391  61.5629911  40.5252171  84.7673321  65.2222252   1.9525093
  84.0295124  64.6507025   2.1651439  85.4921436  64.8830652   2.4777304
  79.7334242  73.5954332  32.5556684  79.3914270  74.4403982  32.8477502
  79.0297985  73.2230377  32.0241952  30.0542998  73.5876465  60.5538416
  30.5436516  74.4102859  60.5480576  29.3344855  73.7328243  59.9398232
  59.0558958  20.0962782  28.6648679  58.3367014  19.8432195  29.2436171
  59.6702719  20.5591035  29.2345738  10.6630337  65.2423382  32.3668623
  11.6073442  65.2332497  32.5231552  10.3958046  66.1394835  32.5667334
  43.9932728  81.4512730   3.1149450  43.3533859  81.1114597   3.7404835
  43.9599657  80.8376789   2.3810402  77.7448130  85.1477528  26.5174317
  78.5718298  85.2314281  26.0428023  77.6255655  84.2042732  26.6263390
  14.5792973  33.5753369  44.0307236  13.9759064  33.8140464  44.7344065
  14.4696355  32.6296091  43.9317036  14.6734619  80.1569271  67.1725655
  13.9110994  79.5842266  67.2565079  15.3553605  79.7249222  67.6869726
  58.7476730  65.8553934  33.3840322  58.4101391  65.1670885  32.8108454
  57.9741096  66.1899233  33.8378191   9.0984100   3.6820117  35.8111000
   9.3383265   3.5282591  36.7249012   8.2987666   3.1714141  35.6842470
  50.5141211  73.5886669  51.3979626  49.5943975  73.4721613  51.6362143
  50.9933519  73.4404373  52.2131920   7.8845644  68.9701986  29.3287134
   7.0572424  69.0628719  28.8562918   8.2635564  69.8491526  29.3227220
  85.9656239  30.1123309  35.1886320  86.4024734  29.5991850  35.8683920
  86.5609646  30.0743032  34.4400620  24.9703741  85.8290672  70.8873940
  25.1081872  85.8988667  71.8320465  25.4739189  86.5542984  70.5176497
  85.9089470  24.2044067  22.6901007  86.1139393  23.6133695  21.9656086
  86.7009830  24.7302008  22.8017020  53.2239819  10.5069149  53.4076166
  54.0404654  10.1203859  53.0911112  52.5765371   9.8079604  53.3153582
  65.7981539  79.0960121  10.2347064  66.4908075  78.4569597  10.0671637
  65.1479244  78.9288712   9.5524293  22.8803015  81.7977238  59.2556667
  22.9818106  82.6126862  59.7473574  22.5340939  81.1742973  59.8941898
  80.8406830  37.6665688  51.0713816  80.8674335  38.1052423  50.2210379
  81.7538643  37.6425767  51.3573408   4.9297982  23.3513093  42.4828529
   5.5051661  23.8813829  41.9313002   4.3843058  23.9894199  42.9427290
   5.6598383  15.2212954  16.3985753   4.8988670  15.7179463  16.6993952
   5.6034124  15.2516961  15.4435241  14.6043515  18.3630884  25.0525045
  14.6791673  17.4092317  25.0806451  13.6643791  18.5274959  24.9773073
  39.6868062  33.1899834   6.0562640  40.1162386  32.5049233   5.5439025
  40.2720165  33.9441705   5.9858090   8.5459810  84.0759087  16.5251577
   8.7294245  84.4982910  17.3643076   7.7354270  83.5890579  16.6741979
  69.0808964   2.7260739  48.2011795  69.6797371   2.7705508  48.9465952
  68.3614302   3.3118585  48.4366608  53.4960318  85.8639240  47.7448988
  54.1837931  85.4019833  48.2243061  52.7412844  85.2764702  47.7834082
  54.9639082  84.7187996  18.1535733  54.9516582  83.7647057  18.0774343
  55.3954268  85.0174332  17.3530471  14.5395958  69.6914673  59.2412949
  15.3254128  69.2759705  59.5963812  14.8706341  70.3268003  58.6064720
  80.8257294  51.0634899  32.2264147  81.4278507  51.5319729  31.6483116
  81.2343597  50.2074862  32.3549056  85.0915909  80.6558609  18.2750106
  86.0323906  80.5036259  18.1857502  84.7029209  80.1962471  17.5307548
  66.3381720  85.3773499  11.3480783  66.7693615  86.0268021  11.9035304
  66.8430805  84.5751381  11.4813519  11.4456356  11.9955289  35.7360649
  11.0465109  11.1269426  35.7859612  10.7068741  12.5919759  35.6147575
  16.0173130  30.1368713  49.7725105  16.1579072  30.4499054  50.6660843
  15.0981128  30.3333902  49.5917225  83.6683083  10.9516358  57.2206020
  84.1559601  10.1504493  57.4117184  82.7506447  10.7084596  57.3430920
  54.2250395  82.7579021  12.9210567  53.5855341  82.4993801  12.2574043
  53.6959600  83.0790424  13.6512446  57.1497583  68.3998489  64.5491076
  57.6197863  67.5820780  64.7120714  56.4404011  68.4005594  65.1917934
  52.1427107  84.8631287   0.6301747  52.9378557  84.3536472   0.7863536
  51.4528990  84.3740273   1.0786920  29.0205359   7.7625853  28.9954281
  28.5958385   6.9567037  28.7014556  29.9517727   7.6172507  28.8283730
  26.3039732   9.5716119   1.0944569  25.6889606  10.1147115   0.6014728
  27.1678901   9.8879981   0.8302929  79.3008614  18.1746626  25.4692483
  79.5237207  17.6844549  26.2606144  80.0949287  18.6668420  25.2608013
  78.1383038   3.6081490  42.9477882  77.3759317   3.7995028  43.4940529
  78.2380724   2.6576123  43.0003071  84.9729443  67.5461006  22.7687907
  85.1819420  67.7434063  23.6818218  85.1463509  68.3632421  22.3014164
  25.9727550   4.1692171   8.6470407  26.4811921   3.6459854   8.0274034
  25.5510235   4.8374009   8.1067586  54.6190548  70.6524181  32.5971198
  55.0200319  69.7833633  32.6111698  55.3473234  71.2494659  32.4256730
  78.7795115  14.1776288   7.9116505  78.0519295  13.7039292   7.5085807
  78.4354544  15.0570762   8.0679446  87.8138161  32.7751851  56.1253166
  87.8394985  32.4244046  55.2350807  86.9137478  32.6268792  56.4153194
   5.2495903  23.5610890   0.3798759   4.4453543  23.9173007   0.0023188
   5.6071961  22.9975867  -0.3062839  82.5718117  79.8394871  19.9265552
  83.0118465  80.6509686  19.6733928  82.8401089  79.2043400  19.2626011
  11.3282335   6.8194616   6.2132663  11.2382770   6.7604196   5.2621335
  12.0498407   6.2265170   6.4228654  84.3078041  30.8404303  33.1847215
  84.4361019  30.8316326  34.1332436  84.9565315  30.2215362  32.8495336
  24.2017055  41.3173723  27.7078986  24.6091008  40.5799866  28.1623483
  24.0714383  41.9764900  28.3896780  56.5165377  42.3291206  71.5513277
  56.7367458  42.1542788  72.4662971  57.2413874  42.8645515  71.2286234
  17.8750932  61.3164330  31.0953331  17.4896061  61.0960674  31.9433141
  18.1734002  60.4780388  30.7427096  87.7597237   1.0304372  24.0395617
  88.1070900   0.2973042  24.5475841  87.7370834   1.7608374  24.6578145
   8.2917094   3.9841902  14.9855173   7.6876664   4.0029076  15.7278192
   8.9283276   4.6727759  15.1773477  83.8644123  29.0228343  38.8460088
  84.0473843  29.6303058  38.1292558  84.2308521  29.4491601  39.6207356
  18.7258160  55.6935692  58.8228989  18.9686584  56.3919544  59.4307756
  18.1761479  56.1255312  58.1690598  49.5045471  55.9494162  64.9904442
  49.0036106  55.1558161  64.8020601  48.8952112  56.6655016  64.8111057
  86.0830975  29.3399167  68.1382370  85.2722836  29.7208428  67.8010273
  85.8753777  28.4153080  68.2730865  16.2336183  13.1047308  36.9693398
  15.2962601  13.0207145  36.7946005  16.6525972  12.5837505  36.2843084
  12.7741480  13.8276267  20.3244948  12.5479007  14.1318071  21.2034249
  12.4028039  14.4880295  19.7395134  29.6011353  30.0592828  24.0826774
  30.0837111  29.2463589  23.9326501  29.0021682  29.8532915  24.8003387
  89.1392708  49.9903202  47.8852034  88.8819981  50.8697605  47.6083899
  90.0637817  49.9248075  47.6460314  32.6849365   5.8849055  39.5354891
  33.5365748   6.3174194  39.4732356  32.0512748   6.5736282  39.3345761
  85.9636879   8.2377994  35.0060511  85.3327751   8.1113708  34.2973948
  86.5392494   7.4747992  34.9532628  45.8976269  26.0375381  67.2915459
  46.1391497  25.4697514  68.0233383  44.9677324  26.2199283  67.4266815
  36.1645794  80.9818935   5.2595657  36.9585013  81.4004993   4.9268699
  35.4580307  81.5792274   5.0141937  63.5571575  58.9755535   4.1951129
  63.0233192  58.6721373   4.9294066  63.1517553  58.5786629   3.4241647
  77.3125648  33.2842374  38.4360909  77.1837759  33.9672089  37.7779150
  76.9788599  32.4877405  38.0232120  32.6677775   8.4179312  22.3521113
  33.2564545   8.2538611  21.6153812  31.8265963   8.0575854  22.0714092
  37.2601080  72.0865774  74.0122223  37.6572585  71.6370296  73.2662964
  36.6719365  72.7307892  73.6181688  44.4975853  20.8522177  13.8582242
  45.0484896  21.3611913  14.4529355  45.0908375  20.2048016  13.4772551
   4.8252320   5.2138579  13.7609589   5.0619715   5.8536184  14.4324458
   4.3542138   4.5300186  14.2371285   6.5754241  10.7994747  26.7995930
   7.3178506  10.2088976  26.9270825   6.7053151  11.4910448  27.4485064
  89.5593643  18.7243855  18.8508904  90.3224373  19.1374636  18.4467793
  88.9078808  18.6877346  18.1505609  65.9977293  85.3084469  22.4441791
  65.6520557  85.9423351  21.8157434  66.6265965  85.8069801  22.9659295
  62.2032070  85.3705502  30.8234215  62.6660872  85.6757450  30.0431418
  62.8985262  85.1216125  31.4323473   8.6432135   8.2085931   6.8676704
   7.8187072   7.8231674   6.5712434   9.2628950   7.4790561   6.8660247
  14.6291101   5.4900450  40.9770679  15.1944244   5.4972011  41.7494678
  13.7602341   5.2780145  41.3181400  32.3139691  61.7582607   3.2075885
  31.7033815  62.0146656   3.8987240  31.9137239  60.9855175   2.8089571
  30.4056144  22.3704934  18.1501794  30.1193714  22.8789186  18.9089942
  29.9659777  22.7822948  17.4062908  46.6006899  60.7401609  54.7497845
  47.4897718  60.4154348  54.6072578  46.4217615  61.2908316  53.9875650
   1.6634263  22.6891661  14.1092908   1.9364284  23.0616188  14.9477315
   2.4091095  22.8366518  13.5275376  23.2434702   6.1241925  25.1442075
  22.4614906   5.5723071  25.1570177  23.9371991   5.5491483  24.8212576
  27.8086329  39.6746492  11.5262389  27.0088053  39.1631198  11.6480768
  28.1884265  39.7377253  12.4026000  23.5993481  79.1281033   1.5843633
  23.9682817  78.4603930   1.0061926  24.3567324  79.4951248   2.0403250
  81.2826420  75.6550897  74.4104201  82.1742750  75.6364144  74.7580925
  80.7644821  75.1716985  75.0539034   9.6123022  66.9951010  60.4130793
   9.7133535  66.2369537  60.9886122   8.6948788  66.9688797  60.1412725
  68.0265331  37.5234056  55.9351206  68.5089779  37.5949883  56.7587423
  67.2998857  38.1393838  56.0288715  29.6234417  13.3247221  66.8247890
  29.3622327  12.4275219  66.6173506  28.9053822  13.6660695  67.3578024
   1.4539634  53.6628675   5.7831490   2.3649308  53.9219809   5.6444681
   1.4271505  53.3577013   6.6900045  75.3143072  67.9433489  22.9110336
  76.0902596  68.3152962  23.3303046  75.0345802  67.2443008  23.5020638
  15.3606308  61.2131739  52.8865385  15.9346735  60.4501009  52.9530716
  15.4986393  61.6888618  53.7056303  31.9072080  29.2061472   9.7992337
  31.1042261  29.2801189   9.2835021  31.6409492  29.4314075  10.6906354
  12.0017982  27.5573802  27.1045065  11.4909518  27.7942491  26.3304520
  12.8964686  27.4567389  26.7794442  53.1511641  39.9934411  34.0015626
  53.2579088  40.5942822  33.2641149  52.3837042  40.3225183  34.4694757
  25.7203341  45.7298517  71.7844868  25.3018856  46.5714216  71.9658375
  26.2350392  45.8840609  70.9923172  43.0977774  74.1914415   7.6000309
  43.5680056  73.8123846   6.8574429  43.7175655  74.8110771   7.9849303
   0.9843773   8.2379001  16.1828697   0.1787666   7.8068799  15.8974838
   1.5539722   8.2142991  15.4139507  17.4251568   2.3581195  66.5667057
  16.5128553   2.6455960  66.5307188  17.7327657   2.4236377  65.6626511
  76.4872265  18.0770564   5.6803197  76.9268703  18.3686972   6.4789999
  76.4719772  18.8520181   5.1186842  36.9012237  48.7096024  59.2289686
  37.6088905  48.4946346  58.6213255  36.1634374  48.9415646  58.6649656
  56.7263937  69.5586920   2.3280405  57.2064638  69.3703413   3.1344461
  56.2481308  70.3660202   2.5170270  32.7396750  32.2432971  53.7659454
  32.4231648  33.1296325  53.5913992  33.6907434  32.3354244  53.8226271
  73.5443830  57.9825306  27.3305678  73.5205412  57.0260811  27.3010349
  74.2385292  58.2238674  26.7172575  29.4818020  48.0981493  24.0509033
  29.6160030  47.2290087  24.4288158  29.8868537  48.6971664  24.6780705
  54.4286346  78.3674765  10.1700115  53.9509201  78.8071680   9.4666708
  53.8487148  77.6577997  10.4462075  19.1946125  20.5763102   0.8069774
  18.6438382  20.5460620   1.5892592  18.5745490  20.5906677   0.0779042
  17.0727241   3.6618552  61.6464853  17.3480594   3.5136241  60.7418013
  16.8768263   4.5979223  61.6869068  74.4061089   7.4405003  21.1032271
  74.7253847   7.0176423  21.9004011  73.9338493   8.2127488  21.4144135
  67.6470661  43.7368965   8.2870430  67.3149395  43.9349937   7.4114400
  68.5213995  44.1260481   8.3052713  30.5835342  43.6637831  71.8437862
  31.2356710  44.2408705  71.4463902  29.9496365  44.2587090  72.2443771
  54.4008684  16.0249937  62.8989220  53.9417648  16.0909152  63.7362432
  54.7310925  15.1268291  62.8768921  45.1113415  35.3699398  74.3420649
  46.0209990  35.5249333  74.0876484  44.5974302  35.6897283  73.6005402
  86.4886379  86.0847950   7.1179450  85.6803799  86.1086178   6.6057205
  86.9348145  85.2903938   6.8245482  80.9234238   5.2165931  15.5995011
  80.3792858   5.5870962  14.9046099  81.1874199   5.9716409  16.1252749
  13.5926676  14.7867477  47.9846334  13.8041484  14.7802770  47.0511103
  14.0631163  14.0336299  48.3420181  24.6572161  13.4674299  56.6729784
  25.1787949  14.2384374  56.8959951  23.8999104  13.8180029  56.2041283
   5.6372756  10.8319950  44.4665146   6.3966650  11.0742581  43.9365435
   6.0050225  10.3424072  45.2022457  66.7107582  80.7067204   2.5566044
  65.9697723  81.1976433   2.2014144  67.0851707  80.2568531   1.7991936
  31.1857319  43.6165524  61.5988302  30.8473635  43.1542015  60.8320379
  32.0540833  43.9186382  61.3324881  88.0453300   5.2907032  53.5347509
  87.9007626   5.8904058  52.8028488  87.1789837   5.1762813  53.9253664
  12.2755873  42.2644424  61.7677736  12.8174627  41.5413952  62.0836926
  11.5016556  41.8398142  61.3977003  29.8189497  33.1655574  62.5454664
  29.1620541  33.2545018  63.2359791  29.6836495  32.2838473  62.1983099
  26.8146443  28.7806845  60.9854984  26.7218828  29.7328711  61.0166216
  27.1284270  28.5994411  60.0995398  24.7063398  20.2170086  72.1692562
  23.8226414  20.4710960  72.4352455  24.9867105  20.9125447  71.5744019
  12.7748120  39.6842813  60.4406834  12.3476052  39.7667575  59.5880890
  13.0303991  38.7632871  60.4924250  58.9741802  60.3521585   5.1704478
  59.1097784  61.1432838   5.6919527  59.2833471  60.5862522   4.2953220
  81.1440468  65.1480150  59.7688532  81.4204693  64.4171953  60.3217745
  80.1913261  65.0672150  59.7237062  58.7816906  22.0369411  57.7743196
  59.5564175  22.5868225  57.6574230  59.0907669  21.1477304  57.6010895
  84.9621105   3.8365430   6.5814811  84.4666386   4.6334931   6.7701727
  85.4397678   4.0364474   5.7764256  19.3367171  40.6197119  72.0772219
  20.1374936  41.1379480  72.1573448  19.1207874  40.6550550  71.1453676
  41.4830303  77.6130629  16.2299585  41.9613791  76.9774342  16.7623067
  40.8300209  77.9809523  16.8253314  66.3044548  73.4571886  33.3152461
  65.6895304  74.1527224  33.0821633  66.7694807  73.7951756  34.0805864
  36.3758326  74.2343140  24.6904182  37.3251605  74.2592192  24.8103595
  36.2297392  74.6617651  23.8465142  62.5140858  76.8704844   9.3685716
  62.3273134  75.9685612   9.1080230  63.2745504  76.8004847   9.9456584
  53.0711937  42.7593946  74.1994858  53.0747938  41.8044567  74.2651367
  52.4128819  42.9510736  73.5315657  41.8303585  25.6702161  69.4994164
  41.0889530  25.7674360  68.9018393  42.0784044  24.7486830  69.4253969
   5.8032978  71.3618565  13.8955629   5.3344065  72.1927404  13.9730418
   6.7038071  71.5709734  14.1437256  67.7738571  21.7385244  67.3676300
  67.4302387  21.5477490  66.4948416  67.0660305  21.4918160  67.9629040
  65.4217434  64.1482544  19.5503199  66.0391140  64.6607399  20.0722861
  65.9699869  63.5222101  19.0773213  22.7523565  36.5500474  60.0479460
  22.7344441  35.7323289  59.5507050  23.2728434  37.1463394  59.5096493
  19.3070352   3.9110401   8.1556553  19.4312763   3.8021860   9.0984952
  18.9170682   4.7804099   8.0642545  31.4204168  28.4429884  46.9949198
  31.0761523  28.5249710  47.8842974  32.0946836  29.1198158  46.9357538
  67.8242683  57.0839834  23.8579106  68.0380011  56.2887955  24.3459916
  68.6012840  57.2543573  23.3255076  50.1892233  50.8897305  11.7116618
  51.0448027  50.7348919  12.1119666  50.2311611  50.4317665  10.8721721
  72.5814438  53.3255339   1.4697759  71.6254139  53.3669662   1.4470203
  72.7774286  52.6950216   2.1627979  35.2370238  56.1178780   9.4895059
  35.9899783  55.5725002   9.7172254  34.8830700  56.4015245  10.3324127
  51.6416218  30.6588741  75.1512676  51.4283134  29.7472854  74.9519349
  51.6038753  31.1042877  74.3048545  27.7065539  41.0174561  71.1852407
  27.7909184  41.1192703  72.1332645  28.3782792  40.3764915  70.9524727
  66.4961004  66.0775661  26.4876413  66.6438007  66.5912533  27.2817087
  67.3449183  66.0710430  26.0452604  39.1343284   8.3861190  72.3960161
  38.7499881   8.8576406  73.1350565  40.0699663   8.5813963  72.4477911
  48.7870836  22.2569799   1.7709073  48.2173586  22.9203439   2.1602580
  48.4849596  21.4306378   2.1478814  24.7653484  48.9097500  71.1318302
  25.6352329  49.0191650  70.7476902  24.1676950  49.2745304  70.4791594
  89.0297222  46.5820551  69.1425228  88.2129574  46.9912767  68.8567543
  88.8467789  45.6427145  69.1225004  46.2499857   2.4787830  68.5619402
  46.4637327   1.8219875  67.8992462  46.9809341   2.4431928  69.1789293
  14.9126995   5.7606757  25.3652906  14.3531239   5.3967500  24.6792388
  14.7745192   5.1850796  26.1175036  18.8163841  31.1773872  59.5455122
  18.5868752  30.3028059  59.2314005  19.5840788  31.0388446  60.1002026
  62.9048204  74.7591925  36.4737701  63.2807350  75.6394672  36.4677477
  62.2009706  74.8037529  37.1209502  76.4877653  77.9057646  67.7171993
  76.5842390  77.9474735  66.7657852  75.8306599  78.5713625  67.9207182
  66.3045549  35.9374595  10.6808627  66.1452818  36.4879251   9.9141484
  66.8572569  36.4732838  11.2497616  53.5395718  53.4201479   2.5688928
  53.1356478  54.1103172   3.0949560  54.3790674  53.7888098   2.2940019
  83.8742352   8.2770628  64.4073486  84.3675709   7.7527273  65.0381660
  84.3640709   9.0968531  64.3422461  80.5473900  57.1204138   1.5955094
  79.6094656  56.9602728   1.6998143  80.7736969  57.7002239   2.3227207
  86.3864708   2.6011229  40.6443739  86.5935421   3.4102705  40.1767921
  86.1512280   1.9797905  39.9552894  19.7455072  11.6101515  39.2240882
  20.1486301  12.4767578  39.2762089  20.2545309  11.1489081  38.5574698
  86.5260601  10.9158790  25.3576398  87.0202446  11.7068231  25.1421714
  86.0405064  10.7116687  24.5584083  21.5248609  26.3554692  16.9763589
  21.2007856  25.9915543  17.8002346  21.1111069  27.2164893  16.9156599
  53.9163876  64.0794373  15.7756615  53.7915134  63.9867973  14.8311746
  54.6005869  64.7431421  15.8628368  27.0536113  16.4235461  13.1501472
  27.0235133  17.3801899  13.1376183  27.9618359  16.2096727  12.9365635
  50.3686094  37.5007534   6.1302167  51.1095667  37.7469730   5.5765128
  49.7414351  37.1013808   5.5274010  12.3183155  40.2042007  54.0239143
  11.4115477  40.2292728  53.7183380  12.6735246  41.0618544  53.7904835
  42.8545094   5.0942236  54.0782738  43.4217119   5.6971002  53.5975933
  42.4482727   4.5550755  53.3996534  50.1406288  73.8679695  14.6468627
  50.3893995  74.7912025  14.6023011  50.9582853  73.3922672  14.5006323
   9.4962579  54.1122055  22.2550845   9.4812489  53.6250925  23.0789328
   8.8013005  54.7636557  22.3493218   2.8325462  75.3443861  20.4468417
   3.2462952  75.6824446  19.6526372   1.9355990  75.6765509  20.4096222
  58.2318544  67.6394367  16.3284910  58.3388710  67.6780224  15.3780758
  58.1723785  66.7045259  16.5250587  38.9232850   5.2764082  26.6327929
  39.3452072   6.0162956  27.0695782  39.6128082   4.6165287  26.5596485
  56.3509560  54.2475080   2.3539959  56.6694784  53.9638233   1.4970839
  56.9056845  54.9939299   2.5806296  10.9724474  71.4038324   1.5192647
  10.5782342  70.7337427   0.9608707  10.2375591  71.7655516   2.0145760
  58.6892891  74.5892668   2.5232655  59.0640879  74.4589949   3.3943513
  59.4424868  74.5686436   1.9329216   8.9608252   1.0628636  30.6547856
   8.2218820   1.4786896  30.2106214   9.3398827   0.4812359  29.9958062
  31.5201426  40.6803274  66.5031481  31.3695645  41.0911798  65.6518173
  32.4597335  40.7817411  66.6551971  28.5153556  47.9827070  57.0981979
  28.1432939  48.7067270  57.6017857  29.3898940  48.2854795  56.8537712
  27.2357869  72.7523279   0.7902163  26.5773368  72.0591497   0.7435176
  27.5360227  72.7366495   1.6989757   4.0249565  82.3849010  32.7025604
   3.4553459  83.0853176  32.3844433   4.6957088  82.2955799  32.0255470
  14.0900397  80.5140305  70.6279087  14.4369626  81.3752747  70.3952408
  14.3274224  80.4008579  71.5482759  54.6806765  69.7537708   5.1683837
  54.5961857  70.4602051   4.5280421  54.7845459  68.9625359   4.6398041
  25.6526685  75.8114433  32.8489566  25.1280499  75.9219980  32.0560002
  26.2621021  76.5494776  32.8377748  59.9616337  34.2123818  14.4627321
  60.7681131  34.6098828  14.7910857  60.2154398  33.3222961  14.2186761
  57.8001690  74.3685341  65.2921915  57.4176931  73.9621592  66.0698843
  58.1089544  75.2223206  65.5953979  20.4576111  85.7293701  16.5789199
  19.9718320  85.7744408  15.7553792  20.1358628  86.4735126  17.0878136
  28.9442134  34.1854644  66.9026041  29.8113394  33.7802577  66.8910885
  28.6307645  34.1060805  66.0016727  68.0880308  86.0218525   1.9663134
  68.9732218  86.1586761   1.6287431  67.9285765  85.0854969   1.8478101
   0.7487559  85.7484436  24.2514420   0.4747958  86.5534401  23.8119531
   1.7047544  85.7642937  24.2061973   8.4702593  61.8673325  58.8070679
   7.8658247  61.3161325  59.3041277   8.8067126  61.2935734  58.1187153
  26.6651726   7.5008047  24.3209815  27.2246051   8.2752717  24.2620873
  25.8685827   7.8128397  24.7502995  38.8311791  18.4824407  30.0365806
  39.1661692  18.1343639  30.8629322  39.1427350  17.8665185  29.3734026
  86.9473839  67.3217154  19.1928506  86.4347363  68.1149054  19.0370655
  87.6987267  67.6190662  19.7059774   8.9301842   8.3332276  12.8496873
   8.9819533   8.0771470  11.9288325   9.1115856   9.2730790  12.8474867
   6.9736224  85.6768036  19.8567069   6.4886421  86.1815929  20.5095577
   6.9659978  86.2276649  19.0739405  55.7187319   5.1274139   9.3756503
  55.9435415   4.2970425   9.7953814  55.6198549   4.9083945   8.4491056
  58.1083059  83.5407257  11.7498279  58.7532520  83.1956005  12.3672128
  57.8441620  82.7815819  11.2300587  80.3087234  59.5813942  49.8230553
  79.6419287  58.9416695  49.5733118  79.8387146  60.2206469  50.3584766
  57.7617598  49.4404554  34.3582845  57.7840281  50.1103830  33.6749601
  57.7966166  49.9333000  35.1781130  66.3642597  64.3731785  55.4998255
  65.8991194  65.1781034  55.7278109  66.4651871  64.4160128  54.5489216
  80.8700275   7.2327536   5.5936116  80.9282207   8.0548197   6.0804915
  79.9391747   7.0102698   5.6096423  49.1961765  67.0215893   8.5214585
  49.1526127  67.6646805   7.8138131  49.1069937  67.5394297   9.3215317
   8.9669603  80.6493664  17.5532663   8.2403386  80.5062485  18.1597066
   9.0351725  79.8297644  17.0635366  66.6934490  83.9123249  24.8510170
  67.5941324  83.9163303  24.5269990  66.1696911  83.6352730  24.0992498
   1.5841986  22.8214264  35.1101661   1.3183551  22.2223854  34.4125199
   1.8048306  23.6347938  34.6563077  60.9238672  68.7432528  44.8330212
  61.7682076  68.4979486  45.2113628  60.8072996  69.6602011  45.0817251
  22.4739385  60.4902983  20.4655194  23.0187488  60.8944225  19.7901726
  22.3172522  59.6014547  20.1467085  22.4378920  19.8207736  60.7439089
  23.3243084  19.5783913  60.4760504  22.0716333  19.0177631  61.1143970
  48.5048294  68.4212065  13.8627148  49.4545364  68.3020449  13.8535821
  48.3060360  68.6920834  14.7590065  83.2008839  84.7309780  15.9505153
  82.9220581  83.8639259  16.2449932  84.1249371  84.7812939  16.1950946
  58.8953543  78.8977432  13.4194040  58.6881161  78.1691265  14.0045524
  58.0537891  79.1429138  13.0348337  87.3877048  83.5474396  10.8251405
  86.5271950  83.9229298  11.0115802  87.5598431  82.9643059  11.5644395
  24.4952512  20.3933525  36.7705965  24.1870952  21.1874390  36.3339043
  25.4376936  20.5263186  36.8723345   8.1479669  77.4328423  10.2129245
   7.7040237  76.6833591   9.8161638   9.0339136  77.4052477   9.8515815
  14.3029368  19.5257485   3.2977232  14.1422999  19.1543508   2.4302608
  13.8717282  20.3800464   3.2761025  31.0781670   3.3170614  38.9439678
  31.3900614   3.0729783  39.8153901  31.7901778   3.8374051  38.5717893
  83.9441490  37.2551179  16.7847490  84.7939491  37.6954699  16.7973328
  84.0446186  36.5231943  17.3933744  67.9028368  54.0513849  65.1206350
  68.4413528  54.1217947  65.9088469  68.4944487  54.2834902  64.4048452
  83.7032032  53.2102489  11.5796769  84.6214581  52.9781246  11.7180753
  83.5939217  53.1986904  10.6288052  71.8713856  63.1797600   3.5646620
  70.9955406  62.7942514   3.5420465  72.3865509  62.5728607   4.0961727
  86.6866970  17.8852773  12.9923594  86.1614323  18.4982467  13.5067511
  87.5603008  18.2760167  12.9731143  64.9013567  78.1295061  13.3327115
  64.0022326  78.0704832  13.0097246  65.4442167  77.9955244  12.5558066
  73.8030148  85.4966927  14.3758309  73.8286543  85.1547432  13.4821618
  74.3762207  84.9125957  14.8723125   7.6230395  16.0149729  18.4675658
   8.0139685  15.1470757  18.3667684   6.9253212  16.0409021  17.8127766
  73.6358643  65.6678915   2.9455587  74.1343498  65.5977392   2.1314201
  72.9488468  65.0064516   2.8635001  38.8300109  10.7550740  11.8955541
  38.8091183  10.9467626  12.8331316  38.5875702  11.5809536  11.4767742
  89.8226547  37.2325778  18.4253025  88.9236069  37.4300098  18.6879206
  90.2815628  38.0697894  18.4939408  30.7909131  67.6565504  61.2400579
  30.4888749  67.4360847  60.3589249  31.3489580  68.4244251  61.1168289
  41.4490795  56.5512609  53.9444304  40.6322861  56.3419056  53.4913778
  41.1779928  57.0800400  54.6948528  47.8550529  32.8636622   7.1550816
  47.5253868  32.0521688   7.5411248  47.6270771  33.5414767   7.7913392
  10.9389544  14.5271742  22.8237939  10.0113952  14.3418884  22.9705405
  11.3315928  13.6696136  22.6605248  24.9160887  86.4097695   0.6207619
  24.7869135  85.5187992   0.2956258  24.5885301  86.9710449  -0.0820245
   9.7009194  30.2330208   8.4560734  10.0002539  30.8479500   9.1257703
   9.6144098  30.7643080   7.6645672   1.2555678   7.2326702  57.6832962
   1.6977055   6.4135003  57.4603415   1.8269426   7.6445180  58.3314800
  23.7386823   1.2943752  50.9433126  23.2638478   1.7319155  50.2366877
  23.5825372   0.3616892  50.7951689  53.4108639  74.4950199  14.5198536
  54.2749643  74.6305847  14.1310263  53.2651758  75.2736616  15.0571799
  12.6189220  17.6982260  41.3398790  12.2977519  17.2482789  40.5584478
  12.4035347  18.6190152  41.1915970  38.8736510  20.9531665   4.7205546
  38.9968419  21.7795491   4.2534897  38.7850738  21.2080121   5.6389445
  72.2310543  66.3014603  15.4312408  73.0053425  66.2791348  15.9935677
  72.5804138  66.4111137  14.5468462  15.5132449  12.9546571  15.2315772
  15.5825305  13.7409723  14.6901524  14.8017669  13.1464517  15.8425152
  34.8729038  16.5446699  20.2626991  35.5437684  15.9207892  19.9853110
  34.1951466  16.4826083  19.5896268  72.4558878  34.6267247  12.7123213
  73.2567167  34.2341423  12.3647892  72.4489307  34.3782330  13.6366785
  69.5565844  84.3079758   5.8468926  68.6074257  84.1983509   5.7893747
  69.6860170  85.2553463   5.8912027   9.8843958  85.9998546  14.8986614
   9.3670012  85.2862309  15.2718568  10.7604982  85.8770662  15.2641702
   7.6872617  66.4557886  36.1659217   7.1818769  65.6829357  35.9139037
   7.3404723  67.1584654  35.6161809  74.2082405  55.5813360  31.3589001
  73.8092756  54.7751141  31.6861033  74.4108438  56.0853148  32.1470547
  31.2798691  22.6181865  70.8361387  30.7937717  22.1763301  70.1399279
  31.9222140  21.9711375  71.1276007  14.6081519  22.0149946  15.1738811
  13.9469945  22.5530910  15.6092608  14.1397691  21.2203622  14.9181366
  25.4062867  69.8649073  55.5373192  26.1337614  69.8274279  54.9163437
  24.9268723  70.6577826  55.2970219  13.3003199   1.9809005  19.5965481
  12.5367427   2.4397814  19.2463899  13.6790693   1.5339178  18.8395882
  35.5473137  83.8014126  32.2984338  35.2429342  82.9671860  31.9411469
  35.3871226  84.4344330  31.5985370  89.6825123  31.1251855   8.6587346
  89.4409847  32.0399094   8.8042557  89.2543983  30.6483912   9.3698025
  25.5267668  37.9840779  59.0975904  25.3918695  37.1621656  58.6258984
  25.2059889  38.6589718  58.4993839  73.4969568  72.2280502  54.0333843
  73.3517790  72.7246523  53.2280636  74.3137312  72.5796366  54.3876314
  66.9632864  70.8580732  43.4418964  67.1720362  70.7809448  44.3728685
  66.3145208  70.1721525  43.2842779  87.8798866  13.1791341  13.4173930
  86.9666290  13.4489560  13.5143149  88.2353592  13.7708378  12.7542531
  84.8133659  55.7875490  11.6525435  84.9324703  55.7149935  10.7055569
  84.4127274  54.9565840  11.9079149  65.5153954   1.8953930   0.3955470
  64.9426052   2.2975384   1.0485612  66.3789734   2.2686087   0.5721198
  68.1858683  18.9384663  74.1004944  67.5601625  19.6601546  74.1628790
  69.0281343  19.3647373  73.9420319   9.9282342  32.3082304  46.3792372
   9.7094512  32.0099235  45.4964161   9.1352403  32.1461153  46.8902302
  36.2901139  27.5108290  17.2211123  36.8527651  28.1580329  16.7959273
  36.7828965  26.6920662  17.1661210  16.1002970  62.2558022  -0.1892045
  16.2667549  62.9900837   0.4018585  16.5596545  61.5174294   0.2108338
  91.7054939   8.9199579   4.6337542  90.9639835   9.1240442   5.2036071
  91.4445305   8.1193644   4.1785842  55.3826284  63.5659695  26.1928678
  55.8355618  62.7303648  26.3062429  55.6851768  63.8891792  25.3442049
  70.6269455  63.9519262  20.4538846  70.1336575  64.2643309  21.2123728
  70.8311653  63.0397940  20.6601262  18.3034503  64.5169783  20.8266759
  19.1013372  64.9422646  21.1409044  17.7870119  64.3623877  21.6176414
  87.5424862  71.0300064  20.1722217  88.3630753  70.6973267  19.8086476
  87.8141499  71.6658592  20.8341265  56.1978626  17.5165462  22.5493193
  56.4333200  16.6175997  22.7788568  56.6829491  18.0577016  23.1722713
  39.9609065  37.7071929  69.7964907  39.3509459  36.9923329  69.6144009
  40.7111216  37.2819543  70.2119160  29.7830679  85.4814189  27.2039676
  30.6435158  85.6755162  27.5757003  29.7722294  85.9484130  26.3684845
  65.7004023  24.9764562  66.3227892  65.5147505  25.9154773  66.3209534
  65.6458187  24.7233129  67.2442913  30.8579755  36.4876413   5.5996579
  30.5487156  36.9353366   6.3871598  30.5689573  37.0457816   4.8777303
  70.4105997  84.4851112  31.8356872  71.2869453  84.8666000  31.8878555
  70.1751232  84.3007374  32.7449656  90.0461483  25.8474040  15.8974564
  90.7470703  26.2289858  15.3689408  89.6153831  26.5997839  16.3031602
  15.6462467  71.6674042  70.4942036  15.6203938  70.7706547  70.8279753
  15.1512921  72.1763134  71.1362839  90.4468250  71.5738344   9.5118588
  90.7161427  72.3908424   9.0921068  89.9564075  71.8522501  10.2852941
   1.6625197  17.9343665  68.9966154   2.1720073  17.3358941  68.4502792
   0.8114802  17.9897070  68.5619879  62.2321129  60.7986498  25.3429794
  62.4745417  61.4384270  24.6735406  61.7278528  60.1365805  24.8700976
  80.4916954  66.7661667  27.9625463  79.8780918  67.4187660  28.2999444
  81.1173630  66.6348219  28.6749554  51.8758965  55.4177141  22.2104454
  52.4435806  55.2296877  22.9578495  51.0375118  55.6625748  22.6020885
  89.2543411  81.4743233  36.3878465  88.5077858  80.8839035  36.4893055
  88.9684772  82.2935581  36.7920375  56.3979864  76.2753868   0.1375534
  57.0766306  76.2457371   0.8119389  56.8670654  76.1159277  -0.6814523
   3.6910653  17.4402404  21.9583511   4.2716491  16.8962026  21.4262080
   3.8995299  18.3377552  21.6990399  33.6930108  72.7680254  17.2060394
  32.9886413  73.3410931  16.9032383  34.4960380  73.2480431  17.0036483
   8.1781250  19.1768527  35.4502583   7.7557665  19.9817252  35.1502156
   8.6787069  19.4422913  36.2217450  79.8095226  62.4018288  38.3520842
  80.0476837  62.2667789  37.4348736  79.0190935  62.9405832  38.3174729
  54.4284201  28.1817102  10.1295924  53.9179277  28.3586264  10.9197378
  54.4413424  29.0162349   9.6609414  48.0778170  13.1019521  29.8666811
  48.5916376  13.9024794  29.7599983  48.7103271  12.3935986  29.7466660
  69.3184710  85.3947735  12.9649389  69.5395327  86.3082886  13.1462181
  69.6092272  85.2521992  12.0641816  13.3554804  27.2875571  50.6906366
  14.2897499  27.0882583  50.7510614  13.0254591  26.6879487  50.0214672
  38.5903835  20.5541182  72.2787380  38.4555340  21.3109589  71.7084408
  38.1096387  20.7680559  73.0783319  17.8327560   6.4076352  35.4827142
  17.0890272   5.9400171  35.8627558  18.4521115   6.5010983  36.2065220
  81.3196278  18.1615138  15.4883814  80.7440186  18.0877995  16.2496161
  81.9826603  18.8002324  15.7504106  80.4895878  31.6796041  37.7928996
  81.1181927  32.3848367  37.9469466  79.6911335  31.9698977  38.2338500
  58.4575748  80.4606056  21.3194537  57.5410175  80.4806900  21.0442185
  58.4312582  80.6623936  22.2547722  82.9813576  67.0830870   9.3497217
  83.1601906  67.8193140   9.9347192  83.7949181  66.9633245   8.8598281
  75.0739288  13.7454164   4.3795654  75.2420568  14.6679246   4.1873577
  74.1206074  13.6645234   4.3502182   2.1352150  50.9524107  14.1458535
   2.1516033  50.1213741  14.6205533   1.2545502  51.2963486  14.2954147
  32.1225977  77.7764034  16.8645763  32.6720858  77.3044348  17.4903059
  32.5814033  78.6038446  16.7193985  90.7471752  68.4564877  61.5338659
  90.4314232  68.2414627  62.4115324  91.4619350  69.0757942  61.6815233
  20.1070809  13.1839776   9.0817404  19.1561520  13.1038356   9.0072894
  20.4452538  12.3619115   8.7266630  57.0630646  65.9533167  27.4320531
  56.4602757  65.2972651  27.0820880  56.9182253  66.7266607  26.8868995
  28.2101512  14.0935779  43.7423229  28.8300514  14.4853270  44.3575382
  27.5302601  14.7581863  43.6315393   2.2986487   5.8594096   0.5206739
   3.2199460   5.7001209   0.3155643   1.8170977   5.3950095  -0.1639232
  76.3497877  28.3624601  24.3867302  75.4347420  28.0997205  24.4861865
  76.7810726  27.5926089  24.0158486  17.5828719  61.8772840  69.2442322
  17.6180911  61.0959005  68.6924791  17.0727706  62.5072098  68.7350941
  73.2684946  68.5297918   2.4609262  73.0113602  68.9673710   1.6493617
  73.3181143  67.6027298   2.2278434   4.0838853  67.9771233  29.5188713
   4.5138484  68.7864494  29.2425466   3.5376310  67.7293634  28.7729120
  52.3228407  52.3588991  69.7956085  51.5068293  52.6711893  70.1865387
  52.1721888  51.4266205  69.6394300  75.7769108  72.3525572   3.3691609
  75.7489777  72.8205156   4.2037088  75.0986099  72.7695847   2.8379065
  22.8065753   8.8549316   8.3907187  22.5869751   8.5836822   9.2820275
  23.7356257   8.6439002   8.2981771  53.8971424  69.5355225  59.4014835
  54.6556377  69.1056967  59.0063000  53.3425140  68.8150549  59.7007275
  66.2315607  54.6616554  70.5063391  67.0933104  54.7496605  70.0990725
  66.3238955  53.9199972  71.1043787  12.0966089  59.8614264   8.8887852
  11.5108299  59.9327946   9.6424437  12.9025149  59.4886684   9.2462754
  40.0406599  67.9800177  67.9357767  39.4761515  67.7791405  68.6822414
  39.8797297  68.9063501  67.7562284  46.0865974  42.1848059  28.2890773
  46.9563627  41.8608713  28.5231948  45.7049179  42.4681902  29.1198874
  22.6081181  83.8712502  10.3198230  22.6244521  84.4598770   9.5651835
  23.0186868  83.0661201  10.0044966  10.2308285  61.3778257  22.8812647
  10.9900117  61.1926317  22.3284721  10.5637097  61.3093567  23.7761021
  53.5154772  60.3397369  67.6373005  53.1704855  61.2264442  67.5326204
  54.3453503  60.4586029  68.0992699  81.0330391  85.7176971   1.8564247
  80.7415867  84.8925591   1.4685710  81.9537449  85.5690479   2.0719111
  73.0630159  73.8896894   4.5903161  73.6948538  74.3804693   5.1158112
  73.1442404  74.2593622   3.7111256   3.8573685   6.3357729   4.9822608
   4.2906949   5.7040823   5.5562180   3.9756283   7.1783251   5.4208410
  52.6337337  25.9759021  71.9995642  51.9950581  25.5293107  72.5553370
  52.8002739  25.3614855  71.2847281  15.7661176  70.7822323  30.0941014
  15.0626945  70.4312706  29.5479751  16.3482833  70.0371265  30.2428842
  73.8189793  51.1274099   6.9104528  73.9173269  52.0445251   6.6545963
  73.6627245  51.1575127   7.8543341  86.6410160  77.6153564  13.9651287
  87.3804379  78.0754471  14.3623686  86.3391304  77.0142508  14.6461356
  21.2558341  39.3039131  51.8913412  20.9781146  40.2007866  51.7049885
  22.1901917  39.3779731  52.0855618  71.4799976  22.7114439  66.4615202
  71.8846560  23.3506465  67.0479536  72.2086668  22.3623395  65.9482956
  60.6440735  38.4809995  18.6458170  61.3620377  38.5398173  19.2761326
  59.8632526  38.7094188  19.1501760  86.5861893  58.9477587  51.7968273
  86.1947632  59.7825670  51.5397215  86.2859821  58.3276987  51.1322737
  37.4036312  54.5883274  61.0864496  37.5077105  55.0082874  61.9402790
  36.5073204  54.7980738  60.8240271  25.6781292  26.4116454  46.8276405
  25.0363588  26.5258431  47.5285816  26.2375379  25.6959224  47.1293545
  50.1070976  65.7132673  23.2292295  49.7189093  66.5174913  23.5738492
  49.4652224  65.3890944  22.5974560  38.2816362  14.6791887  71.0894060
  38.3694696  15.4936397  70.5942440  38.1537414  14.9619973  71.9948864
  55.7552528   9.4102377  71.6235399  55.4072475  10.0553370  71.0079336
  56.4409065   8.9567685  71.1331558  42.3302841  43.0798626   2.3468000
  43.0232430  43.5983753   1.9379158  41.9613028  42.5649500   1.6291983
  87.8338528  74.2734432  26.3832235  87.9279137  73.3488846  26.1539316
  88.6978149  74.6505213  26.2170529  74.3753147  57.8903055  12.6051223
  75.0677395  58.2996035  12.0862174  74.2016220  58.5158110  13.3085454
  61.0028124  33.7605286  23.4664345  60.7633543  34.4973111  22.9042578
  61.8555975  33.4758377  23.1378889  31.4154172  72.1109533  11.2873793
  31.9394636  71.3136673  11.3644516  32.0594573  72.8125429  11.1913884
  55.0678301  77.9895067  19.9337256  54.2298079  78.2022333  19.5230043
  55.5721617  78.8015127  19.8834682  49.1142941  63.0154514  64.6639395
  48.6526251  63.4544754  65.3783321  49.8305702  63.6098480  64.4406271
  82.0186806  68.6502457   4.6017659  81.9026375  68.7194633   5.5493808
  82.9510498  68.4662580   4.4874480  82.6923752  74.2935658  44.7722244
  82.4815464  75.2257776  44.7197151  82.7758026  74.0151310  43.8602257
  56.6320467  65.4414606   7.7228951  56.7649460  64.9366474   6.9205672
  55.6982803  65.3491259   7.9120630  37.0061231  33.5134506   5.2726382
  36.7598844  34.3754220   5.6082058  37.8932381  33.3721900   5.6032515
   8.9985454  19.1466200  22.2156596   8.4151918  18.9348197  21.4869142
   8.9263374  18.3966327  22.8060317  55.2213430  63.7022591  56.6083336
  54.4555998  63.2900620  56.2083769  55.0504160  64.6416378  56.5406704
  10.1247180  75.9843016  20.1657414   9.3540770  76.3508797  20.5992913
   9.9022323  75.9922028  19.2347908  12.6908684   4.1460976   9.9822247
  12.2551632   4.1403428  10.8344924  13.1996214   4.9568933   9.9787879
  14.1499352   4.6964568  22.7660227  14.5606732   4.7587129  21.9036698
  14.4960594   3.8853282  23.1381774  84.4925308  26.6786861  28.2533026
  84.4153214  25.7415676  28.4324169  84.8334599  26.7245102  27.3600483
  78.6481285  83.1684494   2.8386447  77.9083300  83.7549019   2.6805115
  79.0759134  83.0873108   1.9862086  86.2817383  79.6457577  24.7975111
  86.5049267  80.1199245  25.5984998  86.5337753  80.2390099  24.0898657
  78.3207560  75.3346872  10.0051808  78.9410496  75.9090853  10.4541135
  77.7909374  74.9584150  10.7079887  85.8403587  58.6810207  23.2767510
  86.3715458  59.0494251  22.5708103  84.9775696  58.5494757  22.8836536
  31.6691184   3.1142664  26.4707255  31.0115576   3.5640687  25.9401369
  31.3304782   2.2242710  26.5680027  58.6187649  30.0234222  48.8871813
  59.2509890  29.6756172  49.5161104  57.7647352  29.8152089  49.2660141
   8.2094091  63.0254507  23.5215139   8.9749992  62.5267982  23.2361245
   7.6208270  63.0135155  22.7667546  27.6233649   4.9191558  12.8778017
  26.8026710   4.9941751  12.3909092  27.8742290   4.0001661  12.7842200
  14.1270208  16.4716268  35.0516987  13.7288141  15.6295359  35.2720332
  15.0691020  16.3158226  35.1183319   5.6217426  70.2195930  66.5116358
   5.7587308  70.0611305  67.4456358   5.9231043  69.4170427  66.0858154
  50.3587294   4.5696750  22.0195198  51.0522890   3.9127639  21.9588709
  50.2863550   4.7558314  22.9556513  20.3271079  48.8344526  54.0076733
  20.3427124  47.8902292  54.1639757  21.2158060  49.0444374  53.7206984
  52.8219461  31.1395812  70.0574493  52.5672865  30.9763193  69.1493082
  53.4242868  31.8818283  70.0075531  13.2922792  28.8610816  23.6314178
  12.3877299  29.1378617  23.7777519  13.2563186  28.3389926  22.8299403
  63.9380074  85.0064850  53.0744410  63.0714512  84.8267651  52.7097225
  64.5164204  85.0394821  52.3124838  56.2013245  62.7269030  43.2173681
  56.7303324  61.9764900  42.9466963  56.2943602  63.3560371  42.5019932
  61.2529325  76.7009020  51.2183523  61.5962267  76.4706898  52.0817089
  60.3245449  76.4717197  51.2608480  44.1240072  59.1917658  64.7544718
  44.9032402  59.0709496  65.2970886  44.1420841  60.1176119  64.5121574
   8.8525724  73.1136799  18.4309649   8.3327019  72.7945662  17.6933098
   8.4413898  72.7214384  19.2012310  32.4816298  75.0711346  49.1485167
  31.7532015  75.0251436  49.7677946  32.1444917  74.6622753  48.3513927
  35.4080153  31.6031599  73.1645966  35.9277606  31.1456990  72.5036669
  34.8338199  30.9284449  73.5269356  21.6091847  16.5093327  58.9349270
  21.3827968  17.1328461  58.2448435  21.3308287  15.6603706  58.5913992
  16.3297009  78.8313913   2.8913310  16.2877154  78.2291126   3.6341187
  15.8457458  79.6043634   3.1820765  19.6038711  50.5726242  68.4153461
  20.3035212  50.1050282  67.9591894  19.1922784  51.1084795  67.7373457
  10.8823073  62.1536350  56.0074091  11.3941860  62.7377796  56.5668631
  10.8671200  62.5901842  55.1556921  55.4443216  10.5344379  35.8737731
  56.2037992  10.7875741  35.3490353  55.0230169  11.3634074  36.1007977
  28.8700294  27.2582173  59.1041183  29.5524430  27.8871894  59.3385029
  29.2486501  26.7503405  58.3865261  38.2838392  64.6441793  70.0261831
  38.0479288  63.7402582  70.2347660  38.2562566  64.6844149  69.0702248
  11.4699721  24.8354006  23.4771991  11.8229020  24.3367267  24.2140841
  11.2748563  24.1748381  22.8125048  28.5632944  45.6424618   1.8558645
  28.0062151  44.9601793   2.2305454  28.2397532  46.4555979   2.2436365
  31.1152911   5.3009260  34.7922373  30.3249931   5.1316929  35.3050947
  30.8017445   5.7619488  34.0141749  12.7077866  10.8865654   4.2081568
  12.1973252  10.7232428   5.0012445  12.1031606  11.3444722   3.6242211
  24.6604037  13.4029484  24.4554210  25.3752899  12.7940035  24.6407723
  23.9458084  13.1131279  25.0225115   1.8900754  15.2609134   2.7275810
   2.7339226  15.2782118   3.1790841   1.7316842  16.1721253   2.4809268
  78.1070137   2.2122379  49.8147917  78.6577463   2.7062702  50.4221296
  78.2679939   1.2952659  50.0372314  37.4740887  38.2243133  15.1467586
  37.3470879  37.7442789  15.9650934  37.6569700  37.5457120  14.4969213
  61.9753313  53.4044695  74.0320444  62.8486872  53.6680841  73.7422323
  62.0293713  52.4528885  74.1203928  17.2080517   6.8540835  14.0424812
  17.7118492   6.3694996  14.6963906  16.7944121   6.1761212  13.5081565
  13.2526541  15.3206754   2.4106556  13.5565400  16.1091506   2.8603119
  12.3137760  15.4614365   2.2884822  58.0808973  63.6102819  64.3133831
  58.3719158  63.8250732  65.1996136  58.1468725  62.6566267  64.2641640
  33.0391502  64.8254156  59.2259550  33.2581425  65.7567787  59.2549419
  33.4784985  64.4521761  59.9900866  30.1973820  23.1353664  41.5154028
  30.7135868  23.7498188  42.0371437  30.6153488  22.2867823  41.6618299
  70.6219673  18.2600486  15.7207930  71.4051056  17.8905547  16.1287129
  70.2058172  18.7676561  16.4174914   1.4241022  65.7987261   8.1573850
   1.2032230  65.3245592   7.3557526   0.6570465  66.3439655   8.3322203
   6.5882111  74.2777920  34.8053932   6.8287432  75.1506519  34.4947577
   6.8643624  74.2651749  35.7218075   9.8533654  21.2960482   0.5758437
   9.4316012  21.4700413  -0.2656272   9.5067358  21.9693732   1.1612597
  61.7607594  18.6026311  67.2454262  60.8368731  18.6054075  66.9951010
  61.7500353  18.5339999  68.2001019  42.3186541  83.8149452  11.8206716
  41.4114618  83.5157299  11.8815541  42.3305511  84.3892956  11.0550272
  50.7648563   2.4126416   4.2178351  50.1591492   2.6338923   3.5104454
  51.1122036   1.5541027   3.9759848   1.8900096  77.2815561  64.8599672
   2.5287625  77.8064728  65.3423500   2.1650091  76.3763475  65.0055790
  39.3398237  72.1413946  57.4081469  39.9039507  71.4937162  56.9856453
  39.9281311  72.8631973  57.6297951  28.4786701  63.0948305  69.3487692
  28.0997777  63.9705181  69.2722845  29.2631936  63.1246424  68.8011694
  16.2100255  22.4286866  11.9125879  16.5045309  21.5522623  12.1603394
  16.5608656  23.0010438  12.5949001  88.5069942   7.5669092  69.1512489
  87.7045441   7.2798574  69.5870399  88.6647511   6.9040132  68.4790039
  22.3717093  55.6915092  66.0398960  21.7492032  56.3139677  66.4157438
  22.0033622  54.8318243  66.2435913  31.7177582  77.7880526  14.1382682
  30.8496499  78.1299210  13.9243829  31.7384315  77.7685356  15.0950456
  36.0886383  83.2452106  69.7248888  36.0510492  82.3175335  69.4920015
  35.4912400  83.6709213  69.1099739  51.1916733  81.8449211  64.1047239
  51.9349623  81.8957520  63.5037518  50.8868694  82.7486706  64.1856718
  28.7622333  33.5137105  69.8182583  28.0709839  34.1350961  70.0469208
  28.7832189  33.5202551  68.8613081  72.3125410   9.9545807  71.9779873
  72.1821165  10.5739319  71.2599182  72.0707035  10.4446268  72.7638626
  41.3716125  78.6949873  42.7777481  41.2712145  79.3129444  43.5018206
  41.1215115  79.1942835  42.0003271  41.7940760  48.6354399  70.3033829
  41.2094402  49.3414640  70.0277662  42.6692533  49.0214682  70.2676201
  19.6363723  16.8352759  21.4663696  19.0674078  16.2700546  21.9888997
  19.0340340  17.4051642  20.9881997  38.5137010  52.5833035   9.3893600
  38.8774967  53.0812025  10.1214683  37.6066041  52.8818417   9.3239278
  90.7106304  67.6786804   8.1867671  90.1563358  67.6004362   8.9632094
  90.2468491  67.1847391   7.5106287  42.2082281  47.3562431   4.1134837
  42.5522852  47.5228977   4.9910274  41.8750620  46.4597702   4.1531029
  15.2967227  29.8391581   7.8254718  14.5002747  29.4323349   8.1666410
  15.8862519  29.1047907   7.6540345  51.0531092  48.7309933  71.8080616
  51.2989521  49.5988512  72.1284056  50.8588934  48.2295465  72.5999308
  62.2344486  39.3975683  74.2372970  61.3256115  39.4761511  73.9473448
  62.1713874  39.1021391  75.1455788   3.7804455   1.8647526   4.2258134
   3.4570381   1.5745412   3.3729261   2.9897121   2.0057866   4.7464684
  68.7915945  50.6059408  10.1888049  68.7850809  51.3130856  10.8338881
  67.8833437  50.3058720  10.1531732  77.2878838  83.3795166  22.5508046
  77.6994276  83.3854294  21.6866136  76.5694809  82.7521706  22.4696875
  23.1253314   5.9416759   5.7364863  22.3954129   6.5234411   5.5243587
  22.7796316   5.3610581   6.4144289  53.4534693  37.4246144   8.3334100
  53.4479856  37.7233243   9.2427915  52.9169703  36.6319156   8.3384502
  66.7339087  37.8586006  74.6643543  65.9030008  37.7726817  74.1969776
  66.4843225  38.1213164  75.5503082  50.2783155  66.0499668  72.8473997
  50.0279570  66.4729834  72.0260525  49.6966314  65.2926922  72.9138136
  28.8040519   1.9231369  16.5863907  29.1837430   2.4477760  15.8815360
  29.5410681   1.4221902  16.9358015  79.9398373  80.5910424   0.7243596
  80.4291294  80.5339626  -0.0963487  80.3879927  79.9837999   1.3131247
  58.3548498  72.9853868  52.8807163  59.0583181  72.5973034  52.3603725
  58.4460688  73.9280176  52.7415943  40.7614851  68.9398623  64.0695953
  39.9172807  69.3818998  64.1598845  40.6802034  68.4307098  63.2631254
  85.6685543  67.9142952  25.5252099  85.4548740  68.7949133  25.8335710
  86.4710617  67.6846409  25.9936881  37.8914738   4.9678707  12.8327143
  38.7035131   4.6965387  13.2607388  38.1729746   5.3298581  11.9925034
  31.2932873  30.9078479  66.8744659  32.1614695  30.9310365  66.4720345
  31.1834788  31.7782092  67.2574139  44.9875212  51.8909359  59.1430712
  45.0143385  51.1645937  58.5202217  45.9035921  52.1454620  59.2537785
  89.6602058  33.3828354  68.7383270  88.8528919  33.0914855  68.3145475
  89.4623280  34.2663789  69.0488482  15.1387811   0.2728565  61.2516928
  14.7798145   0.7530980  61.9978476  16.0238206   0.0318838  61.5253162
  55.0160837  65.0275135  64.6239710  55.9035444  64.7223520  64.4355059
  54.4480467  64.3336535  64.2891169  83.6364361  41.9449936   0.2198945
  82.8613898  42.3425900  -0.1769151  83.5138914  41.0040318   0.0941811
  14.2714310  29.1230130   0.4400419  14.0570998  29.7530389   1.1280552
  14.9942291  28.6101365   0.8016377  82.4225616   7.7523160  21.1084700
  82.1500683   7.2777230  20.3231406  81.9059563   8.5579902  21.0927606
  67.3824406  62.9939985   6.8758088  66.9616270  62.4251842   6.2311387
  66.9841528  62.7460861   7.7101582   7.5448930  37.0683861  14.1650927
   6.5943193  37.1621180  14.2271936   7.7239150  37.0609689  13.2248116
  16.8934488  67.1446896   8.1236565  16.2995493  66.8132353   7.4501193
  16.8923223  68.0936146   7.9980582  80.0083637  11.6406059  65.9929371
  80.3264332  10.8312702  66.3929892  80.6172848  12.3135698  66.2971878
  22.2082114  12.6068997  34.8143721  21.3884139  12.7736115  35.2795315
  22.2138214  11.6605818  34.6705556  46.8858027  35.1849877   1.2140523
  46.9371819  36.1352717   1.1113082  46.9660257  34.8431193   0.3235875
  87.1315098  81.7000389  21.7947006  86.7997169  82.5652409  21.5547395
  87.6092243  81.8447685  22.6114392  37.7617931  59.0991545  64.1679955
  37.9666567  58.3100891  64.6696377  37.6017141  59.7700739  64.8316765
  81.4246845  61.6104555  25.9915066  81.9723892  62.3742151  25.8100510
  81.8611813  60.8894634  25.5377793   0.7678340   8.8172483  55.3536749
   0.7486594   8.2028943  56.0874557   0.4424861   8.3112764  54.6091127
  84.6648884  44.6946716  73.7217903  83.7489605  44.5593786  73.4788656
  84.6527386  45.4741430  74.2772293   6.2020952  13.0296290  21.1717415
   6.5651512  12.7503037  20.3312659   6.0917854  12.2177792  21.6666794
  43.2575893  48.9036131  73.7465954  43.0643797  49.6615744  74.2983198
  42.4467278  48.3949566  73.7458944  64.0451288  68.2914162   1.9162151
  64.2356682  69.2294216   1.9078143  64.8829937  67.8786802   2.1256618
  13.0110669  12.7484965  23.3490872  13.9646173  12.7557647  23.2658911
  12.7389848  11.9395900  22.9156446   0.8414104  86.6188335   2.8766817
   1.2865287  86.4139938   2.0544025   0.4877621  85.7801533   3.1729770
  65.8575153   4.8608196  63.9552450  65.7706213   5.4379791  63.1965828
  66.6519356   5.1624155  64.3958855  29.0232968  15.6217146  40.4950666
  29.6696949  15.9305060  41.1299276  29.2628717  14.7091007  40.3339052
  84.8267651  18.3100939  40.4383993  85.0375748  17.7787447  41.2061644
  84.0139484  18.7579370  40.6729078   5.5639344  66.9457102  10.3648603
   5.3481269  66.2011099   9.8034078   6.5098733  66.8805838  10.4959714
  54.0922785  47.5780821  29.1536188  53.6345100  46.9560862  29.7191286
  54.9483252  47.6919937  29.5664549  41.8053150  83.0114937  56.7859411
  41.6601419  82.8735256  57.7219582  42.7561474  83.0784321  56.6983509
  21.1280584  63.9084387  55.3504658  20.9042525  64.3392944  54.5255423
  20.6100869  64.3699598  56.0099649  43.7461090  71.5002584  69.6223211
  43.6328888  72.4459362  69.5269060  44.5428610  71.3035154  69.1296625
  24.1960597  75.9088469  63.6671352  24.1098690  74.9681854  63.8219404
  23.3690214  76.1607409  63.2563019  76.1148071  68.1937647  27.3178124
  76.5358067  67.8464699  26.5314436  75.4741478  68.8238907  26.9880700
   2.1075879  49.6527147  72.8935814   2.2673918  50.5925751  72.8078032
   2.9404810  49.2952633  73.2013941  21.2518835  37.6622272  23.7491703
  21.3932037  38.2661796  24.4782114  20.8809638  36.8789339  24.1554976
  10.1782179  28.0531168   6.7618620   9.8580557  28.3694577   5.9170800
   9.7179192  28.5885000   7.4081767  31.4490724   2.7130845   4.1467839
  31.3127708   1.8287064   3.8068882  32.1813178   3.0562869   3.6346689
   5.3886533  82.9736614  19.4073808   5.8664823  83.7367058  19.7324455
   5.4707974  82.3242474  20.1057696  35.9020925  40.3255701  15.9379065
  36.1241269  40.9348440  15.2338338  36.3020205  39.4972849  15.6728888
  49.3820572  28.9416480   8.8735998  49.9170399  28.2183504   9.2004985
  48.5193014  28.5540175   8.7265408  92.0253276   3.9371979  40.8650398
  91.3424396   4.1744751  40.2376699  91.5495209   3.5655841  41.6078329
  26.0981321  17.9958344  73.4156942  26.4678836  18.3668149  74.2168713
  25.4363585  18.6305463  73.1410551  71.2394571  71.7160463  12.7880633
  71.9391775  71.5790272  13.4266937  71.6332769  71.4824867  11.9474745
  50.7616711  64.8789310  30.8831692  50.4990101  64.1290617  31.4169645
  51.2343740  64.4938231  30.1452827  77.7944517  83.3799362  13.6442268
  78.0027771  84.1596222  14.1589379  78.1670094  82.6550102  14.1461337
  13.8821244  68.2810736  16.0596132  13.6003935  67.7347279  15.3258789
  14.3930960  68.9816427  15.6542230   6.0509974  28.5729337   3.9964321
   6.9172126  28.9579391   4.1293815   6.1104465  27.7054811   4.3967086
  50.3190041   0.2467822  66.1439657  49.4073343   0.4516760  65.9363461
  50.6838083  -0.0816415  65.3222084  61.9778633  55.4384279  66.3969660
  61.8955421  56.3465405  66.1057901  61.0850668  55.1774883  66.6229296
  61.3161039  59.3652153  58.4905148  60.8578968  59.3201685  59.3297100
  61.1990881  60.2703762  58.2020187  75.4903412  82.0411015  13.8789833
  76.2364578  82.6302528  13.7674117  75.1814079  82.2117138  14.7687507
  77.3242914  86.1423627   3.9219868  77.2417461  85.7390935   3.0578157
  77.0385670  87.0467087   3.7925577  39.5805311  15.2908874  11.4809954
  39.7607493  15.2246487  12.4187398  40.3324223  15.7647085  11.1254835
  49.4218111  83.5833073  18.7511277  50.3453922  83.3801842  18.8993454
  49.1859150  83.0737305  17.9759336   6.9953698  27.5387502  25.5399275
   7.8112757  27.2434735  25.1357722   6.4753687  26.7413664  25.6399822
  45.9482527  70.6570244  44.2528629  45.1663303  70.9786940  43.8041306
  46.5930700  71.3555288  44.1408825  55.0481272  72.5415659  22.1877170
  55.7499504  72.2325659  22.7606010  55.0836611  73.4954834  22.2585177
  82.4909115  77.1698284   7.4402338  83.2197666  77.1268129   6.8212366
  82.6985741  76.5091753   8.1010288  24.0981220  38.7876354   0.5520020
  24.5309662  37.9400002   0.6538974  24.2603325  39.0313946  -0.3593148
  15.5952549  15.0152743  13.0960953  14.8199177  14.5201671  12.8316104
  15.2468431  15.7728803  13.5660696  19.4375312  72.0845175  42.0860195
  20.3016758  72.1469402  42.4929476  19.4230378  71.2146473  41.6868401
   9.5436448  56.8263245  73.3226109  10.0726962  57.4992561  73.7509823
   8.9246362  56.5437412  73.9958191  26.8552303  10.1595414  38.6419511
  26.1163592  10.0479364  39.2401505  26.4820552  10.0196278  37.7716660
   2.5446129  46.6371870  60.7948732   2.1216042  45.7911253  60.6483221
   1.8697751  47.2822094  60.5832911  55.4462671  72.2983742  73.2965422
  54.5540094  72.5206470  73.5624409  55.3551388  71.4751720  72.8166819
  80.4103088  61.9786263  57.7200365  80.0180244  62.7075577  57.2394037
  79.6679735  61.5356255  58.1310415  28.2999277  20.2706909  43.5038185
  27.5906682  19.6285701  43.4744453  27.8561854  21.1186504  43.4867382
  24.6791244   2.6061958   1.7695144  25.5738354   2.9298863   1.6648948
  24.3128991   3.1384712   2.4757686  81.4601040  68.7532187  69.8278332
  82.3543739  68.4285069  69.9330473  81.3231564  69.3264914  70.5820465
  20.0093484  22.9073358  38.2486081  20.1606989  22.2287822  38.9065528
  20.8865309  23.1762958  37.9757643  30.0071287  53.5344458  71.3341713
  29.1458511  53.9468098  71.2679291  30.4638386  54.0403461  72.0062685
  16.0612726  25.3892970   2.9885435  16.4004803  26.2050223   3.3570036
  15.1910150  25.6176925   2.6618618  18.4024763   6.2547028   7.6464462
  18.5907197   7.1405125   7.3363847  17.4470019   6.1974180   7.6421112
  42.3709726  63.5879374  58.5608006  43.1958294  64.0582848  58.4399176
  41.7232704  64.1166067  58.0947256  14.2386317  58.1997204   9.6719944
  14.4507790  57.8880024   8.7921882  14.9950778  58.7274313   9.9280089
  37.7299237  80.8415127  47.7238131  37.5252366  80.7971478  48.6578178
  36.9341898  81.1883926  47.3204422  28.8504601   1.9767906  48.9994049
  28.0710435   1.5686567  49.3764591  28.6381078   2.9093844  48.9618826
  48.6045218  71.3841105  60.6845140  49.2718601  70.9925222  60.1209974
  48.2610941  72.1178865  60.1747513   3.6364242  85.7553387  24.0564966
   3.6825466  85.4535198  24.9636936   3.4078139  86.6823959  24.1238379
  19.6577716  51.9299650  52.9332924  19.3142354  51.1839151  53.4248495
  20.0200176  51.5447474  52.1354055   7.4059671  66.5915012  67.2514439
   6.4508700  66.6038036  67.3136520   7.5874287  66.7381096  66.3231087
  27.2443056  22.8820896   3.9109993  26.7065549  22.3527741   4.4999671
  27.9300976  22.2852445   3.6115044  23.9938498  12.5331819   2.5971332
  23.8554859  11.8570566   1.9338521  24.8826051  12.3771036   2.9164830
  78.1614923  65.8330965  10.5395436  77.6630306  65.5621243   9.7686082
  79.0464020  65.9894562  10.2098107  18.7479818  69.7198915  51.5054417
  19.4435382  69.3809128  50.9419489  19.0194321  69.4802713  52.3915148
  30.3213072  75.9787035  73.3152199  30.1919746  75.0331354  73.2416964
  29.8647165  76.2209702  74.1208649  22.1252966   4.8105228  29.8633504
  21.2682390   4.4163707  29.7010922  22.1006489   5.6412607  29.3884850
  37.5876355  19.8354948  26.7862701  37.1255708  19.9388051  27.6181674
  38.5014987  20.0301504  26.9940996  78.6742163  74.7958374  64.5627117
  79.5418787  74.8295403  64.1599035  78.8439846  74.5787859  65.4793882
  48.4153366  42.0280838   2.2995202  48.7194777  42.8556967   2.6720563
  47.8281069  42.2866106   1.5891987  37.2490716  54.9112940  69.3552685
  37.2288561  54.2417288  70.0390148  36.9001985  54.4721365  68.5796022
  62.2796297  77.4679327  16.8145156  62.2843885  76.8647289  16.0713124
  62.8324413  77.0437622  17.4708009   8.5867602  85.9022522  -0.0806038
   7.9886889  85.4189968   0.4894869   9.0442204  86.5036774   0.5069793
  22.1356702   7.5580871  36.3164282  21.6047287   6.7624485  36.3523960
  22.7226901   7.4208939  35.5729103  24.4107866  75.9546328   3.5459045
  24.0343618  75.7342291   2.6938725  25.2941442  75.5868912   3.5198414
   8.2902372  68.7374115  15.0213063   7.3848408  68.4306526  15.0701642
   8.4107721  69.2557430  15.8169425  75.1036787  83.8392162  16.0248458
  74.4138336  84.0818405  16.6424882  75.9091425  84.1678143  16.4241958
  25.8998370  13.4871089  18.7168479  25.0253510  13.8490415  18.5736287
  26.2398124  13.3267653  17.8365421  86.9740772  81.2511063   1.8587935
  86.3365555  81.5080070   1.1926097  86.9317150  81.9489574   2.5125879
  24.5291710  57.8709936  19.2215800  24.0431881  57.1180916  19.5580208
  25.0124192  58.2018900  19.9786866  20.2565384  65.3083372  13.8514984
  20.1612902  65.0859928  12.9253662  20.3393173  64.4632959  14.2934096
   2.5319099  68.3013582   6.1295724   2.4361798  69.0660667   6.6972804
   1.9461329  67.6463938   6.5092009   0.5103902   2.2287187  16.6083658
   1.1338674   2.2275060  17.3346615  -0.2379867   1.7287916  16.9343054
  63.9963484  27.3455071  73.5030365  64.1706085  27.2357464  72.5682545
  63.2600784  27.9560971  73.5393476  74.0954876  65.9435654  65.1923084
  74.5426464  65.1542425  64.8869419  73.6685801  66.2945318  64.4107676
  10.6446707  14.7924113  40.0026608  11.5182042  14.9979937  39.6696305
  10.0476670  15.2249515  39.3921447  43.2768440   2.1980655  12.7007043
  42.8649092   2.5779557  13.4767342  44.0377378   2.7551162  12.5364852
  43.1514645  50.9508801  61.1604452  43.9068747  51.0809708  60.5871534
  43.0460262  51.7885351  61.6114950  85.6617641  36.0767913   7.7826142
  86.1270809  35.3328323   7.4002075  85.1305008  36.4215803   7.0649052
  47.9336023   9.5108801  56.4126730  47.0524883   9.2512268  56.1435032
  48.4547901   9.4555354  55.6117153  30.0242448  82.1461964  47.3149347
  29.3849039  81.7602348  46.7161751  29.7309089  81.8761253  48.1851339
  60.2847242  12.2116172  26.1633420  59.3710423  12.4775124  26.0598183
  60.5045128  12.4547958  27.0626688  31.2935162  53.2314301  23.1616783
  32.2207594  53.4225368  23.3028436  31.0583854  53.7439680  22.3882127
  36.4087081  62.0659733  68.3753586  36.9669962  61.9776630  69.1478491
  36.5578365  62.9619169  68.0732250  67.9445171  47.3417997   8.1457055
  66.9972801  47.2055960   8.1661135  68.0659676  48.0934525   7.5656170
  29.3364573   8.8384950   1.6933013  29.3243718   9.0127748   0.7521784
  29.6455288   9.6557152   2.0842706  62.6039553  31.0356379  15.7680500
  63.1658411  31.4257574  16.4376163  63.0300903  30.2064133  15.5511892
   7.8686196  34.9763203   6.6632622   7.9682410  34.9186110   7.6135129
   6.9945633  35.3451967   6.5360343  42.5980043  70.4528475  57.2597551
  43.1986046  71.1107588  57.6099920  42.2072840  70.8698559  56.4918566
  28.9851546  64.4421816  57.1859598  29.3772793  65.1128817  56.6268206
  29.7097468  63.8539696  57.3985672  44.0043306  35.2126789   1.3807149
  44.9612045  35.2034330   1.4039090  43.7546921  34.2897701   1.4271083
  49.7834826   9.2837465  12.7497351  50.2927494   9.2738461  11.9393134
  49.6208477   8.3602053  12.9417086  52.2263765  28.4875727   0.3044691
  51.9786596  28.9424729  -0.5004738  52.7784681  29.1135097   0.7731168
  31.1792164   0.0555117  11.6030407  30.8315803   0.0816137  10.7115817
  30.4027333   0.0373823  12.1624839  10.3984940  18.2494092  17.8607666
   9.9790180  17.8294611  17.1098244   9.7066385  18.3082426  18.5196328
  87.0581341  14.6545208   0.7092295  86.5211105  14.4124794  -0.0452565
  86.4273739  14.8095691   1.4123163  32.6867414  25.3800559  13.7630630
  32.5554228  26.2238050  13.3305383  33.1729627  25.5924201  14.5597577
  23.0393982  27.6946259   5.9839517  23.0700493  26.7674613   5.7480317
  23.2187843  28.1562543   5.1648349  46.0978317  51.2581444   5.3305787
  45.7224607  50.6937742   4.6547019  46.5297699  51.9600630   4.8437750
  91.4494133   3.5150158  72.4727201  90.5708981   3.8594335  72.6334095
  91.3030148   2.6235071  72.1564722  89.0251255   5.7061142  66.9029284
  89.4516087   5.7306278  66.0463428  89.6592808   5.2724528  67.4739027
  50.9269953  15.2424741   0.5148218  50.2247381  15.6567121   1.0162938
  50.4858637  14.8585200  -0.2429473  44.1734600  44.2950630   0.8120008
  45.0384903  43.9175463   0.9714778  44.2671490  45.2174950   1.0498586
  20.7955980  32.7916431   8.4076774  20.4630709  32.5222206   9.2638725
  21.7476940  32.7784204   8.5055220  85.9578419  21.4288378  72.5869656
  85.9190178  21.1957741  71.6593838  86.7836475  21.9037771  72.6802254
  25.5107498  76.5682983  24.3157744  26.0758924  75.8210421  24.5118642
  24.9235129  76.6287041  25.0692558   1.8466336  32.6190591   7.4223340
   1.1947314  32.9756784   6.8189454   1.3321625  32.2526550   8.1415701
  59.0924597  76.3369131  74.4382381  58.8328981  75.5721998  74.9521208
  58.4705925  76.3590240  73.7108994   0.9250593   2.1044536  63.3249569
   1.4842084   1.3290605  63.3734274   1.3840091   2.7636278  63.8456154
  41.4541817  30.4006815  18.7683702  40.7035780  30.9442878  18.5289490
  42.0774937  31.0122585  19.1604006  23.0348110  32.1640062   6.3154328
  22.7819920  33.0011964   6.7045683  23.8403392  32.3564863   5.8355284
   9.1445804  83.8863087  20.7213259   8.3284408  84.3308258  20.4920864
   9.7761923  84.1952515  20.0718260   6.1335146  27.3611212   1.2167922
   6.1608201  27.9554605   1.9666226   6.3166481  27.9198742   0.4614861
  13.6370099  21.8096924  70.2764893  12.8567076  21.5963507  69.7647810
  13.2956338  22.1732950  71.0934877  16.4654422  27.5377154   4.8796475
  16.5478873  26.9142532   5.6012642  15.6160140  27.9559398   5.0203276
  76.2671757  58.8209724  53.6808825  76.8318081  58.2989025  54.2508507
  75.8494711  58.1801510  53.1054688   0.8550583  16.7706144  52.9237080
   1.2486491  16.1409330  52.3197031   0.1348222  16.2914598  53.3334684
  19.5179605  58.0476141  22.8432417  19.9993479  58.4711123  23.5539770
  19.0178001  58.7557364  22.4374938  52.1101189  54.7929621  62.9919815
  52.9611778  54.8203564  63.4292126  51.6399908  54.0818167  63.4272814
  47.6394033  63.6840010  67.5660419  47.3576021  64.4784403  68.0195665
  48.3009624  63.3011484  68.1422377  37.9829478  78.6439943  68.6172628
  38.7474012  78.8212633  69.1653681  37.3406744  79.3025970  68.8817739
  90.0962734  34.0555406   4.4653985  90.6259918  34.2975068   3.7057397
  89.2806435  33.7214923   4.0920439  33.5042167  58.8077116  51.5101480
  34.2638922  58.2425261  51.6504478  33.6732268  59.5759201  52.0556021
  50.4864502  84.5054150  64.7498798  50.8897734  85.2499866  64.3035936
  50.3611135  84.8050880  65.6502819  50.6159782  57.9870129  49.3432426
  51.2596035  58.6089802  49.0039253  49.7957850  58.2341337  48.9161062
  21.5484452   2.1074717   0.5867271  21.9878769   2.3021160   1.4145225
  21.9394159   1.2835625   0.2959587  35.2126789  70.4743671  52.7415037
  34.5068407  70.3234148  53.3701801  36.0059857  70.2003002  53.2016993
  52.4127817  68.7569714  50.0745296  52.8803635  69.4190168  49.5653248
  51.8635416  69.2606401  50.6752682  91.2050343  17.2261047  50.1655340
  90.5897141  16.7671192  50.7373190  90.7046604  17.4044406  49.3692589
  32.1354103  13.9258420  21.3163614  32.4908853  14.5825005  21.9152498
  31.5812635  14.4243765  20.7158470  56.5407658  68.7712479  61.6743898
  56.6802406  68.4964037  62.5806093  57.4032259  68.6964369  61.2659740
  55.6139612  15.2369046  19.6964157  55.3753042  15.5446434  20.5708146
  55.5395269  14.2840672  19.7492528  36.6348100  49.1701317   2.2623318
  36.2832570  49.0304470   3.1416103  37.1141720  48.3653593   2.0654054
   1.1601786  19.1812527   7.6548743   0.7287155  19.4013643   6.8292701
   1.1670328  18.2242644   7.6738417  85.4948330  51.8481493  51.3992214
  85.5456543  52.7770424  51.1738157  85.2045918  51.4215755  50.5929804
  23.0018806  79.2575550  18.2026660  22.9294205  78.9758205  19.1145897
  22.1873426  79.7307158  18.0327225  82.7171135  21.6166306  34.0537715
  82.9144382  21.2256360  34.9048996  81.9452477  22.1598887  34.2129183
  49.7920370   0.3826401  38.7486458  50.4011250  -0.3557662  38.7500906
  48.9336300  -0.0146643  38.8953280  79.5374632   1.2416375  70.4401159
  80.3360176   1.6258729  70.8019400  79.7539091   0.3184753  70.3091383
  45.7373095  14.5016754  61.0703325  46.0964489  14.9380410  61.8428850
  44.8921871  14.9273241  60.9260321  24.8766279  74.9335814  71.4448929
  24.2027044  74.8879766  72.1231079  25.4049802  75.6953764  71.6830921
  37.7406168   7.8705454  26.5191412  36.8238473   8.0943984  26.6793156
  37.7329397   6.9260561  26.3638568  22.3902917  14.5518112   7.8904420
  22.6617265  14.0158868   7.1452302  21.5674090  14.1586220   8.1811273
  29.4698119  23.0416203  14.4104898  28.6009860  23.4161663  14.5557153
  29.3173075  22.0984602  14.3519473  83.2077929  24.5891701   0.0990020
  82.4391624  24.9218117  -0.3644504  82.8682419  23.8851248   0.6515036
  68.6182785  26.1799169   3.2994139  68.5943937  25.2994370   3.6741397
  69.1192627  26.6956353   3.9312980  50.7549095  33.3620787  10.2321303
  51.5763092  33.1409979  10.6710660  50.9230804  34.2107248   9.8225594
  31.7816091  60.2777481  20.6232905  32.7034712  60.0473070  20.5079675
  31.3854742  60.1164579  19.7669649  34.6955943  40.6949759  20.7926965
  35.0608778  41.4816046  21.1976933  35.4604483  40.1961374  20.5056643
  13.0740225   7.8349781  53.6373377  13.5488772   8.1984037  54.3847752
  12.6450217   7.0524967  53.9836216   0.5274535  84.9118042  33.5128093
   0.2916956  85.7598305  33.1366324   1.4634484  84.8221874  33.3336091
  69.4166040  71.0704184  67.5092745  69.7928619  70.4734802  66.8624973
  68.5273457  71.2342262  67.1952343  32.8303361  13.0252218  17.8078341
  31.9066668  12.9981184  18.0575013  32.9102612  12.3704743  17.1141839
  75.5507660  71.7283440  31.5514851  75.8687973  72.5834227  31.2617779
  74.5970964  71.8047810  31.5215278  64.7267675   4.1216013  70.7385921
  65.2551365   4.4757059  70.0232840  63.8600063   3.9907733  70.3540945
  12.9482377  58.4722281  18.2387924  12.6634967  59.1532373  17.6293802
  13.7615252  58.8107204  18.6132491  61.3288164   6.8318623   6.4473641
  60.4178381   6.5392041   6.4738059  61.5892506   6.7219508   5.5328548
  39.5216250  72.9837799  64.2420912  39.8720741  72.3486710  64.8666334
  40.2941465  73.3376884  63.8014174  23.7833238  61.8087959   8.6927408
  23.5365820  62.7007914   8.9370751  23.1891704  61.5835094   7.9768777
  80.9469700  37.4378157   8.4375298  81.0514450  36.5457892   8.7685937
  81.8309402  37.8046227   8.4544080  69.5746660  17.4410415  21.1390162
  68.7954521  17.9858744  21.0284781  70.3005791  18.0642951  21.1678576
  34.0774345  58.5273218  74.6330976  33.9896798  57.8934622  73.9212322
  33.4833241  58.2083225  75.3124380  53.2787132  49.6673107  44.3498707
  53.1129599  48.7266922  44.4131041  54.0417385  49.8141575  44.9088526
  39.7835803  86.2197399  67.3138952  39.9543285  86.9408512  67.9197693
  39.2812514  85.5881977  67.8287268  33.8306928  52.4389505  59.7359371
  33.2252121  51.9818401  59.1522598  34.5636797  51.8327475  59.8431015
  32.0553660  71.9697714  61.4022732  32.0838904  72.0989370  62.3502922
  31.4925933  72.6744270  61.0813665  30.6046653  17.4939907  15.7177246
  30.8483696  18.2933390  16.1845016  30.0182414  17.0348561  16.3190031
  61.2091684  72.1218872  69.2713881  62.1296740  72.2720718  69.0561199
  60.8170986  71.8226099  68.4510517   5.9829921  49.6682787  65.4898357
   5.1643157  49.9171114  65.0607872   6.2706530  50.4642630  65.9369278
  90.7875536  86.1161284  -0.1837291  90.3849600  86.5590624   0.5632363
  91.6778897  85.9180979   0.1066361  35.0704098  37.4893188   7.9421866
  34.9309111  37.9743671   8.7555134  35.0903869  38.1626678   7.2621632
   8.6349267  60.5210924  56.3525963   9.1293055  61.2499619  55.9776688
   8.2524925  60.0767326  55.5959463   8.3796293   7.6133132  73.5213041
   8.4634137   7.4434268  72.5830364   7.4483252   7.4899286  73.7048292
  30.1688385  56.1222696   8.1228453  29.8893356  56.5877867   8.9111346
  30.9898877  55.6987047   8.3732617  31.1704803  63.0849457  57.7842236
  31.3772559  62.3432255  58.3528423  31.6801405  63.8113165  58.1431961
  57.6774406  17.1684551  48.0365705  58.0114603  16.4234185  48.5361481
  56.8858957  16.8369651  47.6125288  68.3652687  28.1863666  15.5282283
  68.9376831  28.4711218  14.8158443  68.1375694  27.2835422  15.3062093
  77.7654505  77.3525429  70.0211096  77.5717211  77.6529789  69.1331673
  76.9711781  76.8957329  70.2980328  40.6861115  16.0833907  56.7023277
  40.7175016  15.1275992  56.7436647  41.5449333  16.3368309  56.3640642
  38.1944704  46.6044044  55.8671284  38.5706758  46.3503981  55.0244045
  38.1385732  47.5591040  55.8264685  35.2229404  29.7723770  61.3597965
  35.7335997  30.5536056  61.1473322  35.7859778  29.2713666  61.9498920
  57.3077393  44.3941402  29.2968464  57.9543877  43.6892939  29.3325377
  57.7860641  45.1398849  28.9344907  77.6098108  74.2036247  60.4363203
  76.9775057  74.3112516  61.1468410  78.3594656  74.7372341  60.6999588
  25.9503746  21.5883636  43.0306530  25.4469872  20.9064221  42.5859165
  25.7123756  21.4984417  43.9534187  15.8747208  77.4385834   5.1552391
  15.6056058  77.8864622   5.9572440  15.0592077  77.1026278   4.7833449
   9.2644805  56.3832331  14.3807924   9.6957439  55.8678579  15.0624311
   9.0195918  55.7414675  13.7141621  10.0135422   2.6565427  61.8215322
   9.9797416   3.3172685  61.1297750  10.9284616   2.6508632  62.1028233
  51.1890650  18.3016372  64.4206190  51.7091274  17.5202727  64.6083403
  50.6282663  18.0458522  63.6882877  83.9438604  29.6951528  73.9600730
  83.4141611  30.2560182  73.3934349  83.6274861  28.8091751  73.7834713
  12.6911736  67.5813246  69.3855762  12.1799541  68.3904505  69.3715048
  13.4724140  67.7826214  68.8704300  56.5716505  42.8897047   6.6604018
  56.7136908  43.5385466   7.3496479  56.2681723  42.1095943   7.1246934
   8.4251237  62.3497915  50.6340027   8.4016603  61.4368200  50.9206438
   8.4950191  62.2997904  49.6806669  17.4984610  47.8849602   8.8333476
  16.8469965  48.5708570   8.9795345  18.2448721  48.1445360   9.3734610
  34.4919491  28.6721444  18.8620257  34.9614286  28.1387520  18.2206881
  33.5965538  28.3341885  18.8451135  11.9205689  75.7005310  29.8171496
  11.0167778  75.3869247  29.8494887  11.8517542  76.5956640  29.4851327
  13.6345184  25.9437823  69.2074060  14.4123495  25.3866220  69.2353916
  13.0176342  25.5241752  69.8070860  72.3754883  55.2679873  21.1395717
  72.1454716  55.7735729  20.3600168  72.4668932  54.3690491  20.8236814
  18.3704174  54.3914223  52.3953295  17.9590595  54.7317505  53.1898069
  18.7712085  53.5659981  52.6678610  52.3715448  55.5423069   3.8736555
  52.6581049  56.4203882   4.1248372  51.5198278  55.6779528   3.4584311
  83.9633846  26.5637589  73.1331587  83.0416298  26.8023324  73.0347729
  83.9474010  25.7463789  73.6310196  25.6274867  63.6346817  14.8193872
  25.8069897  64.5723104  14.8891068  24.7565866  63.5862160  14.4251561
  58.7174082  30.0863695  62.5006485  58.5114527  30.3963113  61.6187429
  59.6424961  30.3012609  62.6200914  69.0327501  83.6851788  66.5130281
  69.7189426  84.3524933  66.5208006  68.3259678  84.0622902  67.0369339
  44.6627140  29.9388671   4.0865213  44.6055031  29.7901011   3.1426847
  44.2914295  30.8118200   4.2143360  53.6233091  44.4726944  24.4051266
  53.3358335  44.5018101  25.3176737  52.9560947  43.9499521  23.9603853
  58.5664034  41.1698055  34.7133017  57.7314043  40.7877970  34.9836326
  58.4395218  42.1138811  34.8074150  33.0540276  15.8230054  71.4413500
  33.8476443  16.2762702  71.1568260  32.3381805  16.3306391  71.0591173
   4.7746980  45.8429623  27.4796796   3.8710845  46.1185503  27.3255205
   5.3051597  46.5769291  27.1696234  14.1295122  42.5915371   0.2907334
  13.9264845  41.9364487   0.9584723  13.4241556  42.5062977  -0.3506984
  88.0832100  82.9178715  70.5302620  88.9107895  82.9919338  70.0550032
  87.4159718  82.8806496  69.8449659  58.2065248  79.5520067  64.5884132
  57.4251461  79.9168062  64.1729546  58.5012150  78.8688707  63.9861584
  62.9779005  71.0707664  13.2137203  63.3434916  71.6335630  12.5311995
  62.2474432  71.5740728  13.5733724  12.3997104  58.7491035  54.6922207
  12.8372514  57.9640150  54.3629408  11.4711547  58.5975122  54.5160532
  68.3219624  51.1253595  45.8805704  67.7809000  50.9634161  46.6533947
  69.2193890  51.1313105  46.2134600  89.0120125  27.9442000  45.9304810
  88.6086750  28.7048531  46.3487577  89.8412800  28.2732320  45.5836725
   9.9240088  77.2896576  67.7324772   9.5466387  76.4386177  67.5098467
  10.5103683  77.1069765  68.4666681   1.4528269  31.5328932  49.5196724
   2.3094535  31.2044382  49.2466497   1.6129424  32.4439692  49.7657061
  80.6596279  33.5070491  23.3827901  80.9914112  32.6278949  23.2004666
  81.4091206  33.9740920  23.7520599  47.2173214  12.6266837  63.1705952
  48.0779839  13.0376554  63.0893803  46.7676210  12.8495371  62.3555231
  15.4317427  82.8106308  69.7234058  14.8538589  83.5427952  69.9383783
  16.3111985  83.1883335  69.7346544  90.3082275  45.8709908   0.4539756
  90.5920506  46.6081619  -0.0866308  91.1194992  45.5090952   0.8104956
  63.7629461  76.7073488   5.9136528  62.9918766  76.5318012   5.3743362
  64.4265509  76.0992765   5.5879068  39.4714856  48.8908720  65.4044771
  40.1472521  48.7452936  64.7423744  39.7133303  49.7210407  65.8150434
  15.4776406  20.9857273  32.8701472  15.4500258  21.0540485  33.8245058
  16.4052033  21.0730243  32.6505136  34.8525524  29.2956543  58.4256840
  35.3578353  30.0994110  58.3036232  34.8792410  29.1369343  59.3692589
  84.6827316  66.2005377  68.4119368  84.5976639  66.1783218  67.4587822
  84.6041393  65.2852440  68.6808109  27.5867701  10.1257563  72.2550297
  27.8593206  10.9691215  71.8935299  26.9458270   9.7919881  71.6273212
  77.7917767  43.6551285  15.4246628  78.6683464  43.9036226  15.1312149
  77.3957729  43.2306767  14.6635783  68.8068533  73.0438519  22.4265742
  69.3469048  72.3154926  22.7332878  68.0364418  72.6255417  22.0422387
   1.6532624  65.1301384  61.3760710   0.7651336  65.3584576  61.6505337
   1.9903092  64.5836687  62.0860052  91.3376236   4.6504459  15.7773352
  90.4224682   4.4464490  15.5847049  91.7132092   3.8181737  16.0645521
  35.0547838  28.7517667  53.1643677  34.5241809  27.9655886  53.2932806
  34.7367358  29.1230989  52.3414516  42.9305649  11.3037276  32.2285175
  43.5180521  10.5577385  32.3493195  42.1574593  10.9332633  31.8027258
  36.9808006   1.3349175  57.4984074  37.0831490   2.2069708  57.8795624
  37.4924803   1.3652956  56.6900206  27.8115177  19.3130636  70.9610319
  27.5725389  20.1611853  71.3349438  27.9867268  18.7573218  71.7204285
  55.9066534  60.1359463   3.3467016  56.0622692  59.2590380   3.6974889
  56.6906023  60.6313610   3.5838091  82.6995850  60.1249123   6.7757875
  83.4331226  59.5110893   6.7387593  82.2212505  59.8790216   7.5676000
   1.7882895  60.6460857  70.6704235   1.8011159  60.0403118  71.4114380
   1.0238715  61.2003899  70.8274078  86.9654942  73.1556511  73.4203386
  87.0459938  72.2121191  73.2807064  86.6135216  73.2374334  74.3067122
  89.3438435  65.0508451  69.1364193  89.5555019  65.9087515  68.7684250
  88.5797596  64.7588730  68.6392641  36.1649513  25.0995445   7.1035308
  36.9518209  25.3751159   7.5737745  35.8391619  24.3493247   7.6007879
  14.8498821  34.1814971  62.8443956  15.4812908  34.1849899  63.5637999
  15.3798985  34.3221736  62.0598459  43.8699818  32.4764013   4.0247050
  44.7253132  32.7797270   4.3290642  43.6396313  33.0793691   3.3178818
  65.3216410  69.8625469  40.6805754  64.5169544  70.3806162  40.6629801
  65.6853628  69.9550486  39.8000193   7.4492896  53.0776548  70.2536821
   8.1118035  53.3724022  70.8785248   6.9423103  52.4225664  70.7333279
  36.0884380   7.2384512   5.0071675  35.4217076   7.4187130   4.3444395
  36.4223862   8.1014842   5.2518815  56.6484976  10.8535576   5.2130222
  56.4700413  10.0569713   5.7128567  57.6012325  10.8710575   5.1223928
  86.6838455  58.8804865  25.9043097  87.5564194  59.1522312  25.6196976
  86.1737633  58.8281345  25.0960350   6.0594559  83.3835602  16.6889000
   5.8098513  83.3537197  17.6125002   5.9777963  82.4781227  16.3893473
   6.2393832  64.5203066  62.3876810   7.1536571  64.5898724  62.1129179
   5.8402109  65.3420210  62.1018744  78.4143496  78.3891487  63.2369471
  78.6055183  79.0713549  62.5932980  79.1812038  78.3785868  63.8097000
  88.4608364  46.2750721  14.6192622  87.6404762  45.8125830  14.4479227
  88.2129860  46.9959116  15.1982212   3.9366004  79.1924906   2.9545286
   4.7488993  78.7267971   2.7557063   4.2223266  80.0042343   3.3736533
   6.1080009  54.2139721  66.0635948   5.9887469  54.4902229  65.1549196
   5.2190185  54.1460609  66.4119196  44.2521048  10.0028527  51.1834478
  43.3873940  10.3577423  50.9771395  44.4719887  10.3861976  52.0325232
  89.0326023  42.4101067   9.6538478  89.5021820  43.1768894   9.9821246
  89.7225094  41.8075800   9.3759668  45.1242828  14.0816224  50.5329704
  45.2316332  15.0198102  50.6895304  44.6698141  13.7593699  51.3113260
  54.0061045  58.7334299  14.4435632  53.1063032  59.0579557  14.4792354
  54.2460918  58.5917377  15.3592920  15.3910112  23.7479424  69.8742962
  15.8509028  24.1058397  70.6336689  14.8584962  23.0365896  70.2301598
  24.6574163  41.1811256  24.8726916  24.0892076  41.8739653  24.5360255
  24.5922136  41.2592411  25.8244681  83.3782291  81.0631561   7.8499937
  82.4933434  80.9370995   7.5074792  83.9509678  80.7070732   7.1707213
   3.3109772  73.7727356  34.1256261   2.9901308  74.0342951  34.9886870
   3.5660216  74.5942879  33.7058210   7.2662324  55.4705429   9.3181115
   6.9031239  54.6096992   9.1099304   7.8230953  55.6831026   8.5691428
  54.1947269  46.3739061  11.9148862  53.6814976  47.0609570  11.4896953
  54.0816641  46.5354300  12.8515601  28.1891775  30.2494001  41.2336779
  28.4477448  31.1678219  41.1570072  28.6771822  29.8045349  40.5407286
  86.4407349  62.6066637   7.1422476  87.3738194  62.7749586   7.2736037
  86.4134979  61.8918800   6.5061867   3.9615378  73.7791014  22.6378465
   3.6121312  74.5339155  22.1641326   4.3850490  74.1555786  23.4092999
  28.4336662  20.7538199  48.6662054  27.5308490  20.5111575  48.8717937
  28.8494110  20.8750629  49.5198345  42.9443359  38.3122778  24.9533343
  42.9918957  38.2743621  25.9085989  43.5014248  39.0532804  24.7150111
   3.3826035  56.6860151  43.0978918   4.3195513  56.8229103  43.2379675
   3.0087188  56.6688156  43.9788818  59.8164845  83.8374805   4.7581387
  59.3946886  84.6510983   5.0344253  59.8376751  83.2982254   5.5487031
  69.2994928  62.1295500   4.8622978  68.9771795  62.9888487   5.1342380
  69.5627213  61.7033529   5.6779569  73.3914757  79.3540239   2.7330488
  74.1518736  79.6795273   2.2513118  73.6554432  79.3934965   3.6522850
  81.0989380  80.5916977  30.2953172  81.8792629  81.1233234  30.4524565
  81.4053345  79.6880960  30.3719068   7.2106570  82.0829010   7.4096876
   7.1031362  81.2078857   7.0368522   7.4538761  81.9262505   8.3221215
  65.6585455  43.3974075   1.2810591  64.8852396  43.8548565   1.6111650
  65.9598780  43.9344501   0.5482441  42.3345327  25.3835845  53.1712008
  42.7922392  25.5535960  53.9945126  41.8351269  26.1831403  53.0052710
   9.8972893  37.7661443   6.7441124  10.6407177  37.3820186   6.2793618
  10.0277328  37.5105834   7.6572967  41.7615461   9.5901465  72.6647234
  42.2706127   8.7978196  72.4935389  42.2573519  10.0519776  73.3408308
  76.3824320  47.5555229   4.2119759  76.5651560  48.4355688   3.8827872
  75.6009912  47.6602936   4.7547501  75.0784874  18.2190943  46.8207264
  75.9127665  18.6435938  46.6207075  75.2137518  17.8176212  47.6790714
  81.4686394  43.9214420  17.7785528  82.3923397  43.6841440  17.6966953
  81.4537907  44.8710203  17.6589215   0.0747195  43.8557768  68.8872576
  -0.3826181  44.3083715  69.5959377   0.7943177  43.3972120  69.3209934
  58.5509825  58.2828522  14.8918009  59.0384912  57.6759386  14.3348253
  59.2254448  58.8148069  15.3141177  55.2907181   8.3973026  37.8467321
  54.8160172   8.8622767  38.5357094  55.4650450   9.0650505  37.1834397
  79.5539570  36.0031199  66.2073708  79.0974951  36.6287518  66.7699146
  79.1561937  35.1580667  66.4168930  74.0085649  76.2767744   5.7080084
  73.3744526  76.8289852   5.2506334  74.0930986  76.6758776   6.5739197
  40.4525328  77.7955484   1.2838493  40.7335377  77.2919750   2.0478392
  40.0528812  78.5842180   1.6506052  10.6432223  14.2939639  44.5871115
  11.0394764  13.7172341  43.9339685  10.2526093  13.6986327  45.2268267
  11.1075175  57.9334545   4.1877201  10.9255624  58.2955742   5.0548953
  12.0361459  58.1145859   4.0425557  43.8933706  51.4580727  21.3533115
  43.7291050  51.9264603  22.1717644  43.3755970  51.9285631  20.7000232
  31.6464281  80.0666237  49.6593475  31.6677690  79.6745634  48.7863827
  32.5631475  80.0903034  49.9337435  34.4771576   6.4719945  55.5682707
  34.7603846   5.7060206  56.0675669  35.2767396   6.7973918  55.1547289
  82.7483749  40.4557800  18.7820721  83.2591057  40.9836197  18.1682515
  83.2242107  40.5236578  19.6098483  41.8213272  52.8325844  68.4233665
  42.6293755  53.3381081  68.5113430  41.2844515  53.1079197  69.1664600
  40.0651884   9.9678451  53.1976509  40.8693743   9.4794059  53.3735561
  39.4187832   9.2954630  52.9824829  57.3694038  44.5197153  32.4088454
  57.7439737  44.9374485  31.6333294  58.0999947  44.4582415  33.0242276
  17.3660266   3.6404961  21.6381907  18.2474792   3.7048650  22.0057917
  16.7934620   3.5618582  22.4012208  61.1320543  55.2323914  31.9673610
  62.0247316  55.4319334  31.6853356  61.1586571  54.3067122  32.2095346
  56.8450022  72.4173450   2.1816869  56.7465067  72.1454000   1.2692311
  57.2318029  73.2914257   2.1306819  18.7187421   3.4612712  70.7598829
  18.3325779   4.3354630  70.7060575  19.6633184   3.6151594  70.7417917
  65.9158611  15.8986151  53.4728718  66.7257118  16.2151074  53.8731289
  65.2735138  15.9208500  54.1821814  20.0457716  68.4719610  49.3766356
  20.6371546  68.8165998  48.7075138  19.1784275  68.7760878  49.1093302
   9.3786955  45.8651924  55.3295994   9.5187688  46.7993975  55.4841232
   8.8053602  45.5875778  56.0440540  35.1885271  15.9774113  48.8549232
  34.7413588  16.7800236  48.5864305  35.4006505  15.5350089  48.0330229
  52.1624327  22.1167254  57.5018644  52.2662830  22.1456957  58.4529734
  53.0384159  21.9177938  57.1712303   7.3013628  84.7291279  71.0651779
   6.7636377  85.4816818  70.8187103   8.1808329  85.0897884  71.1778212
  60.1612997  62.6032066   7.0193040  60.0034428  63.5443068   7.0944428
  61.0868549  62.5335264   6.7853683  82.9308033  73.4651709  21.4515114
  82.8594685  72.6271582  20.9944820  82.2196579  73.4499645  22.0920324
  85.1289654  31.3091660   6.7298132  84.9050140  32.0017409   6.1081874
  85.2979660  30.5419493   6.1829573  10.8881867   6.4477009  62.4926186
  10.0102818   6.7406487  62.7369452  10.7432580   5.8246881  61.7805243
  74.6181726  45.5893517  20.8094859  73.8188362  45.4941273  21.3273907
  74.4091272  46.2695026  20.1692319  47.3206711  25.9913349  28.4912777
  46.9492626  25.3070927  27.9344130  47.0577240  25.7469654  29.3786192
  44.7547483  20.8736968  69.3979597  44.9299431  21.7800331  69.1447878
  43.8237333  20.8627439  69.6200418   9.0053129  25.6854653  73.1328297
   8.1738836  26.0618854  73.4213829   8.7661809  24.8409176  72.7510071
  72.0728397  72.3210001  28.2465672  72.3675108  73.2283735  28.1686306
  72.2143745  71.9476509  27.3766184  29.3743777   4.5757705  58.2744503
  29.6124244   5.4390866  58.6124611  28.6174273   4.3137586  58.7984800
  10.9334648   8.4429967  65.1035690  11.7027736   7.9408813  65.3724098
  10.1964974   7.8509712  65.2539587   5.8509696  37.8918362   1.8843690
   6.6480845  37.3740792   1.9973627   5.6110275  38.1588769   2.7716959
  31.8033457  24.3700147  57.1989632  32.2712040  24.9532080  57.7966452
  32.4947786  23.9090729  56.7238998  80.4139805  27.6481533  14.8924291
  80.6534958  27.3165846  14.0270245  79.5656729  28.0714345  14.7603881
  61.3453960  45.4356384  23.9031339  61.0654593  46.3322115  24.0876055
  62.2885561  45.4408216  24.0664053   2.9272464  63.9861250  12.0460010
   1.9806954  64.0699053  11.9308734   3.1451172  64.6331501  12.7169156
  71.6921997  81.3481998   9.3473655  72.0189619  80.4591656   9.4854730
  72.1012640  81.8643284  10.0419939  74.9304771  46.0122633  60.2646399
  74.6346664  46.4931583  61.0376024  74.1402435  45.8979607  59.7367287
  77.6450825  67.6506329  14.8454881  78.1806469  68.1872892  15.4297841
  76.9236994  67.3447418  15.3952813  61.6410017  15.0694311  74.3622828
  62.5435305  14.8013473  74.5349360  61.6268158  16.0054576  74.5619917
   5.1210278  71.4105797   4.0126166   5.6926161  71.8133879   3.3589602
   4.2564762  71.7814636   3.8358968  35.2137423  12.5206959  59.7471809
  35.0258398  12.9470766  60.5833197  35.6320310  13.2013214  59.2199135
  48.6626291  18.5468137  66.0609818  48.1375599  18.8946426  65.3401852
  49.5674896  18.7304592  65.8085203  71.4333868  45.9159231  10.9499133
  71.1968374  46.7808199  10.6149077  72.2810459  46.0472298  11.3747251
  37.3227000  33.3592129  74.0782642  37.1648026  34.1745377  73.6022949
  36.7794037  32.7110863  73.6299419   7.9329425  48.8412237  62.6944494
   7.5142819  48.1398535  63.1934834   7.8349096  49.6182108  63.2448244
  75.8021927  30.7261300   2.3848392  76.5917969  30.4316974   2.8387851
  75.1958370  29.9889398   2.4563637  66.4489508   5.1787698  13.3603215
  66.0978031   6.0288000  13.0950391  66.6982603   5.2980584  14.2767537
  12.3673202  29.5908161  74.3806648  12.8088571  28.8224884  74.7425289
  12.2139169  29.3685480  73.4623526   0.3149488   0.8181389  47.0596933
   0.1504591   1.4886938  47.7226686  -0.0995848   1.1584276  46.2668562
  46.3945532  67.5405407   6.6289830  47.2462177  67.9029131   6.8730795
  46.2262392  67.8922987   5.7548147  55.3364754   8.3066833  74.1249609
  55.4722357   8.6156863  73.2292414  55.7630110   8.9655530  74.6728563
  54.2930603  13.8183153  71.7609549  53.5032415  14.3352592  71.6022539
  54.5830774  13.5502458  70.8890295  90.0210094  65.3459024  53.2277822
  90.6986904  64.9893665  53.8021183  90.1526165  66.2934113  53.2615089
  81.0278130  76.5934324   3.9965510  80.3894520  76.5030241   4.7040439
  80.6924534  76.0313654   3.2980886  29.8499751  13.9652014  51.7100954
  30.1705909  14.2737663  50.8626127  30.5525041  14.1787815  52.3241568
  72.3048830  59.4443703   9.0671706  72.4383974  60.3851461   8.9516294
  73.1891346  59.0815687   9.1191655  68.2586479  59.2638350  20.8220077
  67.8350306  58.8483286  20.0709176  67.5752735  59.3027830  21.4911222
  87.6234913  24.8979306   9.4992065  86.9521904  25.5190063   9.2166287
  88.1355667  24.7230482   8.7096369  60.9610796  56.4655590  16.1781335
  60.2701139  56.3687181  16.8334365  61.4654589  57.2240829  16.4722061
  12.6329970  56.1368465  16.4922523  12.7104402  56.9145584  17.0448840
  13.5181165  55.7734776  16.4647317  47.6158285  61.8435717   5.6471366
  47.3167419  61.5853834   6.5189844  47.2869825  62.7355528   5.5355155
  55.2364302  71.7889023  11.4919782  55.8949709  71.8445110  12.1844137
  54.8580456  72.6671457  11.4502168  84.8393536   4.8738340  12.9787743
  85.5971527   4.7959647  12.3992050  85.0891018   5.5484271  13.6102653
  11.2699425   4.9356958  70.0456429  11.4908314   4.3675399  70.7836390
  11.8151271   5.7125884  70.1699114  36.1554265  24.7353959  39.7574997
  35.6213307  25.5297303  39.7543454  36.5619755  24.7235727  40.6239939
  58.3196545  21.3407159  66.7111349  57.7254534  21.0353875  67.3966455
  59.0239525  21.7836237  67.1844530  33.0465841  34.6509314  69.2693520
  33.9330244  34.3654346  69.4905853  32.9687905  35.5190372  69.6650457
  50.3465891  76.9753695   0.6840984  50.8551645  77.4034262  -0.0046341
  50.4675388  77.5328350   1.4527556  86.1375523  32.6985455  12.7381611
  85.2810574  32.5006294  13.1169510  86.0420704  32.4910522  11.8086112
  81.0886574  32.6090503  30.5003285  80.8117199  33.1190062  31.2615657
  82.0126724  32.4190688  30.6625843  66.4433146  60.3809309   0.2298913
  66.0054874  60.9224033   0.8866618  65.9333181  59.5711946   0.2084163
  90.8016396  13.2528436  18.4260356  91.0319614  12.4311960  17.9923546
  91.6390133  13.6979759  18.5560465  85.9921455  76.7058849  37.3723316
  86.5553951  76.2271976  37.9804802  85.1036072  76.5384817  37.6865101
   8.4158939  56.6860914  30.0552893   7.6836610  56.7254019  30.6705308
   8.0323863  56.3430738  29.2481375  40.1746464  35.1177454  72.7832651
  40.3922415  35.6894755  73.5194778  40.5748987  34.2773175  73.0062246
  78.1894875  72.0393562  63.2704878  78.4132099  72.9557085  63.4332085
  78.1921482  71.6344976  64.1378450  14.6502507  60.3218222  64.0248775
  14.6633708  61.2776995  64.0734529  15.2429175  60.0384617  64.7210741
  51.1228943   9.9992412  59.9821424  50.1862478  10.0337350  59.7878742
  51.4962864  10.7317901  59.4920540  69.7644472  48.1273508  10.1864898
  69.2078829  47.8321743   9.4658422  69.5041323  49.0367174  10.3331900
  16.3439047   4.1063285  55.3368139  15.5157948   3.6263096  55.3299522
  16.4413428   4.4286525  54.4407988  81.5578461   4.0301603  55.2519178
  80.7535934   3.6794019  55.6345129  82.0469856   4.3763816  55.9983110
  48.0308151   4.7709674  70.3416395  48.4846544   4.9583527  71.1633158
  47.3406458   4.1538140  70.5845690  33.1576633  48.4827566   2.2942354
  33.7270784  47.7333498   2.4685585  32.2748828  48.1132603   2.2741811
  25.2836871  80.9657764  18.3800948  25.0377846  81.5932369  19.0598357
  24.5005846  80.4299355  18.2541513  77.8517580  17.6259005  43.1287718
  77.5806379  17.2598553  43.9706373  77.0424509  17.6836205  42.6209068
  41.8745184  22.6549053  69.9943209  41.6507149  22.1781564  69.1950369
  41.8385363  21.9937682  70.6855774   9.4835460  83.9184570  63.9736366
  10.1402390  83.2341766  64.1030598   8.7111419  83.6006641  64.4412184
  20.5504274  46.2676954  55.0603151  20.0511551  45.5936813  54.5991611
  21.3861179  45.8484459  55.2654600   6.1155868  76.7541361  67.7832460
   5.3647113  76.2062788  67.5546122   6.8753886  76.2591124  67.4768353
  54.1285896  61.2630749   6.8525434  54.5040751  61.6332197   7.6514405
  54.5126677  60.3885269   6.7902458  13.5606503  50.6130266  12.6462066
  13.3250666  49.8807573  12.0765471  13.0455804  50.4736185  13.4408748
  36.9451809  83.4170437  22.1209860  36.7408681  83.9345837  21.3421154
  36.1226773  82.9792309  22.3401809  73.7883091  82.7458477   6.4920795
  73.1053114  83.3584976   6.7648673  73.3415174  81.9016838   6.4288557
  11.0692108  39.0167212  10.8536983  10.5523205  39.7084117  11.2667608
  11.4914870  39.4453835  10.1092780  19.1605461   1.9718890   2.2389446
  19.2990601   1.0549260   2.0018272  19.9679494   2.2286989   2.6843441
  69.1457462  73.1006289  11.5832531  68.9912558  72.2221184  11.9305038
  70.0658560  73.2772684  11.7792726  77.6214647  83.2112789  50.3658485
  76.7810345  83.0865955  49.9249792  77.4772739  82.8833294  51.2534809
  22.4997115  30.2016973  44.3625307  22.8440428  30.1840067  45.2554798
  22.9057050  29.4480252  43.9342976  88.1681919  41.2884331  16.5217781
  88.8661098  41.1119890  15.8908987  88.4538174  42.0787382  16.9801116
  11.7959440  69.6763611  58.6597633  11.6884041  68.7273693  58.5958767
  12.7431107  69.8077106  58.7028313  12.0895994  58.3871031  27.2211838
  11.2119925  58.0347443  27.3691010  12.3979902  57.9390144  26.4335656
   9.2089045  60.9355259   3.2045114   9.1591704  60.7741117   2.2623312
   8.4763873  61.5244675   3.3856109  69.9266386  72.6801395  15.2397847
  69.8483038  71.8581533  15.7239723  70.4524326  72.4565697  14.4718087
  50.1030207  68.3739662  10.6524682  49.5929575  69.1152906  10.9788239
  50.9585094  68.4689760  11.0712087  29.4625282  10.5366600  74.6237183
  29.8778486   9.6799994  74.7230816  29.2359567  10.5867243  73.6950684
  74.2226744  68.4569407  10.9916890  74.8972893  68.1023645  11.5708292
  74.7040367  68.7654829  10.2240157  74.2975140  43.1359100  24.2298388
  75.0705576  43.6371279  23.9701915  74.1088533  43.4309626  25.1206732
  57.3488379   0.8471733  25.3964901  56.8947315   1.1968613  24.6298480
  56.9139862   0.0128212  25.5725360   6.1316931  18.8285947  57.6300383
   5.6925094  19.6633792  57.7927780   5.6675863  18.4559357  56.8803978
  55.5688286   3.5296464  68.8931322  56.0967398   4.2573410  68.5645008
  54.6829414   3.8864067  68.9576483  28.6537194  29.6986294  72.5492287
  29.4612718  29.1848040  72.5407839  28.4893847  29.9016690  71.6283560
   0.3833044  59.4642973   9.0068561  -0.4714230  59.2527580   8.6314571
   0.4434069  58.9164209   9.7894514  21.1515927  29.0733719  70.1659632
  22.0886493  29.2047787  70.0214291  20.8321857  28.7019134  69.3436337
   1.2988840  -0.0967687  21.3782692   0.8444545   0.2279421  20.6009078
   2.1992108   0.2116544  21.2757087  89.2640877  35.5206347  42.6560211
  89.2072201  36.3037968  42.1086168  88.3651257  35.1951623  42.7025890
  67.4400377  26.5517902  68.9419937  68.0879307  27.2505045  68.8510656
  66.7150450  26.8226337  68.3787298  75.1579142  31.2210035  10.2778792
  75.1931477  31.8397474  11.0073638  75.8390093  30.5782485  10.4758847
   0.9109356  33.2655764  23.6060548   1.3129424  33.7630677  24.3181825
   1.1821673  33.7240005  22.8107476  69.0847445  52.3114920  48.8805819
  68.4774542  52.6322651  49.5473146  69.7598076  52.9879236  48.8261652
  86.1884594  85.4180431  14.1605890  85.7336903  86.2460423  14.3150198
  87.1116924  85.6198597  14.3126917   6.5837383  52.8894329   8.9018619
   6.1269653  52.3275852   8.2758307   7.0419991  52.2800875   9.4805884
  36.9308090   5.6598389  64.1917419  37.7571845   5.8420920  64.6390915
  36.7416954   4.7451910  64.4012356  74.7828150  85.8442783   5.0657928
  74.6339273  84.9061584   4.9475342  75.6257963  86.0081768   4.6429998
  32.6152349  23.3781910  47.5767374  32.3025775  23.0620098  46.7290878
  32.2125793  24.2411375  47.6738358  32.1637058  73.2353306  71.2331820
  32.9957938  73.7064934  71.2763643  31.7868423  73.4914446  70.3913927
  29.3730903  28.4234476  63.4754610  29.3093681  28.1004620  64.3742657
  30.3064013  28.3739805  63.2687855  46.8747711  47.4356365  26.7721605
  47.4062824  46.6395712  26.7746305  47.4006939  48.0732727  26.2893963
  37.4265766  13.1325865  67.4982119  36.7611933  13.1538689  68.1859922
  38.1542659  12.6448429  67.8839636  62.1644402  29.6395469  53.6153078
  62.3056936  29.2215466  52.7658653  62.9976797  29.5357561  54.0748405
  36.3439131  12.9116213  62.4485350  37.0007634  12.4747419  62.9906750
  35.6836939  13.2162607  63.0710554  68.5879469  70.6913567  12.8219545
  68.2077360  69.8780394  12.4900138  69.5131111  70.6386280  12.5821221
  64.2959166  43.9994812  26.5932512  65.2151060  44.2623186  26.5459085
  64.3216896  43.0432415  26.6273880  49.2945004  69.1919231  61.8358135
  48.6890316  69.1996050  62.5771475  49.0744305  69.9797297  61.3386583
  21.0246229  56.6128969   0.7492132  21.4009142  57.4878883   0.6542438
  20.3568697  56.5638018   0.0651607  47.9004192  39.0912151  62.1804476
  47.6708889  39.5654416  62.9796076  47.3521852  39.4855714  61.5020990
   5.4799736  79.2291164   6.7907864   4.5261031  79.3028164   6.7602754
   5.6768215  79.0464830   7.7095509  68.5060930  34.2059684  68.4819317
  67.8762102  34.8799968  68.2266569  67.9872942  33.4038162  68.5421610
   9.5172364  61.0776663  14.4789302   9.4981843  62.0021677  14.7262561
   8.6714804  60.9250021  14.0574789   6.7457080  72.4781656  16.7395163
   5.8400661  72.4105740  16.4370656   7.2710311  72.2193241  15.9823716
  11.0856068  78.9626694   3.9644930  11.8690515  79.5125198   3.9750060
  10.3573310  79.5826626   4.0026444  13.9811778   7.3782068  32.1793032
  13.2121146   7.9464030  32.2232151  13.9351392   6.9795656  31.3102818
   0.4450233  68.7305117   4.1075969   1.3426602  68.6130333   4.4185296
   0.4195165  68.2688475   3.2694742  20.8430672  74.2999458  17.3528314
  20.6077027  73.7868547  16.5798008  20.0983644  74.1959858  17.9451489
  69.1619062  54.6205759  13.9484036  68.4153128  55.2182007  13.9075077
  69.9230385  55.1939774  14.0385032   2.5983778  71.1439657  17.2712529
   2.7716413  71.5707922  18.1103194   1.7732872  71.5271091  16.9734967
  18.6586547   2.2095339   6.0403818  17.8201365   2.6025069   5.7981193
  19.0573239   2.8439936   6.6359949  52.3599577  61.8685484   4.7616819
  51.6061163  62.3237944   5.1367950  52.8191757  61.5025282   5.5175769
   3.9074564  68.8281441   3.8732791   3.5135335  68.6619711   4.7296923
   4.2921951  69.7010803   3.9519250   3.6648327  53.1246376  31.0781264
   2.8364611  53.5338402  30.8279514   3.5885784  52.9872799  32.0223451
  11.6645432  69.2653990   5.5260533  11.4647150  70.2007675   5.4887843
  11.9493139  69.1170645   6.4277929  34.3991208   9.8265237  11.2373948
  33.7216759   9.9533123  10.5731452  34.4503951  10.6679404  11.6908491
  90.2345657  74.6336269  16.3469076  90.9727097  74.1364765  15.9944558
  90.6190777  75.4615688  16.6348207   5.9513468  82.3398781  21.9114733
   6.5950310  81.6342258  21.9743896   6.3655335  83.0818653  22.3520756
  61.5155220  28.3243513  62.4932766  61.6372252  28.3294272  61.5438604
  61.5993261  29.2425537  62.7504015  52.0832014  35.4369545  62.0558977
  51.1618090  35.5282784  62.2986317  52.3678970  36.3288260  61.8565321
  20.3921461  80.2683258   8.4898794  20.8358550  80.8895969   7.9124880
  19.6768057  79.9172926   7.9595095  42.8599548   9.9551696  12.1054780
  42.1233130   9.3861848  12.3287427  42.8840876   9.9513787  11.1485898
  32.1318507  26.1746550   5.7503116  32.3322845  25.2950883   6.0703415
  32.4577212  26.7587185   6.4350808  52.6028872  50.4432726  29.3045068
  52.1062660  50.2992058  28.4989977  52.9337120  49.5765305  29.5401788
  60.9488964  28.0253983  71.1336660  60.6230068  27.2326231  71.5597343
  60.4926062  28.0501223  70.2925825  86.3278484  75.9468079  16.1231554
  85.5131817  75.5674458  16.4527500  86.5947247  76.5673018  16.8013871
  61.8771791  56.2905502   8.5341829  61.6020298  55.6037998   9.1415566
  61.2274837  56.9843912   8.6469221  36.9706345  -0.2309429  29.1663313
  36.5566444   0.4081056  28.5862780  36.4768577  -0.1674986  29.9838829
  81.8709278  13.9203537  56.3937855  81.4966583  13.2016814  56.9033527
  81.8315983  13.6167836  55.4868507  19.1409159   0.3338787  11.9106269
  19.0632427  -0.5420970  11.5326512  20.0789547   0.4459037  12.0647871
  40.1926661  38.4018803   1.6512822  40.9629107  38.2017136   1.1194066
  39.9489903  37.5640106   2.0447642  20.0350714  27.4304962  61.1231279
  19.8431814  27.0788145  61.9924545  20.2258015  26.6591096  60.5894470
  71.3799906  18.2703245  60.0134993  71.9517040  19.0345073  59.9400282
  70.6125784  18.5900581  60.4879236  15.5007708   6.1001319  67.3595524
  15.5122507   5.7294238  66.4771271  15.4685116   5.3387678  67.9387903
  34.3850875  45.6780720  73.5399866  34.3705654  46.2377119  72.7635670
  34.0486217  44.8356819  73.2343674  77.9500723  11.1686635  36.9720340
  78.4674931  11.2781978  36.1742163  77.4716187  11.9927847  37.0622396
  31.2626982   8.2318789   5.5596149  31.8772674   7.7955437   6.1496538
  30.6795883   7.5335622   5.2620071  39.0450168  55.5746937  63.8244438
  39.0654588  54.6989965  64.2104197  38.6572933  56.1267519  64.5035124
  79.5418882  66.5553808  38.3769488  79.0848351  67.3375273  38.0677891
  78.8571978  66.0213947  38.7798095  37.9012442  54.4073820  57.6952934
  38.7533975  54.3332052  57.2656822  38.0091143  53.9399576  58.5236073
  87.8637695  47.3519802  28.0036259  88.6533642  47.6667166  28.4437656
  87.3710537  48.1465626  27.7984667  89.0454006  81.7650414   7.9350692
  89.7807980  82.2166252   8.3491904  88.2950974  81.9663811   8.4942979
  40.2574682  28.0962873  72.0859528  39.5079207  28.5475183  71.6976213
  40.5339956  28.6655688  72.8040648  45.9292126  21.0015130  60.2854681
  45.8026266  20.9050512  59.3415928  45.5118895  21.8360543  60.4990435
  91.3735104  70.1907158   0.0523677  90.6841755  70.7521009   0.4071759
  92.1127510  70.3136778   0.6478864  48.8665390  51.3839674   8.3883345
  48.9826155  52.3048258   8.6223912  47.9694986  51.3319302   8.0584252
  31.5578651  13.9122713  25.2372861  32.4363017  14.2266059  25.0233388
  30.9968495  14.6810424  25.1348996  47.5834656  46.9531918   3.6903369
  47.3335886  47.2514725   4.5648786  48.0878210  47.6798248   3.3244604
  73.6302423  36.8867087  64.5447683  73.7144661  37.1870327  63.6398125
  72.7879000  36.4327312  64.5690536   4.0424347  10.6505334   3.0242550
   3.3470637  10.0018108   2.9153991   3.8611126  11.0560191   3.8721555
  29.5271468  36.0015130  56.8503094  28.9685297  36.6479993  56.4187622
  30.4194856  36.2908745  56.6599560  72.0399570  37.7224922  71.0928726
  71.7729521  37.6683879  72.0104885  72.7884817  37.1296573  71.0258770
   9.9079865  77.0993137   6.8950188   9.4946110  77.0816898   6.0318607
  10.0214231  76.1771345   7.1251279  61.0868120  16.1695492  71.7079735
  60.1653719  15.9918475  71.5192795  61.1696959  16.0284698  72.6510811
   3.1048143  45.5350924   6.5056849   3.2006708  45.7678461   7.4291945
   4.0006518  45.5172300   6.1689538  28.6415792   2.8133988   4.4297150
  29.5753050   2.7217400   4.6194169  28.6067700   3.0333367   3.4987760
  67.4555349  81.1717987  31.4842892  67.4943304  81.9702148  30.9577417
  66.6954517  81.2963867  32.0526075  71.0349321  74.1969490   2.0273213
  71.9909668  74.2107725   1.9821858  70.8139086  74.8984337   2.6399425
  16.9772613  54.8072243  10.6930900  17.3380661  54.2756510   9.9835277
  16.1542857  54.3750477  10.9214866  57.8793289  85.9719055   1.4553183
  58.7981083  86.0988161   1.6919029  57.4407150  85.7910533   2.2866659
  87.9103947  74.6637917   8.6423385  88.8591385  74.6707582   8.5156220
  87.7687073  74.0424585   9.3565524   4.4918951  83.6992931   9.0342170
   4.8465917  84.3022728   8.3808917   3.9765814  84.2553616   9.6185774
   7.1981376  62.6932478   7.2930175   6.8277842  63.5372639   7.5512791
   6.5300059  62.0532990   7.5385845  42.0476484   5.9294438  20.0689602
  42.1060276   5.0374258  20.4111981  41.9175720   6.4754319  20.8443356
  51.4562654  37.5695348  66.0635710  51.5514374  38.5219646  66.0706615
  51.8051100  37.2876716  66.9092035  69.2753315  52.9510641  11.9450474
  69.1869402  53.6480951  12.5951004  68.4596014  52.9847145  11.4453661
  62.3452139  10.2417874  41.6774893  62.6551676   9.6533918  42.3659277
  62.0558929   9.6582836  40.9760237  87.6075363  46.7410088  51.1302853
  87.8719616  46.1267948  50.4454088  88.2180023  46.5758657  51.8488216
  78.0160522  13.1960452  72.9531002  77.0850420  13.0719864  73.1376600
  78.1063747  12.9840720  72.0240450   5.6562430  84.9944687   3.6481255
   5.9600121  85.7162380   4.1985831   5.4232377  85.4086018   2.8172010
  31.5580344  56.6633844  18.0302572  31.2038183  56.6086769  17.1426928
  31.4891386  55.7715511  18.3710265  76.2886667  19.8571420  37.8457856
  76.9550276  19.8713517  38.5328054  76.7849064  19.7627604  37.0327210
  61.9617510  33.5510349  55.8672285  62.6824617  33.3379698  55.2744293
  61.9483995  34.5077729  55.8938646  51.1170149  39.6186709  69.0979624
  51.0975027  40.4606009  69.5529413  51.0085583  39.8432565  68.1738234
  65.3486919  71.4700365  55.0192928  66.1872053  71.0109329  54.9707699
  65.4395628  72.2000885  54.4069242  13.1338990  72.1362305   8.6193901
  13.5588765  72.0497894   7.7660704  13.0243719  71.2356758   8.9247358
  79.6730614  74.4784451   5.5051893  80.3574467  73.8306189   5.3373617
  79.0762615  74.0439939   6.1145443  14.6533036  82.7913284  66.8972540
  15.0911880  83.1313705  67.6775503  14.8575914  81.8561840  66.8963146
  45.8078527  12.3942864  15.2050245  46.2526274  11.7724013  15.7809281
  45.0216198  12.6482034  15.6883419  90.5162525  25.5746841  74.4389296
  90.0613689  25.2125716  75.1993179  90.6366444  26.5004563  74.6503210
  20.1375699   4.5005703  -0.0979356  19.3764317   4.4333231   0.4785883
  20.6836200   3.7505865   0.1378297  89.8991013  78.6661530  26.4727807
  89.8619938  78.6933756  25.5166864  89.0225601  78.3882952  26.7386770
  86.8092728  40.4873180  57.3978043  86.1088657  40.1544905  57.9589462
  87.2592068  41.1379623  57.9367447  79.8428345   0.4343544   7.8521794
  80.5071354   0.9057644   7.3494780  80.2982616   0.1520804   8.6453629
  79.4455624  58.6588621  15.1658547  80.2108383  58.2124424  15.5281985
  78.7358570  58.4483290  15.7726645  60.5350304  52.4195337  22.2299266
  61.0033894  52.7988386  22.9735661  60.1319551  53.1696939  21.7928624
  50.5986309  38.3798194  60.7575464  49.7796965  38.2943654  61.2456846
  51.2669230  38.5059118  61.4311314  48.9017010  34.8183155  60.6228018
  49.5778751  35.0439620  59.9839735  48.1524563  34.5466208  60.0926638
   4.2362437  54.3542528   8.8460851   3.9591563  53.7257719   8.1794041
   4.9492604  53.9139748   9.3086779  12.2115076  81.8864346  67.9703569
  12.4343145  80.9654331  68.1057835  12.9055893  82.2196484  67.4016237
  78.9445591  59.8943853  12.3642755  79.6886921  60.4963923  12.3738956
  79.0576792  59.3611574  13.1511045  10.7650161  53.6660862   4.7901684
   9.8408937  53.5347271   5.0022441  10.8399606  54.6044970   4.6169519
  35.9080100  34.3212461  50.3471613  35.3877926  34.8340344  50.9657478
  36.5738106  34.9316764  50.0304365  80.3564453  83.4015560   0.5555471
  80.3726864  82.4797630   0.8129894  80.7813740  83.4182453  -0.3020030
   2.9871532  11.5241659   5.5928695   2.3112413  12.0443821   6.0273236
   2.9132885  10.6561816   5.9895802  81.6469669  69.1447878  39.2088723
  81.4022446  68.5330105  39.9031854  82.5623989  69.3583202  39.3894863
  29.8182559  15.9259677  70.6406879  29.7901559  15.0518131  70.2517223
  29.8098159  16.5218198  69.8916054  65.2284050  70.2190924  71.2544632
  65.4133892  69.2994976  71.4451408  64.4786167  70.4327202  71.8098116
  46.8672991  34.8647594  68.0584908  46.4084196  34.9491620  68.8942766
  46.3163280  35.3366756  67.4340248  74.9823332  24.4293690  33.0657721
  75.1184225  23.5260272  32.7799678  74.2054796  24.3896461  33.6235809
  27.6020956  82.9647350  72.5547743  27.5695133  83.7926102  73.0341482
  26.9052029  83.0379581  71.9026947  49.1855860  30.2864170  11.9647741
  48.9457893  31.0049200  12.5499940  49.4962263  30.7188869  11.1693466
  36.3983655   4.9917927   1.7922723  36.9500613   5.3058541   2.5086716
  36.8576694   4.2223048   1.4558801  63.9526463  64.0388918   3.9847794
  63.5592985  64.6820879   3.3950227  64.8926973  64.1026163   3.8160384
  62.5435543  63.2652330  60.8923817  63.2940626  63.5524082  60.3722906
  62.9048538  62.6164103  61.4963055  13.7414193   6.0089266   3.1678429
  13.3434343   5.1674128   2.9449213  13.0000687   6.6070998   3.2617590
  85.1064587  65.8144712   8.2409668  84.6244144  65.4145908   8.9648199
  85.1774311  65.1188803   7.5872469  48.9179420  13.4814465  66.2647200
  49.0808439  14.4027150  66.4671040  48.1666183  13.4956968  65.6718111
  43.9148045  28.4910226  68.0430984  43.6284208  28.4378958  67.1312904
  43.1026888  28.5522509  68.5460377  74.2077541  20.5814171  66.9677925
  74.1554832  21.2907910  66.3272572  74.3647957  21.0232854  67.8022528
  50.3126621  45.9171486  21.2377024  50.2535772  45.2625895  20.5417895
  50.8924437  46.5914869  20.8836508  83.2210350  77.3865747  18.2644165
  84.1380024  77.2755051  18.5155582  82.7293396  77.1995354  19.0640938
  65.1362801  32.9664850  45.8057690  65.4461288  33.6484766  45.2098560
  64.5871258  33.4314132  46.4370441  18.9439428  46.9514751  66.9866848
  19.6958280  46.6707754  66.4650440  19.3134439  47.5478601  67.6378584
  43.5860538  44.4713116  21.9440126  43.4786987  43.7090206  21.3751340
  43.7634850  44.1016102  22.8089237  49.0698195  19.1060579  56.8823910
  48.2519388  18.7155712  57.1903276  48.8545227  19.4653881  56.0217142
  61.7832518  45.2057457   1.8189089  61.6432714  46.0290289   2.2867152
  61.6652775  44.5286512   2.4851364  77.1802235   6.3553101  71.4998484
  76.2939119   6.2105334  71.1686039  77.6323080   5.5259693  71.3447952
  49.4525337   9.1197729  68.1474543  49.6112537   8.3141327  68.6393738
  49.8743153   9.8044485  68.6666393   6.1048770  34.4799185  39.2656064
   5.6643134  35.2708387  38.9548326   5.8635622  34.4188046  40.1898718
  17.0958841  15.5390954   0.1109585  16.9722867  15.4394019   1.0548952
  16.6938901  16.3829172  -0.0954343  26.1970496  34.0564179  59.5043421
  26.9643879  33.4969974  59.3840361  26.3385010  34.4779706  60.3519917
  16.5935254  67.0104933  64.8584700  16.7974448  67.8931141  64.5492268
  15.6381261  66.9606400  64.8275375  54.9938345   7.5481981  47.2752905
  55.3285313   8.1529498  46.6131067  55.5948162   6.8037766  47.2454071
  53.1081104  60.7748365  72.8971767  53.8899040  60.3823280  73.2857275
  52.4463224  60.7234859  73.5868359  63.7221670  37.1038008  67.2419596
  64.2064095  36.9262600  66.4355946  63.8004494  36.2969279  67.7509356
  82.7509785  61.4914751   4.4581124  82.6917744  61.0660553   5.3135324
  83.1451607  60.8306646   3.8887462  33.6035800  81.4751148  25.4068184
  33.9918590  82.1840954  24.8941684  33.6311436  81.7899704  26.3103342
  20.1882768  27.9678035  72.4180079  20.5939746  28.5454869  73.0644751
  20.6943417  28.1106114  71.6181707  37.5895667  17.1456814  26.8891788
  37.4285698  18.0776238  27.0368123  38.2217574  17.1226907  26.1708212
  75.4981709  42.5387144  69.3764210  74.9644661  41.9490671  69.9090624
  75.4574919  42.1680069  68.4948540  89.2726898  72.2466993  11.8431425
  89.1882992  72.2345257  12.7965367  88.4521866  72.6314449  11.5349567
  13.9035833  51.4328575  32.5946355  13.1618690  51.1240339  33.1149411
  14.6513057  51.3826990  33.1901407  68.0921936  39.8069119  10.4311800
  67.4960279  40.1707506   9.7766280  68.9220619  39.7001624   9.9662519
  54.3250561  48.7542868  69.8987293  54.6703148  47.8988791  70.1542854
  54.8010349  49.3781710  70.4468536  70.7149315  77.5589514   6.7433339
  71.2262964  77.4226856   5.9457326  69.8211002  77.7037668   6.4329684
  69.1478872  83.7413502  16.4746845  69.6404362  83.3152008  17.1761286
  69.8061991  84.2346382  15.9852767  41.5475082  64.9190044  56.4210558
  42.0075989  65.6986809  56.1101723  41.8276930  64.2227364  55.8269691
  36.9781542  13.0579674   1.0211671  36.3003564  13.6218655   0.6485553
  36.5026832  12.2912633   1.3410485  17.2113705  68.4457445  31.2532997
  17.3033953  67.8651237  32.0087099  17.8010118  69.1764021  31.4395738
  16.4719510  66.2731647   0.5636197  15.8043814  66.5514088  -0.0634059
  17.0372713  65.6828690   0.0654298  43.9977121  64.5949411  23.5774374
  43.7770462  64.1518784  22.7581501  43.1987143  64.5407963  24.1017509
  55.4121542  28.4714007  73.3087969  56.2409306  28.0066395  73.1932020
  54.9247408  28.2957006  72.5039434  16.1735082  31.8047857   9.7752774
  15.9553158  31.5201998   8.8877892  16.5305769  32.6858044   9.6633065
  48.4019089  53.5110235  64.5063353  48.1985950  53.4379721  63.5738373
  47.9299450  52.7837944  64.9120665  19.7506821  24.6373343  24.9159956
  18.8092792  24.7479796  25.0492167  20.1165557  25.5108547  25.0550413
   7.1375436  50.3755903  16.1633873   7.4100477  50.9708118  15.4650450
   7.2390038  49.5016384  15.7863677  79.0056515  76.7596960  20.7460570
  78.4715700  75.9774160  20.8840108  79.2784882  76.7049837  19.8301983
  13.6093307  73.7590837  28.4493971  14.1809106  74.1727257  27.8025365
  12.9271853  74.4093609  28.6168814  56.9938278  70.8318663  67.5332975
  56.3323355  71.3704443  67.0990181  56.5461349  70.0065947  67.7196550
   3.7401885  59.0796280  31.3501310   4.5622641  58.8746643  30.9046960
   3.7079996  58.4688616  32.0864487  66.2248087  24.5803428  55.3105402
  66.6329002  24.9843526  54.5447254  66.8452024  24.7360516  56.0226488
  32.9954338  21.1752915  54.6561050  32.6784658  20.2991009  54.8753166
  33.7506676  21.3071227  55.2292299   3.3029497   2.2452317  65.5506516
   4.1467142   2.6844609  65.6572866   3.1830281   1.7560291  66.3646126
  21.1511184  86.2922304   4.4027060  21.5831424  86.1253128   3.5650155
  21.7150022  85.8706686   5.0512034  25.4305339  -0.1173594   1.8861000
  25.1515675   0.7831401   1.7202400  24.6566868  -0.5438941   2.2541493
  62.7875710   6.8197596  49.8608160  61.8670321   7.0777565  49.8131704
  62.8797626   6.4197713  50.7255363  23.1074667  16.3650775   5.6568599
  23.2665014  16.2395763   4.7213441  22.8951740  15.4906058   5.9831458
  68.2775211  44.4444942  72.5467348  68.7694883  43.9245558  73.1822395
  67.3681831  44.3823624  72.8390980  27.9182816   0.6976159   2.1492603
  27.9477835   1.6179994   1.8880023  27.0413208   0.4059089   1.9001059
  10.2056658  76.3254690  72.3458385  10.0685477  77.2095490  72.6861763
   9.3295038  75.9410334  72.3178387  86.2726784   6.3774681   4.9960947
  86.9245529   5.6861919   4.8801798  86.6861820   7.1601295   4.6318328
  88.3484364  14.5708990   4.6843302  88.7498665  14.2136884   3.8921902
  87.7849197  15.2776802   4.3694603  49.4231987  36.8164420  62.6980209
  48.8413000  37.5495195  62.4974585  49.0754461  36.0872173  62.1846676
  45.8420610  12.9694271  65.3816986  46.4216328  13.0310047  64.6224022
  45.1260662  13.5738623  65.1861382  91.2804317   7.1777195   1.3731022
  91.7557430   6.3475591   1.4069946  90.6192493   7.1034193   2.0612518
  64.5923567  30.0760436  61.7501640  63.8392210  30.5308557  61.3731241
  64.5883656  30.3303528  62.6729584  89.3529606  79.1206121  12.2335958
  89.7769547  79.9458218  11.9980240  89.5870113  78.9846277  13.1517231
  50.0457382  53.4736824  42.3708916  49.5887518  52.8357363  42.9189968
  50.7106400  52.9614162  41.9107533  13.7733316  23.4926319  55.7207346
  14.5436931  24.0178967  55.5042315  13.8582444  23.3179617  56.6580248
  52.4657059  74.6858311  69.0677595  52.0470333  75.2816486  69.6890116
  53.0040836  74.1115332  69.6123362  51.6384602  71.9190550  69.3760157
  51.7128181  72.8706598  69.4477844  50.9306574  71.6880655  69.9775887
  28.4376431   6.2125796  10.2945244  28.6717582   6.4284688   9.3918544
  28.7584591   5.3192431  10.4180551  33.0220437  10.2716982   2.2003283
  32.6898885  10.4768538   3.0742940  32.5744772  10.8900261   1.6227590
  68.9006615  59.6850824  54.4111300  68.8596773  59.1677666  55.2154541
  69.7941256  59.5601034  54.0912390  10.2022326   4.6803802  -0.2772544
   9.8336411   3.9249745   0.1807128   9.7757155   5.4364765   0.1260240
  40.4697084  37.5760531  24.2916775  40.0223303  38.0115366  25.0172377
  41.3689566  37.9011726  24.3350363  29.0824556   1.9853336  53.0255604
  29.8428822   2.3004822  53.5140896  28.3626437   2.0179391  53.6556721
  77.9737043  44.4800282  57.2605991  78.7711859  44.8851681  56.9198370
  78.2670450  43.9741039  58.0183697  45.8431768  29.9378181  23.1190300
  45.9289694  29.1137600  22.6396561  45.8621073  29.6816039  24.0411067
   0.8188408  66.7255163  73.3546734  -0.0192322  67.1249104  73.5877991
   1.4219311  67.0181656  74.0379524  59.6956778  60.2298403  63.6149931
  60.2812576  59.5731258  63.9918900  60.2701902  60.9611368  63.3883190
   3.4913766  63.5308647  67.6914120   3.5390073  62.9789305  68.4720087
   3.9760554  63.0446768  67.0243740  32.0125151  13.8883293  10.7285941
  31.0615993  13.7999690  10.6639445  32.1731114  14.8267937  10.6299746
  39.4378543  21.1488032  30.3125787  40.3927612  21.0831022  30.3045321
  39.1350532  20.2602315  30.1255465  65.4431057   7.4855554  23.0160260
  65.4608107   8.2907069  22.4986768  66.2870312   7.4723560  23.4675145
  52.3675871   9.1111982  16.8891251  52.3304033   8.8780147  15.9615076
  52.5379753  10.0531042  16.8926716  42.3580885  63.3872223  72.8859186
  41.9242764  62.8169060  73.5205650  41.6895962  63.5599661  72.2229671
  74.2977905  29.0977120  27.6649547  75.0649118  29.6392274  27.4791670
  74.6538019  28.2223916  27.8176093  32.0157504  42.6847172   3.3162364
  31.6347575  43.1947184   2.6014096  32.1857858  43.3274364   4.0048826
  23.4782648  56.0337257   9.2298394  24.3687916  56.3657761   9.1161031
  23.4669304  55.2079296   8.7459368  30.5833983   8.1700164  74.0377283
  31.4746475   8.0234706  73.7208223  30.0581551   7.5060964  73.5910082
  49.2179775  36.2087679  65.4046297  49.9598885  36.6836882  65.7791328
  49.4234514  36.1402845  64.4722509  84.0466213  26.5680528  49.1690397
  83.7281609  27.3016787  49.6949768  84.9024868  26.8552136  48.8508081
  48.0793238  34.5272756  71.3080025  48.2712030  35.2243185  70.6806707
  47.4924469  33.9358521  70.8368063  28.0336618  71.7911911  33.1056142
  27.3042202  71.3726473  32.6484895  28.1711531  71.2501144  33.8831544
  36.5461206  84.3861866   4.9758503  36.1705899  84.7547817   5.7754427
  35.8365512  84.4314766   4.3349981  46.1450529  14.3701828   4.3568930
  46.2446117  14.7639894   3.4901544  47.0414829  14.2561197   4.6725458
  58.9745712   8.7400758  16.2528360  58.1515741   8.3272403  16.5145159
  59.1074467   8.4570682  15.3481352  77.3262024   3.2923466  26.9909120
  77.7674055   3.6482000  26.2195873  78.0344152   3.1062379  27.6073790
  15.4807687   8.8894993   1.7337997  16.2676215   9.3385607   1.4248669
  15.4010773   8.1256014   1.1625370  21.2994242  30.0838923  49.5104885
  20.4795694  30.4605341  49.1907787  21.5875411  30.6852627  50.1972008
  37.9606009  53.1142092  64.4185400  37.1049738  53.4968996  64.2244244
  37.7655745  52.3638678  64.9799538  45.1589012  18.6749339   4.3482232
  44.7667980  18.4417737   3.5067207  44.4163799  18.9290929   4.8962209
  39.2902970   9.5112801  66.4912462  39.0721083   8.5878605  66.6174269
  38.5584784   9.8632270  65.9844875  54.8313713  66.0122156  67.5671673
  55.4102039  66.6301298  68.0136681  55.2523947  65.8578730  66.7215014
  45.7451868  83.1821156  63.0842924  45.2490139  82.4043179  63.3393764
  46.3203382  82.8794956  62.3815441   7.7855140  50.8058834  54.3186140
   8.4832239  51.0349846  53.7046528   8.0907583  51.1380339  55.1628494
  77.4831343  34.3667722  71.0642576  78.0669260  35.1089168  70.9072828
  76.7903328  34.4646692  70.4110575  33.0784655  18.3716762   0.8116122
  33.2872677  19.3016541   0.7234301  33.4592247  18.1194293   1.6528182
  61.3263321  27.3279715   2.2517541  60.9299612  28.1869674   2.1059902
  62.0285702  27.2751045   1.6034496  24.3339443  69.9991179  20.4130292
  24.5887113  69.7664022  19.5201862  23.3787274  70.0529814  20.3832006
  20.7619190  68.3601236   5.0313467  20.5536580  68.5067558   5.9540379
  19.9897456  67.9176760   4.6789026  76.5897512  60.3446865   3.2186136
  76.9506693  59.8730755   2.4679132  75.6548119  60.4195070   3.0275092
  86.9136620  83.0247688   3.7198570  87.5809288  83.7026787   3.8267589
  86.1011028  83.5093307   3.5743204  13.9945138  12.0474005  10.4831588
  14.8612082  12.4201143  10.6448865  14.1249776  11.4476275   9.7486627
  68.3224535  83.4795094   1.0943235  68.6959839  82.7816391   1.6325456
  68.4408140  83.1769657   0.1939395  14.6820939  69.3782568  41.8863106
  14.3273890  70.2528143  41.7264271  13.9795709  68.9144754  42.3419380
  64.0467691  65.7921076   6.4576226  64.7149372  65.7191706   5.7761073
  64.4246340  66.3925314   7.1002275  37.1142387   1.9249703   3.9858323
  37.3054433   1.3804758   4.7495064  36.8358159   2.7637815   4.3534023
  75.4562473  11.3643682  15.4130638  75.2601719  11.0712469  16.3029325
  76.4090872  11.3032842  15.3452611  83.5274887  75.8664513  29.3754697
  83.6592674  76.8064785  29.4988298  82.6327229  75.7915306  29.0437818
  73.0330276  65.0612259  60.7879162  73.4882450  64.3239689  61.1946917
  72.2171926  64.6857452  60.4567671  38.3993506  62.0017099  70.8148479
  39.1796780  61.6183090  70.4144478  37.8698516  61.2485266  71.0767174
  23.9380836   7.1240449  17.4020588  23.9908648   6.2207955  17.7144468
  24.6115327   7.5889468  17.8986120  17.3536634  37.3274708  63.7013769
  17.5529134  36.9427681  62.8478384  17.0048296  36.5999722  64.2164421
  36.6602492  25.8797240   2.4152166  35.8945632  26.2950277   2.0183799
  36.5187883  25.9675765   3.3578208  77.0694780   9.9852169  71.5621233
  76.9386530  10.8982825  71.3063335  78.0202150   9.8759753  71.5822077
  36.6917849  50.9287357  62.5228262  37.6432800  50.8275414  62.4974346
  36.5017557  51.1807394  63.4264946  59.5994186  22.9037237   0.9896395
  58.7545395  22.9116917   1.4394771  59.5017338  23.5443616   0.2851723
  62.0273161  15.6787634  17.4500334  62.0197964  14.7259641  17.3586690
  61.4270163  15.9891224  16.7721307   4.7762460  46.5679264  37.5322223
   5.0111288  47.4183607  37.1609735   4.0623596  46.2533808  36.9775534
  73.4874392  64.4371319  29.9964571  73.5918474  64.7857141  29.1111207
  73.9900208  63.6224890  29.9939322  74.6771765  22.6832223   1.4601168
  74.2093372  22.6222539   2.2929692  74.8652124  23.6162829   1.3587743
  89.6157551  71.7622232  62.1978283  89.8098469  72.6986408  62.2388411
  90.2714634  71.4077854  61.5972805  24.8274875   5.2531362  14.0841615
  24.7765899   4.3236139  14.3069410  25.7638454   5.4514211  14.0963137
  29.0522480  27.1197677  51.5440035  29.4513226  26.2556410  51.4427185
  29.4818068  27.6610899  50.8816719  15.8741283  78.8204718   7.4528259
  15.1227129  79.3621731   7.2116476  16.3230634  79.3227386   8.1328368
  50.4962206  36.7838550  73.3173275  50.8673573  35.9712744  72.9735231
  50.6037712  37.4158573  72.6065254  38.5913253  11.7992997  14.4952655
  38.2306671  11.3439059  15.2560377  38.7435842  12.6933897  14.8012912
  20.1313901  76.4493132   8.7203687  20.8008361  75.8105135   8.4753931
  19.4863784  75.9429121   9.2140782  13.1005526  41.0305262  67.6116514
  12.2731614  40.6623602  67.3016310  13.7597215  40.3836155  67.3601770
  23.8274288   2.1237300   4.9795073  23.8581395   2.1552728   5.9356946
  24.5742106   2.6523903   4.6983173   1.1660818  80.7753372  43.4859371
   2.0424697  81.1578369  43.4426308   1.1520619  80.3022766  44.3179512
  20.7741475  80.9459591  68.9907408  20.2392554  81.4921379  68.4147024
  21.6488862  80.9740257  68.6030817  26.5652800  12.6521456   4.6358100
  25.9408975  12.7493036   5.3547931  26.3166046  13.3316350   4.0091634
  15.1620293  14.9032736   9.7578609  15.6243968  15.7272840   9.9110073
  15.5981708  14.2736268  10.3319311  52.7783823  18.8617289  22.3609138
  53.5656261  18.5632408  21.9055271  52.6864815  19.7792411  22.1040916
  67.6551580  64.7261620  68.1435823  67.5561619  65.6501436  68.3731174
  67.8277063  64.7304106  67.2020721  61.4744902  65.5014181  74.3139887
  60.7100582  65.9465408  73.9482832  61.1184788  64.7154379  74.7283840
  41.1753702  47.1973276  17.1001983  42.0133638  47.6188374  16.9096053
  40.7389688  47.7953672  17.7069414  84.2992115  15.9724426   5.7284766
  84.5266247  16.6628313   6.3512754  84.5028496  15.1581836   6.1886328
  33.8335443   3.3374956   8.7527674  34.7264194   3.3715591   8.4094840
  33.9260888   2.9492816   9.6228004  22.8126860  13.1200171   5.5951500
  23.6036706  12.8139019   6.0388511  22.8746200  12.7516007   4.7138637
   8.9360845  54.4368601  11.9348288   8.8212019  55.2437925  11.4329410
   8.0635130  54.2406893  12.2759545  36.7104506  13.0479062  11.6172898
  37.0225263  12.9015005  10.7243145  37.1437478  13.8556540  11.8930233
  38.5390043  85.0525188  63.2138824  37.8340173  85.2852440  63.8180876
  38.4200120  84.1158962  63.0563545  11.4808786   1.5727109   5.3214735
  11.9226396   0.7601564   5.5681193  11.5334034   2.1210359   6.1042970
  43.8062811  46.2139130  72.0444822  44.1621113  47.0707083  72.2801018
  42.8763771  46.3761711  71.8857813  43.6117125  17.2505474   2.5970373
  43.9470053  16.4418662   2.2099406  43.0959368  16.9601190   3.3492744
  10.4480326  17.1041548  70.6720352  10.5718493  17.0455611  69.7246885
   9.6001774  16.6885149  70.8289337  58.7821436   7.3699868  61.8040800
  58.2145357   6.7417431  62.2505808  58.9854479   8.0254650  62.4713516
  73.3417606  72.3449135  14.3938828  72.9982519  72.2041941  15.2761698
  74.2899799  72.2549391  14.4888639  80.3535748  46.7598820  63.1964397
  79.7449207  46.9162369  62.4744129  79.8428583  46.9449568  63.9845657
  35.2281165   0.8490316   7.4003923  34.5787525   0.2325492   7.0620012
  35.0647354   0.8755127   8.3431745  59.1499662  32.5821543  18.3942032
  59.1790581  31.8040276  17.8375113  60.0619841  32.7333093  18.6424124
   8.7567556  23.9641643  26.6304040   8.0375963  23.7871408  27.2367907
   9.4880193  24.2177153  27.1936083  27.5537062  33.5033035   5.7703578
  27.2693205  34.3528628   6.1074126  28.3677030  33.6912942   5.3031325
  71.9909573  69.8700523  54.3478251  72.6463747  70.5449057  54.1710854
  71.5046024  70.2004910  55.1031399  41.0641670  31.4616179   4.4360974
  41.9660378  31.7439175   4.5882887  41.1489487  30.6141734   3.9991987
  88.3677292  38.1785178   5.3238767  89.1004562  38.7819147   5.2003825
  87.5914478  38.6988950   5.1169455  18.8858628  82.0307350  28.9639187
  18.9309192  81.4017868  28.2437563  19.8001003  82.2317314  29.1639233
  57.6208305  18.1889641  16.4013994  56.9853020  18.1768870  17.1170712
  58.0150890  19.0600646  16.4458621  26.2376976  13.7187743  53.6606741
  25.4368997  13.8298678  53.1482124  26.7544413  13.0849874  53.1631613
  46.4230967  36.3557124   5.7416487  46.1345148  37.2423816   5.5253881
  45.9758520  36.1519217   6.5630329  37.6056576  24.0537167  11.6881323
  37.0557165  24.7908187  11.9536066  38.4128404  24.1639185  12.1906686
  77.8115559  51.2160015  74.7098684  77.6959467  51.1154032  73.7650204
  76.9897079  50.9015131  75.0865602  72.4202633  31.4448714   6.7097020
  72.7726698  32.0398402   7.3715580  71.5252972  31.2675643   6.9992316
  75.4430103  41.2090826  67.0522833  75.4580641  40.2531481  67.0054245
  75.2710819  41.4902544  66.1536121  48.4531164  46.3315487  31.5320373
  47.6368380  46.4197779  32.0241141  48.3918858  46.9957113  30.8454752
  40.1443720   7.9928565   3.6713028  40.9472036   7.7419484   3.2144228
  40.3845930   7.9880524   4.5978567  84.4496632  49.1944933  55.9174490
  84.3815422  49.7186899  55.1194429  85.3319931  49.3697834  56.2445736
  56.9311047  65.7102823  54.9789858  56.0975409  66.1797905  54.9479485
  56.6875029  64.8009300  55.1520920  64.9981117  23.2127476  33.4447384
  64.7606897  24.1258955  33.6060524  64.2291880  22.8375816  33.0155087
  57.4638510   3.1305787  54.4353580  58.0436850   2.3763184  54.3299103
  56.5884495   2.7863485  54.2581511  29.2876053  16.4118874  -0.1190219
  29.4966936  17.3376262  -0.2436038  29.5325184  16.2310457   0.7884721
  86.0685730  44.5022011  71.4499903  85.6007099  44.4692373  72.2844028
  85.5200386  45.0508308  70.8893299  76.8964672  53.9506769  68.3769369
  77.3601389  54.3044281  69.1359472  76.0821438  54.4523096  68.3385468
  34.5774102  40.7372665   8.7378836  35.3949618  40.8161354   8.2463318
  34.0078020  41.4100409   8.3648580  67.8648472  41.7837715  69.3168783
  68.0401039  41.6878223  70.2529907  67.8002691  42.7290678  69.1809511
  83.8849640  52.5037336  26.0412979  83.6070824  51.9109631  25.3429866
  84.7106171  52.8728151  25.7277560  39.1378498  81.5191078  57.3911905
  39.2249513  82.4599838  57.5441933  38.4507942  81.2405777  57.9966736
  50.6068277  22.7505207   4.8906934  49.8469973  22.4334359   5.3788978
  51.0257292  21.9569111   4.5576170  38.7898803  62.1453524  18.2565677
  39.0494156  61.3008356  17.8882349  39.1368198  62.7916479  17.6416194
  23.2059121  10.1174355   5.5978864  23.7920737   9.7635412   4.9290031
  23.5339284   9.7539616   6.4203966  84.1311264  74.5208120  56.1749411
  84.0783501  75.4527712  56.3868427  84.9988842  74.4124460  55.7857418
  55.3832150  40.8418941   1.5932564  55.1113939  39.9912930   1.2485537
  55.0930977  41.4715815   0.9332889  42.3492432  41.7343903  26.5795517
  42.7924013  42.4574804  27.0233774  42.9660130  41.0045815  26.6361761
  37.7726579  72.7029896  55.1673174  38.1193495  72.3015928  55.9641361
  37.9308271  72.0525408  54.4831133  47.5253105  39.6139932  30.7404065
  48.2490778  39.7167873  30.1224852  46.8138933  39.2452693  30.2168036
  63.8046312  34.2433834  67.9905891  63.5848475  33.9602137  68.8781357
  63.0595875  33.9638591  67.4586058  49.0130472  44.8695755   6.3174331
  49.5727396  45.6406736   6.4090282  49.4306517  44.2041826   6.8643278
  28.6351132   5.8117062   1.3339359  28.9913821   5.4805273   0.5095414
  29.4061327   6.0255623   1.8593207  80.6393147  68.6890268  47.7931929
  80.8136749  69.0126896  46.9094086  81.1248302  69.2828083  48.3658457
  46.4517225  46.9632192  74.2256630  46.7145289  46.6985042  75.1071903
  46.3335205  47.9112063  74.2855025  37.0948958  66.8186808  60.5742598
  36.7410707  67.6975107  60.4375315  38.0048156  66.8788862  60.2833033
  29.9139643  71.4800310  65.5812788  29.5147371  70.6370831  65.3661489
  29.4711590  71.7570114  66.3834238   2.1789393  52.3741102  73.2156944
   3.1321722  52.4241495  73.1444550   2.0050631  52.4414396  74.1545582
  25.3147888  59.4067526  32.1766210  25.5054736  59.4557905  33.1133533
  25.6958318  58.5740757  31.8979001  87.8578663  74.2279148  66.0693741
  88.5006142  74.9241877  66.2047243  87.5436878  74.3624783  65.1752758
  23.9678931  28.7208152   1.2130499  23.3976960  29.0589523   0.5225658
  24.3758440  29.5003939   1.5899640  53.6957359  56.3250637  74.0936661
  53.9141226  56.3652420  73.1625795  53.8023472  57.2243643  74.4037056
  79.1583014  63.8794279  49.9164915  79.5906878  64.0898371  49.0888453
  78.4721661  64.5411825  50.0032711  60.3664017  37.9885626  13.4106851
  59.7560310  38.3372855  14.0603554  61.2311888  38.1216788  13.7988186
  15.9323061  77.9162836   0.3023546  15.8277774  78.5545015   1.0080369
  16.8746185  77.7522278   0.2654305  48.6699629  49.2807341   2.0985669
  47.8923416  49.7276640   1.7642076  49.1681290  49.0483046   1.3149633
  58.1441355  27.9587746  72.9527998  58.7035561  28.6520553  73.3030033
  58.4505081  27.1620631  73.3859491  19.7121787   0.9294001  50.3030968
  20.1604438   1.7107046  50.6269073  19.1055250   1.2588400  49.6400213
  50.7605457  82.5500298  51.3231993  51.4292765  82.5976944  50.6400061
  49.9302721  82.6012611  50.8496428  72.1148491  40.8881187  59.5461655
  71.9682646  40.2489376  58.8488913  71.3520432  40.7985497  60.1174259
  61.5125465   6.3527983  59.1989422  61.8777657   5.4835826  59.0336800
  61.6812468   6.5108305  60.1278114  70.8224440  65.5983305  48.9360142
  71.5727329  66.1605883  48.7432337  70.1206064  66.2065744  49.1677427
  48.4782839  84.9548531  49.3290424  47.5945568  85.2018833  49.6015024
  49.0541172  85.5256748  49.8377848  32.2467113  45.3165960  70.8373547
  32.9475307  45.9212065  71.0813570  32.2176838  45.3568316  69.8814440
   2.5820538  70.1353550  62.9724312   3.3380845  70.6582403  63.2393456
   2.8859636  69.6485376  62.2063541  11.0929656  11.0263455  64.4822407
  10.3358877  11.2926388  65.0039244  11.0736942  10.0695682  64.5031977
  39.7534204  10.0173616  25.6305814  40.2547979   9.4335657  25.0613379
  39.0071988   9.4904339  25.9164715  41.1099577   9.9429756   1.2861010
  40.2653599  10.2777302   1.5874703  41.5527916   9.6563351   2.0848286
  13.2774007  17.6174295  63.4822416  13.4966087  16.6857827  63.4676361
  13.9703143  18.0345726  62.9702902  13.3665192  50.5686569  66.4476776
  13.4548819  50.4270220  67.3902082  13.5284340  51.5046835  66.3299131
  27.0588899  86.1080647  20.0466728  27.3696637  85.3209877  19.5992696
  26.3034749  86.3932705  19.5326352  70.1939631  67.1735907  58.5782909
  69.5744944  66.7756128  57.9666519  71.0544395  66.9045401  58.2566929
  74.1969442  70.9788609  56.7437363  74.7684574  71.6993284  56.4781570
  74.7035265  70.5008316  57.4003124  51.3850355  76.8055534  71.3389635
  51.5122557  77.6015997  71.8550587  52.0870590  76.2205935  71.6239548
  41.2202263  16.5400434   9.7256398  42.0762777  16.8858647   9.4730294
  40.7902288  16.3350534   8.8953906  75.6762123  18.9628005  63.7660503
  74.9237585  19.3893230  63.3560228  75.9712744  18.3229721  63.1181383
  53.1009483  37.9759693  68.3772755  52.2800779  38.3949614  68.6358404
  53.6804867  38.7035513  68.1514645  40.2207088  26.5189886   2.3220077
  39.4898772  25.9037542   2.2619659  40.9677935  25.9790015   2.5798938
  60.9429836  76.1784172  71.6938400  60.7606792  75.5650377  70.9819698
  60.5326986  75.7820654  72.4624777  53.7976694  57.8997946  27.5577760
  53.7720728  57.9976320  26.6059351  52.8776598  57.8722572  27.8205466
  41.1303616  39.8667932  22.2370410  40.8540201  40.6864023  21.8270326
  41.2056637  40.0779819  23.1676126  39.7285461  23.1877112  15.9476876
  40.3753233  22.4959087  16.0866821  39.8243356  23.7614036  16.7079079
  13.1544306  86.0324971  69.1787815  12.8657057  86.9191133  69.3950748
  12.3493721  85.5671594  68.9516735  14.9684954  16.8649065  15.6273901
  14.1249979  17.3137164  15.6849527  15.5173838  17.4523056  15.1078558
  60.3381062  14.6435487  55.5761480  59.5121241  15.1256311  55.6159449
  60.8568335  15.1108074  54.9213076  78.2981110  25.4740787  43.0330753
  77.9706955  26.3735294  43.0373096  79.2406797  25.5629659  42.8920078
  16.5583277  69.6941090   7.5066531  15.7900572  69.9780941   7.0113289
  17.2682488  70.2514887   7.1879441  54.9725628  69.0336943  39.0812564
  54.3780899  69.7352982  38.8155723  55.7410097  69.4885635  39.4259453
  62.8081656  44.7993469  33.1233954  63.1700945  44.6204519  32.2555041
  62.7746534  43.9431572  33.5500622  52.6811743   2.6760039   6.2118685
  52.0075130   2.6012871   5.5359769  52.4640751   3.4832337   6.6782153
  56.9312000  27.0749140  10.5460119  57.2815561  27.3073554   9.6860969
  56.1067772  27.5574303  10.6071532  73.6051512  28.2861567   9.9809408
  73.0341339  29.0326643  10.1623130  74.0579033  28.1242704  10.8086133
  21.3005066  29.8084593   7.4544108  21.7164016  30.4928899   6.9301808
  21.5775466  28.9898872   7.0428050   9.3370169  71.0199785  58.3435869
   9.5746291  71.3462687  57.4756527  10.1047277  70.5265999  58.6324263
  79.9551821  71.5045738  60.8913898  80.3279495  70.6229544  60.8964491
  79.5916748  71.6159630  61.7698479  31.1867380   6.2640309   2.3977251
  31.7946672   6.8200028   2.8851157  31.6910267   5.9627920   1.6419606
  12.8330505  83.4259033  61.3396931  13.2709217  84.1042423  60.8255291
  13.2734561  82.6137829  61.0892153  44.6803045  78.3650398  68.4571266
  45.2888346  77.8142262  68.9495945  44.7186136  78.0244970  67.5633717
  56.1918116  67.8893042  52.2104502  55.9702253  67.9344082  51.2803411
  56.8886232  67.2348547  52.2591972  68.3012486  40.2190828   2.8173566
  68.8406610  39.5316505   3.2081240  68.3689594  40.9529400   3.4281796
  66.3417149  16.0521162   9.4756848  66.0472965  15.3863800  10.0972521
  67.2196054  15.7692552   9.2197084  68.8524342  61.1835575  52.1107531
  68.7583017  60.7040596  52.9338264  68.2497597  60.7468271  51.5088558
  36.8046808  48.8760853  70.7483292  36.9410062  47.9345894  70.6423235
  37.6450896  49.2054129  71.0668993  10.5318367  50.4710007  36.0312676
   9.7563267  49.9474144  36.2329531  10.1954842  51.3580990  35.9041667
  23.6143279  61.9578743  49.2341328  22.7487350  61.5525579  49.2860794
  23.6444139  62.3472500  48.3602238  68.6289883  21.0946941   1.7480960
  69.2398310  20.4006934   1.5001696  67.7654743  20.7414222   1.5341550
  88.6707592  79.0913486   2.7548561  88.3907509  78.2912445   3.1994480
  88.1195354  79.7786760   3.1289712  75.9774637  11.1176097   8.5920703
  76.8585443  10.7957828   8.4013951  75.3952694  10.4418623   8.2447350
  32.6670456   1.8158719  70.8563995  32.5595236   0.8707658  70.7494164
  31.8138885   2.1819061  70.6232166  55.6507874  25.2694654  18.9066899
  54.8632383  25.0096250  19.3846869  55.7485104  26.2027717  19.0954196
  14.1489065  39.4207931  50.9001207  14.4300687  40.0616932  50.2471066
  13.5098553  39.8899627  51.4365196  58.2932663  14.7348213  19.0178728
  57.4139309  14.8645949  19.3730593  58.1898451  14.8520756  18.0735278
  63.8276148  18.6667442  21.4084506  63.9048100  19.4303989  20.8365202
  63.4284639  17.9938531  20.8569694  79.4974470  32.6589823  67.0317507
  80.1917362  32.4870706  66.3956308  79.3381548  31.8115401  67.4473190
  59.3081665  64.9459124  71.3739634  59.4289494  65.8953762  71.3613653
  58.3612776  64.8258638  71.4462280  72.4353838   1.3928442  32.7446437
  72.8872395   2.0423743  32.2059703  72.2566271   1.8470821  33.5680175
  61.3888931  73.4556723  64.9740887  61.5755367  73.9928675  65.7440329
  61.8622351  72.6387405  65.1315594  68.8006258  27.6597714  56.9386244
  68.2376480  28.4300756  57.0155668  69.6807528  27.9867911  57.1248055
  63.2058001  25.4480052  18.1756473  63.4765577  26.2091565  18.6890376
  62.4314499  25.7447195  17.6975584  76.7070055  41.3130856   4.1091630
  77.6232433  41.0462046   4.1833892  76.2975121  40.6216383   3.5891145
  12.6514828  29.0386128   8.0071151  12.5750422  28.5143518   8.8043219
  11.9224632  28.7485003   7.4588478   9.2886114  60.7640648  62.7684164
   9.9593461  60.1137733  62.5599337   9.5611078  61.5496778  62.2943020
  33.9988852   3.5116968  69.1594267  33.8566089   2.9659209  69.9328089
  34.4957805   2.9540077  68.5608387  66.9153357  67.3873377  68.6519146
  66.4728165  67.9795027  68.0438471  67.6724720  67.8842449  68.9618492
  73.4580564  67.6758051  67.5791264  73.7386417  67.0349836  66.9257927
  72.6509953  67.3105383  67.9417086  27.9565382  42.9177189  52.9896736
  28.1671572  43.8510513  53.0172443  28.7822795  42.4925852  52.7580547
  61.6652870  24.0687823   2.1772389  61.5834379  24.8780012   1.6725627
  60.9199762  23.5365272   1.8989505  45.9283829  52.2373581  67.4132729
  45.4648113  52.1328545  68.2441854  46.8551826  52.2027969  67.6500797
  37.0182085  59.7253990   3.2284415  37.8460288  59.2569494   3.1212077
  36.9324875  60.2461243   2.4298622  71.4423227   3.9474642  10.0816107
  72.1373177   3.9373049   9.4235021  70.6320047   3.9870447   9.5736229
  77.5030565  82.5584602  26.7546654  77.8218603  82.0541859  26.0061312
  77.8158808  82.0754528  27.5195694  76.1705971  67.7182198  58.8262033
  76.6698551  67.8590107  59.6306562  75.2714252  67.9498720  59.0587139
  65.4550743  22.3224330  28.6777282  65.2359629  21.9266844  27.8341603
  65.5173588  23.2596946  28.4936237  18.6737990   5.4251140  49.8874998
  18.1733382   6.0411555  49.3524647  18.2652104   5.4717332  50.7518578
  21.2586331  38.4231877   5.6332958  20.3650570  38.7124515   5.8178985
  21.1988425  37.9889750   4.7823459  80.4225540  83.1549835  72.6434803
  80.3937054  83.5316277  73.5229874  81.2076569  83.5325336  72.2468758
   8.9407851  85.7156797  12.4613881   8.0518700  85.9196822  12.7519810
   9.4336082  85.5852507  13.2715404  33.7040663   7.7550834   6.4950460
  34.3416166   7.9189289   7.1899658  33.6325932   6.8013722   6.4555711
  15.3711939  84.4571114  40.0802994  14.8650789  83.8053226  39.5952654
  15.5840003  84.0271950  40.9086227  33.6365724  46.3801622  65.7494402
  33.1267500  46.0677576  65.0019646  34.4862294  45.9492016  65.6567526
  58.0481148  29.1269875  70.2389002  57.9047346  28.9563990  71.1698008
  58.6037397  29.9062133  70.2209949  74.8676443  58.0211687  64.2130661
  74.2445850  58.0272102  64.9396944  74.3214655  57.9550362  63.4297752
  85.5280399  18.7919354  10.3355992  85.7445812  18.5576177  11.2380600
  84.5775604  18.6914110  10.2835226  82.6502514   4.4641185  38.1537390
  82.4265766   3.5647976  37.9141092  83.2759857   4.7416914  37.4846792
  34.1325259  21.6524434   1.4023580  35.0265718  21.4460087   1.6749349
  33.7630916  22.1374154   2.1402964  81.3949490  44.6671677  73.9942598
  80.4634094  44.8636103  74.0936565  81.4845467  43.7668514  74.3067265
  52.7437449  49.6493053   2.0103794  52.9021025  48.7054205   2.0256951
  53.0621481  49.9317074   1.1529976  41.7345428  65.9947205  45.7440567
  42.3204374  65.3594398  46.1556149  41.5545130  65.6286049  44.8781586
  90.7854271   1.1297178  71.8293762  90.0207043   0.7494604  72.2616100
  90.7962799   0.7249300  70.9620476   6.9544673   8.5933691  67.4159622
   6.1579400   8.0639619  67.4547482   6.6432673   9.4820178  67.2436523
  59.4040060  65.9586000  64.7912216  60.1112747  65.7175207  64.1929913
  58.6802673  65.3795671  64.5521450  19.5812607   8.4639800  31.5276575
  18.8189685   8.9335698  31.1890888  19.2292476   7.6314682  31.8426847
  68.7425089  50.3634644  71.2876844  68.3164883  49.5243120  71.1128664
  68.1942606  50.7759571  71.9551420  56.1237669  40.5647707   8.1809860
  56.7953539  39.8949885   8.0521637  55.7931566  40.4055262   9.0650499
  45.2038002  22.9530406  23.9394569  45.4523230  22.1581197  23.4676838
  45.8346748  23.6114430  23.6483645  73.0903721  37.5285125  10.0876629
  73.0047464  36.6685605   9.6761042  72.7975464  37.3929811  10.9888375
  64.8086977  28.4744811  28.0287123  65.3238440  27.8569627  28.5478735
  63.9000845  28.2833529  28.2613659  78.5477924  31.9822264  33.7371612
  77.8389025  31.6519022  33.1852603  79.0010500  32.6216412  33.1876755
  67.1849680  50.1836014  73.4651279  67.4387789  49.2682314  73.5830879
  66.4117575  50.1471043  72.9020596  30.0896549  27.4505043  14.5233989
  29.4207263  27.3894620  13.8414609  30.6545591  28.1698155  14.2410719
  64.0698290  61.1552095  61.6913795  64.9001408  61.2987566  61.2372780
  63.6776686  60.4062748  61.2424469  83.5170650  43.2454300  68.6445141
  83.4396458  44.1832829  68.4693956  82.7227402  43.0263615  69.1316319
  76.1722231  79.5801258  52.3881960  76.2233067  80.0309753  51.5453672
  77.0739126  79.3188810  52.5751162  17.5574958   1.8438034  38.2166862
  17.5248742   1.5295193  37.3131418  18.4054875   1.5439168  38.5441160
  11.8706751  35.9840846   6.1172420  12.3717690  36.2208080   6.8976909
  12.5313556  35.8686805   5.4342961  72.3598385  57.2221661  69.3702984
  72.6526117  57.3661566  70.2701807  71.5339661  57.7019787  69.3074512
  82.0939827  83.2269669  47.4270439  81.5577221  82.6063061  46.9336557
  81.5498829  83.4713364  48.1756926  75.3919077  10.7015836  57.0595884
  75.7064152  10.4141867  56.2024307  74.8335791   9.9854398  57.3623085
  43.2229710  83.0878258  14.1269350  42.9608679  83.4628773  13.2861805
  42.3976374  82.9164696  14.5804727  26.1051393  77.1639442  42.7262306
  26.8031621  76.5493011  42.4999285  25.3021502  76.6461039  42.6689863
  47.8006697  20.1103187   4.7606745  48.3763313  19.6216953   4.1723767
  46.9163609  19.8618400   4.4914418  79.9468517  15.8228517  63.4125614
  80.3929329  15.2918124  62.7528334  79.3805504  15.2047908  63.8746548
  46.1299229  19.6518254   0.7706972  45.4696083  20.1760554   1.2239055
  45.9819603  19.8309100  -0.1578870  54.2796087  64.5641232  74.4788885
  54.0394354  64.0984583  73.6778212  54.7972488  63.9318657  74.9774170
  65.2193832  71.6659784  60.2030468  64.9158907  71.9310570  59.3347979
  66.0704184  71.2573767  60.0448751  31.2434149  27.5053525   0.4001905
  30.4812956  27.0514512   0.0404968  31.6577148  26.8604732   0.9735285
  69.8875618  63.6263037  47.3015165  69.9940252  64.3296242  47.9420137
  70.4148340  62.9059553  47.6469326  29.7702813   5.7736826   5.0732011
  30.1988459   5.4367280   4.2864186  29.5398402   4.9912661   5.5741537
  -0.0310061  53.3748102  67.5926685   0.3302171  54.2296219  67.8272915
  -0.1138041  53.4032202  66.6394806   0.5793840  46.3962412  23.5991812
   0.6433607  46.7374897  22.7071667   0.9669469  45.5224133  23.5497022
  31.0000634  13.3607805   1.1017033  30.3845692  13.4557247   0.3748032
  31.7577648  13.8859153   0.8441141  20.3994894   5.0999033  17.4981105
  21.0095668   5.7709181  17.1918809  20.2194905   5.3370595  18.4078300
  66.7579603  20.0849891  52.5177670  66.2393951  19.3865418  52.1184015
  66.4035940  20.1702428  53.4028578  40.0753069   5.4545480   6.8894869
  40.3028917   4.8992336   6.1437905  39.1453028   5.6469303   6.7698336
  42.3547173   2.4644686  33.1890368  42.6913023   3.1809950  32.6509523
  42.6668501   1.6710961  32.7538753   8.4326500  16.4213061  60.1687002
   8.7822151  16.7541802  59.3421221   8.0373323  15.5800581  59.9400949
  18.9669716   9.7650433  16.7876554  19.6133327   9.1470045  16.4463663
  19.4885981  10.4567695  17.1946597  18.7670934  78.3783245   6.9806337
  18.3654356  77.7158689   6.4184463  19.2687595  77.8756142   7.6223874
   8.9027113  68.1148958  73.6939526   9.7301966  68.4462547  74.0428066
   8.4533322  68.8928747  73.3637428  62.5666475  37.9317832  30.4315233
  63.2364368  37.6581240  31.0581970  62.7255106  37.3893499  29.6590209
  18.3229971  12.6433253  68.1924629  18.7866902  12.6490629  67.3550940
  18.0324042  13.5475445  68.3115292  63.3829498  79.6439171  48.0888844
  63.4811401  80.3078175  47.4063635  63.3838797  78.8119078  47.6156092
  87.8342152  70.5232000  44.2317152  87.5061131  71.3974047  44.4422913
  87.8545570  70.4990196  43.2750368  63.9589262  57.1019125  49.4719505
  64.4266462  57.8943443  49.7356033  64.2514992  56.9382095  48.5753822
  68.1775665  67.5154018   1.2779307  68.0260849  67.4819994   0.3333832
  69.0644169  67.1732807   1.3905223  12.5053775  36.7878509  71.0866547
  12.9329216  37.3615456  71.7225075  11.8816018  37.3552108  70.6336260
  20.9470892   1.6405100  72.8357077  21.4038539   1.7688233  72.0043659
  21.3029337   2.3173560  73.4114552  20.9997535  43.8996744  58.7901974
  20.9269214  44.7281551  59.2640686  21.4467812  44.1283655  57.9752779
  76.5242910  60.3936148  74.0664721  76.3300800  61.0692072  73.4167910
  76.6749287  60.8781052  74.8781443  64.7758055   5.2310681  10.2716279
  65.5892420   5.7247633  10.1676095  64.3207073   5.3406185   9.4366932
  21.6416693  24.2692280  32.0395160  22.3950171  23.7150908  32.2435498
  22.0226622  25.0614572  31.6607666  78.4081364  79.3873262  60.6093311
  77.5587749  79.5422077  61.0226440  78.2022095  79.2420006  59.6859121
  24.3198180   6.6718233  45.0900555  24.7056437   5.9945995  44.5344114
  24.6990871   7.4899077  44.7689199  22.1959782  49.4418001  57.1386766
  22.9482508  49.2147446  57.6852703  21.5763021  48.7249756  57.2743320
  33.2177448  24.1171241   3.1011656  33.5282636  24.6054363   3.8636354
  33.3867240  24.6982002   2.3595256  53.6337280  51.0083866  39.2682147
  54.3371010  50.5460215  38.8124514  53.6567593  50.6605339  40.1596737
  63.4089994  49.6551895   7.5272506  62.7145481  49.2750835   6.9892108
  62.9586601  49.9738836   8.3094668  28.6566186  15.6006980  59.8825693
  28.3541632  14.8553550  59.3637085  29.3315792  16.0108471  59.3417931
  20.2934146   8.9387792  70.3655910  19.6574068   8.9285660  71.0808706
  20.1443100   8.1154269  69.9007368  56.8196726  84.9641895  26.4917660
  57.5656700  84.7445202  27.0498538  56.5324783  85.8226967  26.8027782
  81.8756962  75.3123856  70.3574991  81.7144299  76.2545919  70.3078127
  82.6679993  75.2326918  70.8886671  82.8560734  75.9639359  66.3310671
  82.3625469  75.2554131  65.9179640  83.7736320  75.7283497  66.1939001
  22.3811579  30.8599997  51.9391870  23.2813597  30.5440974  52.0171452
  22.1303391  31.0916734  52.8334188  80.9273815  64.2623138  45.3072977
  80.9246922  63.5951948  44.6208763  80.7690239  65.0842857  44.8430586
  43.2263708   7.3748624  72.2328472  43.0919552   6.9031870  73.0548525
  43.9729595   7.9485571  72.4052191  74.8218584  76.7309046  52.5875092
  73.9636803  77.1103048  52.7767611  75.4452610  77.3371506  52.9875994
   0.5812528  59.5797157  46.4717388  -0.1426051  59.6177292  47.0968962
   0.3149583  60.1632071  45.7612038  88.2449532  67.4184179   9.4796354
  88.0517197  66.5902233   9.9189436  88.1656361  67.2189379   8.5468179
   0.6119449  40.7572746  56.4680433   0.9757124  41.6366863  56.3653803
  -0.3362512  40.8859253  56.4434576  88.9534378  75.8205080  72.1499014
  89.4626713  76.6172457  72.2986174  88.2568741  75.8555984  72.8054905
  45.4603672  80.4796886  62.9157877  46.3011408  80.2577591  62.5156784
  45.5457830  80.1955891  63.8258553  50.8315992  32.5622797  34.2989230
  51.3352060  33.0347872  33.6360884  50.6447744  33.2182717  34.9704885
   5.0006938  54.7495985  33.4053493   5.6096667  55.2917242  32.9038668
   5.1965845  54.9527454  34.3200016  43.1885386  78.1715488  61.9300747
  43.3404732  78.6843443  61.1362267  43.3697844  78.7798882  62.6465273
  83.9168835  76.5546989  51.7583036  83.9992237  77.4706745  51.4928961
  84.4925690  76.4729738  52.5186586  90.4013157  60.2031374  68.8137913
  90.6214619  61.1097050  69.0280437  90.8462811  59.6838999  69.4835854
  36.9222736  18.8734472  36.2330246  36.4264941  19.6836650  36.3512707
  36.3020039  18.1786919  36.4539599  26.5989685  85.7902431  12.9996836
  27.5292921  85.8318710  13.2210469  26.1989284  86.4919472  13.5133195
   4.6653542  69.2269087  71.0451126   4.3446404  69.6803141  71.8247271
   4.1766763  68.4040165  71.0285902  66.7699432  80.2470016  58.3953857
  66.5758848  81.1697388  58.2307196  67.6876974  80.1464558  58.1426907
  45.7935190   3.3165711  63.7593699  45.4256773   2.4414954  63.8825178
  45.7227325   3.7294400  64.6200418  85.0964260  84.3585396  66.2838268
  85.7843304  84.5373440  66.9249582  84.6833420  83.5527611  66.5941811
   1.8245322  76.1565304  54.7751808   2.1055622  77.0713854  54.7922897
   2.5977704  75.6738710  54.4829988  83.7253761  31.3905954   2.8719154
  84.1805649  30.6750989   2.4279541  82.8141117  31.1015773   2.9197875
  43.3219099  14.3816984   5.4710871  42.7390718  13.6422861   5.6437182
  44.1394806  13.9789891   5.1784396  83.9282322  65.5360794  53.1439447
  84.4009018  64.7360706  53.3737564  84.1738033  65.7065296  52.2346210
  10.7084680  13.5150838  72.5106144   9.9868983  13.0834520  72.0531654
  11.4748859  12.9780245  72.3096085  32.6834321  61.5669250  17.2984505
  32.4862671  60.7582188  16.8258500  32.0764184  62.2112370  16.9342649
  59.7127819  13.6408722  21.1578989  59.8523951  12.7309072  20.8957863
  59.1533375  14.0046525  20.4716635  83.1784630  71.1603594  20.0357866
  82.8097630  71.5721846  19.2543221  82.6508045  70.3718567  20.1625800
  87.1399498  63.8000202  67.9910851  86.1910248  63.7613773  67.8715944
  87.4734020  63.0453920  67.5057220  61.7252016   6.5102869  16.7994785
  61.1078787   5.8236372  17.0517719  61.9570780   6.3030803  15.8941984
  42.1609306   1.7338896  64.4626808  41.5082598   1.7602110  65.1623678
  42.3726892   2.6527283  64.2979860  17.9113293  75.8070469  33.8072705
  18.7097979  76.3230467  33.6958098  17.2782612  76.4222956  34.1773033
   5.0133723  14.0456963  58.2314444   5.8950925  14.2844462  57.9454374
   5.1051480  13.8678169  59.1674852  40.8897638  81.5714073  15.4887021
  41.3034105  81.3969517  16.3340950  40.1158333  82.0920467  15.7036412
  79.0517664  41.7782354  24.4154572  78.1667995  41.4221811  24.3361497
  79.4486761  41.6266680  23.5577154  82.8108215  78.3173513  67.6968288
  83.5921097  78.5900164  68.1779528  83.0162048  77.4354076  67.3866224
  28.3812714   2.9914072  26.7598724  27.9719067   3.3970496  27.5241399
  28.0506182   2.0931312  26.7595577   6.3892394  75.1655626  42.3351669
   5.6440532  75.7659149  42.3576403   6.0489196  74.3476915  42.6977968
  82.6814270  49.6106911  63.4215736  81.8167210  50.0158548  63.3556032
  82.8851604  49.6318913  64.3565989  79.4063997   3.0659503  39.5826888
  79.5524263   2.2050798  39.9748755  79.4835281   3.6785626  40.3141165
  91.1916256   9.4596267   8.6981326  90.6514454   9.3575978   7.9145283
  91.1772823  10.3996277   8.8781995  61.1324358  83.1351757  56.6018248
  60.6405210  83.3232689  55.8025312  62.0417929  83.0626583  56.3119364
  37.6306581  60.6922436  61.7849588  37.8649330  60.1571465  62.5432587
  37.7877784  61.5925932  62.0694160  78.0829906  46.5697289   0.4092356
  77.4449539  46.0767746   0.9251156  77.7633619  47.4717140   0.4314164
  35.1542044   7.0443058  21.0678148  35.5610704   6.7507833  20.2526236
  35.7742000   7.6768661  21.4307284  31.4829850  81.0776234   7.1342218
  31.2182879  81.9206333   7.5023329  31.4608765  81.2124252   6.1868191
  80.4234409  83.2567692  49.7192478  79.4984055  83.3456612  49.9486542
  80.8527184  83.9846802  50.1687956  23.3082652  84.2860317  60.2716875
  22.9020286  85.0683594  60.6447554  23.9464760  84.6239853  59.6434307
  75.5357647  69.4646692  68.2859278  74.7883558  68.9836645  67.9306078
  75.1641369  70.2912951  68.5938454  68.0685139   7.1743894   7.9450136
  67.8871918   8.1023228   7.7957052  69.0072346   7.1403718   8.1290740
  21.5257382   4.3097776  70.2039099  22.1432471   4.4997066  70.9102011
  21.4589810   5.1310694  69.7168255  20.3812051  79.9217844  59.2445135
  20.7014322  79.2265558  59.8192692  20.4536128  79.5560598  58.3629084
  89.0717220  37.7691126  40.9848070  88.8528442  37.4580288  40.1064301
  88.7678242  38.6766601  41.0001278   7.4758190  85.0803566  43.9611149
   7.9442477  85.1809216  43.1324482   8.0659199  85.4524803  44.6165085
  67.5847435  69.0027523  56.9817495  67.5330353  68.1500769  57.4136162
  68.3055258  68.9122152  56.3584471  14.1071844  83.8597107  72.8764486
  14.5569527  83.0147648  72.8801107  13.3098710  83.7088299  73.3841467
  77.8777695  46.2241125  60.6726599  77.0775509  45.8830023  61.0720634
  77.5841522  46.6299868  59.8570061  76.7537975  62.8101826  56.2970781
  76.4387846  63.3640766  55.5827951  77.4756813  63.3056450  56.6838932
  61.5927887  74.2846727  33.7144232  62.0680571  74.3626404  32.8872156
  62.2315311  74.5345354  34.3821120  41.7412186  34.8468399   5.8420128
  41.8055868  34.9474573   4.8922944  41.8488979  35.7340813   6.1847073
  83.4597874  56.7191410  65.9092379  83.1347179  57.6158762  65.9894276
  82.7470493  56.1751461  66.2443638  17.5749564  34.3856382  11.7225862
  18.5114586  34.5719337  11.7895949  17.2263265  34.5959640  12.5888717
  22.6837564  28.3528328  53.0634975  22.1814108  29.1625643  53.1541443
  22.4162602  27.9986882  52.2154045  25.7302904   5.9169638  10.7165527
  26.5727162   6.2748796  10.4364717  25.6510878   5.0903183  10.2405119
  16.5783155   1.2898472  57.1731138  16.0220087   0.9868807  56.4555025
  17.0644677   0.5112154  57.4444437  54.5443439  34.3520308  19.5142746
  54.5098209  34.6886730  20.4096580  55.4544592  34.0803647  19.3954575
  12.2873497  65.8616400  34.8888040  12.9745293  65.9168482  35.5528569
  12.7584827  65.8667421  34.0555930  87.0322323  77.2265100  73.8976383
  87.3246670  76.9382000  74.7622681  86.2757111  77.7855587  74.0747690
  48.2611322   3.9843291  62.7874279  48.2525921   4.7287306  63.3891106
  47.4766207   3.4846488  63.0134583   6.7524904  30.1518440  38.9037275
   6.2058306  29.7233987  38.2450676   6.1473018  30.7120466  39.3896794
  12.2122049  81.5908051  18.0008221  12.5553000  81.2406349  18.8229549
  12.9848206  81.9135284  17.5369859  38.5035515  20.2980137  51.9490004
  38.7795663  20.4547620  52.8520393  38.9444137  20.9798145  51.4420271
  73.8282251  12.5811863  58.7937927  74.6188307  12.5991273  59.3331051
  73.6690855  11.6511166  58.6329317  34.9573040  80.8390141  59.3053484
  34.1930699  80.4475784  58.8823128  34.9489403  81.7519283  59.0176868
  22.0535518  30.9363886  74.4954121  22.1730758  30.0279852  74.7724429
  22.5244476  31.4507004  75.1511363  35.7200575  24.2860579  52.6248264
  36.1220121  24.2105865  53.4902573  36.4595199  24.3845940  52.0250607
  87.7032566  60.6544256  64.1805553  88.2332993  60.5690765  63.3880854
  88.2938862  61.0485840  64.8224449  13.1144190  64.2301369  74.2079926
  13.4068000  64.9393797  74.7804594  12.1891546  64.1140175  74.4239378
  58.2225466  27.7782679   8.2004291  57.7762890  28.6042452   8.0137503
  59.0083790  27.8018641   7.6544017  64.3577766   5.8134419  52.2709417
  65.0136423   5.1773876  51.9854450  64.8605251   6.4861071  52.7302933
  23.4485936  39.6363139  63.3834267  24.3797660  39.7376633  63.5806036
  23.0299616  40.3812122  63.8148260  45.0557663   1.3152643  74.2603663
  45.3427316   2.1370312  74.6585888  44.1027357   1.3915487  74.2139962
  58.2344532  48.7973166   1.3247724  57.5934505  49.3958092   0.9411640
  57.7073145  48.1025553   1.7193122  31.5337014  18.9455676  43.6803055
  32.4159455  19.0479982  44.0372181  31.0096335  18.6405325  44.4209385
  26.2681246   4.4973183  70.4092169  25.5635786   4.7251409  69.8026323
  26.0327291   4.9375579  71.2259245  43.0166197  85.4311657  43.5467386
  43.7306356  85.9122944  43.9649820  43.3966541  85.0969505  42.7342653
  40.4006004  83.4460354  46.5185595  39.8734355  82.6508904  46.5965414
  40.1926565  83.9494228  47.3056984  82.9748821  27.3689079   2.7686566
  82.0533848  27.1472740   2.6346800  83.0035973  27.7546430   3.6442226
  70.0180483  29.8988771   7.5715441  69.7465134  30.3463769   8.3729470
  69.3819237  30.1790833   6.9134706  13.4392297  10.8701098  56.9481993
  13.7030268   9.9577945  56.8285131  14.2285311  11.3752341  56.7530441
  21.1171222  63.4027100  68.9433384  21.2114811  62.4538565  69.0270090
  21.7068958  63.6398745  68.2276917  28.6111021  50.5237198  54.3335485
  28.4747958  50.4286242  55.2762127  28.7783933  51.4578867  54.2087698
  29.1463280  37.4244046   0.5792226  28.5935044  37.1370077  -0.1474278
  29.8664141  36.7939925   0.5962293  26.0239863  28.3586907  66.9524479
  25.1353049  28.6603880  66.7641497  25.9528828  27.9177141  67.7990341
  28.1123590   2.4142700  42.6340961  27.9193115   2.4036096  43.5715675
  28.8209867   1.7795461  42.5282526  87.4424458  46.8590164   3.0703393
  86.8417168  46.2922001   3.5541490  87.9053783  46.2669182   2.4775936
  54.9933577  22.4597335  53.4803343  55.9241915  22.6807451  53.4497499
  54.9750900  21.5317011  53.7141132  43.1842422  60.5479527   8.0383801
  43.9472914  61.0130739   7.6953781  42.6683617  60.3291035   7.2623640
  83.0141926  26.6521740  18.5033250  82.2568417  26.5431476  17.9281962
  83.4438801  27.4463010  18.1855810  55.4385233  17.4265444  69.2175436
  56.3172293  17.6459539  68.9077520  55.5384970  17.3163712  70.1631117
   2.8554502  76.7026758  67.3089981   2.9086798  75.9392548  67.8839636
   2.3749146  77.3541594  67.8197670  26.6584277  71.5791893  63.9553833
  26.6088891  70.6709003  63.6574125  27.4520302  71.9228983  63.5451508
  68.4474134  79.6526098  70.6783819  68.7271452  80.0857067  69.8719025
  67.8417397  78.9712238  70.3866577  23.0215383   0.7014322  17.5787163
  22.9443049   0.4651703  16.6543531  23.8844490   1.1094575  17.6503491
  71.7568779  20.3529429  32.8803015  71.2653637  21.0312176  32.4170637
  72.6695204  20.6352711  32.8202486  77.1101522  49.1246319   0.7840157
  77.8623056  49.4656610   0.3000802  77.1306944  49.5920515   1.6190778
  84.5419788  69.2657566  62.9998302  84.5240879  68.3321667  63.2103539
  85.3852654  69.3974590  62.5665188  44.3421459  10.3384995  60.1787043
  43.5009623  10.7782757  60.0552464  44.9335814  10.7766819  59.5667982
  45.1617289  14.4296181  69.9178743  45.7511234  15.0118148  69.4383955
  45.6115484  13.5847127  69.9230433  52.6065588  71.9607258  13.6301792
  52.8034830  72.7688742  14.1038251  52.5313091  71.2948084  14.3136442
  81.5655708  51.9932270  51.2039375  81.8351555  51.6139412  52.0404196
  81.2453556  51.2482738  50.6952763  49.7381496  26.5739584   4.5088869
  49.0368414  26.1776471   5.0259328  49.6359587  27.5153947   4.6484742
  28.2470655  84.0810299  57.8651237  27.4736261  84.0868187  58.4290266
  28.8547969  84.6891975  58.2858706  41.7326782   0.6086046  62.0528078
  41.0296975  -0.0410002  62.0603704  41.7936943   0.9060652  62.9605627
  74.9170637  35.5756879  17.3567557  75.1375961  34.8380995  16.7879283
  74.3203783  35.2061534  18.0076325  32.6148486   9.6216744  53.8213921
  32.6840901   8.7794262  54.2708969  32.7849078  10.2717018  54.5031357
  82.5179100  84.5167446  65.6651545  82.2719765  84.3990135  66.5826988
  83.4392643  84.7744560  65.6953096  26.7280507  13.1119120  61.2560940
  26.8982816  13.8060319  61.8928432  27.5761557  12.6850736  61.1346054
  67.0200968  46.9543219   1.1292222  66.8218040  46.1061239   0.7323973
  67.4132442  47.4641085   0.4208529  38.2970357  17.1451831  57.3626804
  37.8542352  17.4144411  56.5579081  39.0991497  16.7173100  57.0630646
   3.0938679  62.6665020  28.3649611   3.1003267  63.2877684  29.0931225
   3.2307535  63.2075405  27.5872898  90.1807404   0.3078431  50.5811262
  90.1551628   1.0405424  51.1965370  90.6571198   0.6477803  49.8236656
  24.6247888   7.1096677  53.4372616  25.5463028   7.2019482  53.1953382
  24.1526866   7.1609205  52.6061630  59.9854422  35.7516646  11.3322222
  59.8187351  35.1979709  12.0950222  60.1045990  36.6294551  11.6948760
  50.1344585  31.1892486   6.7982662  50.0202513  30.7405663   7.6360446
  49.5456457  31.9423032   6.8476540  50.3732872  81.4556694  72.7761602
  49.5740032  80.9327793  72.8391171  50.1343155  82.1915531  72.2125912
  54.2532539   4.4008976  51.5770626  54.0225792   3.6981305  50.9694910
  53.5274458   4.4262975  52.2005892   6.9155949   3.5625556  73.2727718
   6.8352771   3.6238599  74.2246246   7.6715112   2.9923579  73.1324244
  24.3735862  51.7738199  68.1719351  23.7819910  51.2109327  68.6713409
  24.9704266  51.1662388  67.7350664  34.0098953   5.4035515   0.0348687
  34.8212457   5.2749544   0.5262014  33.8727999   4.5739359  -0.4224866
  18.6939466  33.2710099  46.4015579  19.0762126  32.8203487  47.1545601
  18.8402355  34.2001867  46.5789318  14.8085237   2.3836012  39.6838069
  15.7263792   2.1213487  39.6131086  14.6793139   2.9999185  38.9629126
  15.6761289   2.2739522  35.8055806  14.9789941   1.6821022  35.5228305
  15.2155721   3.0254644  36.1788750  81.4269638  79.7831440  60.9506226
  80.7405663  80.4178524  61.1561298  81.1518574  78.9807987  61.3942385
   7.2872412   9.6139121  56.8823624   6.6043872   9.4248277  57.5259399
   6.9821495  10.4027665  56.4341879  76.6064119  71.2795115  72.7358341
  75.6711054  71.4074802  72.8941298  77.0253658  72.0308781  73.1555462
  55.0378466   2.1248315  53.3191824  55.1796293   2.1434692  52.3727274
  54.7551203   1.2286776  53.5014153  35.2393436  15.1974499  67.1324825
  35.8383822  14.4723117  67.3101234  35.7534432  15.9835112  67.3169899
  21.9762373  67.3349714   1.7151113  22.0487952  67.8340292   2.5286877
  21.0447288  67.3664427   1.4970897  80.3683567  66.8237495  52.0395517
  81.0986805  67.0027685  51.4472675  79.7805071  67.5708294  51.9275713
  36.7242193  14.9479723  58.4641743  37.0541883  15.8464563  58.4552956
  36.5478063  14.7485113  57.5447559   8.2032144  45.5308342  16.7658055
   8.1773639  46.1053133  17.5310111   7.5202787  44.8808336  16.9311166
  33.6613393  31.0677147  69.1854811  33.6957479  30.1932573  69.5732641
  33.8706374  30.9285498  68.2618713  27.5857115   2.7012190  63.7040710
  28.3638048   2.6789820  63.1470203  27.7734089   3.3816183  64.3506479
   5.8160996  82.1035099  70.6696415   5.5624110  82.0048523  71.5873241
   6.7256117  81.8066883  70.6393385   6.8979359  64.4884348  53.1712341
   7.2368503  63.6468744  53.4764433   6.5770245  64.3109608  52.2870684
  40.3516483   1.0409119  36.0674000  39.5491552   1.1779687  35.5639601
  40.0947475   1.2001082  36.9756341  71.8447924  26.1974049  63.2822180
  71.2494230  25.4734278  63.0882502  72.3832560  26.2820721  62.4953699
  48.8450909  73.7724304  70.9998035  48.8769007  74.3814182  70.2620029
  49.7144747  73.8306332  71.3960600  83.5595036  47.1970940  10.0364709
  84.4473743  47.4951267  10.2341747  83.6723518  46.5590048   9.3319565
  49.7360277  16.9912946  71.5956879  48.9827585  17.4013686  71.1706495
  50.1345301  17.6950002  72.1077728  19.9753380  26.2509751  42.5526190
  19.5142937  25.5496216  42.0924330  19.6079862  26.2394238  43.4364510
  20.3267336  11.6364503  69.9285507  20.1531696  10.6980681  70.0030184
  19.5350492  11.9953907  69.5277643  59.0700150  78.5031891  61.7440224
  58.2504320  78.9976788  61.7434263  59.7344255  79.1404533  61.4819574
  21.4693546  75.7566977  63.0824041  20.8698273  76.2771940  63.6170816
  21.2960529  74.8514080  63.3405733  88.7810040  32.6330495  28.3797979
  89.3669033  32.3892212  29.0963864  88.2315445  33.3265185  28.7450767
  61.5176868  49.9694347   1.5967321  61.3207150  50.7545519   1.0858276
  62.3594952  49.6669149   1.2560359  64.0820265  15.2827179  41.0835791
  64.3374395  14.8068261  40.2933121  64.6749449  16.0335886  41.1131430
   2.5220785  75.8586550  61.8075275   3.0179194  75.1410198  61.4133501
   2.3195027  75.5525780  62.6915598   7.1979654  23.6285543  66.8514109
   7.2604465  22.7609730  66.4518738   8.1062353  23.9173460  66.9401646
   0.2703044  10.1982725  61.0794115   0.7253940  10.2936673  60.2427340
   0.3494803  11.0571837  61.4944220  52.2072220  24.2212582  54.3638992
  51.6610241  23.5753107  54.8118401  51.5860605  24.7670126  53.8816690
  53.6991692  81.2005234  44.3317461  54.1166019  81.5633011  45.1130104
  54.2038012  80.4112625  44.1351604  62.5289488  40.4724550   3.6577839
  62.1909189  40.9584093   2.9055756  63.4562683  40.7064962   3.6970401
  29.2856431  38.5580873  70.5218697  29.9382138  38.7507772  69.8486280
  29.5945644  37.7494407  70.9303951   2.9660875  18.5125995  71.4675426
   2.2087920  18.8715279  71.9300413   2.6944602  18.4828413  70.5501747
  90.9192181  17.0797980   2.1166050  90.5349445  17.0641577   2.9931447
  90.6090355  16.2733626   1.7046809  91.2210655  79.3768215   5.3926450
  90.9371471  79.0818310   4.5274255  90.4272366  79.3510866   5.9268808
   0.5737711  36.6681266  20.0638151   1.2494351  37.1505284  19.5873737
  -0.2430361  36.9009542  19.6223998   6.0301578  72.6695347  57.6032972
   6.6870332  73.3232307  57.3636627   6.2183112  71.9218159  57.0360661
   4.4664049  51.1484814   7.0815611   3.7673768  50.9276247   7.6970410
   4.6512553  50.3279686   6.6245890  43.4583092  77.4486160  41.3039732
  43.0826092  77.4230719  40.4239607  42.7205133  77.6676321  41.8731165
  55.9795713   5.3696734  56.0179615  55.1414633   5.3535169  56.4800739
  56.4560795   4.6130723  56.3596153  24.0506244  13.5235810  46.3660097
  23.8644934  12.6889420  45.9359312  24.9175262  13.7707913  46.0441399
  14.8865652  61.3585186  13.4027505  15.3332233  62.2008181  13.3175433
  14.0373516  61.5755701  13.7874019   4.1998756  44.0579891  13.1572950
   4.8101646  44.7461414  12.8922844   4.4088107  43.3193302  12.5854886
  25.8734512  45.8586788  60.5814743  26.7852092  45.5861044  60.6845903
  25.6004238  46.1192751  61.4611197  47.7728939  82.4159050  11.3004959
  48.1087399  81.5433121  11.0955119  46.8505812  82.3833179  11.0465157
  78.7599134  11.4966071  55.1329041  78.3023357  11.4504719  54.2934275
  78.8368464  12.4336410  55.3125715  50.7286596   5.7356805  40.3666306
  50.0015640   5.4509646  40.9202576  50.4804087   6.6139716  40.0781727
   8.0748034  66.5452862  64.6453190   8.4238726  65.6551790  64.5995903
   7.3052812  66.5303087  64.0762472  13.7268472  44.3230343   6.2001234
  14.3592846  44.4816208   5.4993343  14.2619979  44.0759563   6.9543117
  64.1805267  64.4012928   9.2900383  64.3296528  65.1245546   9.8990405
  64.1866732  64.8113155   8.4251261  63.5799694  53.3710814   9.0422601
  63.7689829  53.6705017   9.9315596  64.3558407  53.6148882   8.5374689
  13.3530140  73.7770748  31.3994718  13.6566913  73.1249905  30.7679653
  13.0680752  74.5162630  30.8622193   2.8665286  76.5767336   0.4266250
   2.6992935  77.5173759   0.3678257   2.3472697  76.1964035  -0.2818584
  53.4465122  13.1072104  51.0794735  52.5396061  12.9342771  51.3321543
  53.3790588  13.5527277  50.2349663  70.1475048   6.7653674  69.1363287
  70.7635260   7.4905419  69.0320683  70.2959967   6.4513165  70.0282669
  44.3954611  38.8951230  73.2627726  45.1779604  38.9090133  73.8138914
  44.6803188  39.2773056  72.4326992  27.5433612  70.6042671  46.0991716
  28.2299876  70.4115534  45.4607105  27.7915931  71.4512825  46.4695501
  89.8448753  31.3203311   1.3371818  89.0133381  31.6919541   1.0427965
  89.6151638  30.7984138   2.1059895  49.4652319   5.0722021  72.6947498
  49.6574020   5.8285403  73.2490587  48.7920618   4.5889759  73.1738806
  54.0185976  56.8501329  71.1855316  53.6445475  57.3720121  70.4756308
  54.8198652  57.3144531  71.4276314  82.1376038  45.0797081   5.2575701
  81.1814499  45.1213026   5.2740908  82.3341942  44.2822218   4.7660446
  63.1820107  14.0877748  47.8134394  63.1380033  13.4246635  47.1245432
  63.9346075  13.8303494  48.3459425  86.2210941  22.8866434  49.7043419
  86.8434048  22.2504544  50.0567865  86.7662144  23.5268044  49.2468786
  35.3499937  77.2111130  15.7559621  34.9230671  76.6115093  15.1440477
  36.2793374  77.1597672  15.5325449  56.6147804  20.6416082  68.6806297
  55.8395338  20.9523702  69.1482353  57.2189236  20.3707886  69.3719339
  35.7709956   3.2215896  64.5594931  35.3013825   3.3910179  63.7427998
  35.2045894   2.6184505  65.0407839  69.6728516   6.8965644  52.5419950
  69.0436268   7.4292916  53.0283213  69.4083214   6.9892770  51.6267586
  41.0139751   0.2857623  51.5793037  40.9517670   0.7630483  50.7519245
  40.1120949   0.0355192  51.7798519   5.6226063  54.8768568  29.0650630
   4.7409508  54.7131681  29.3999100   6.1747009  54.2444229  29.5249033
   2.2414672  80.5080605  38.6693501   2.9896134  81.1034489  38.7142920
   1.4905882  81.0478878  38.9163327  88.8202953  26.3573456  70.2881527
  89.4852352  25.8657551  70.7702494  88.2033825  26.6479850  70.9598494
  80.0119400  49.0846157  23.1789756  79.9409819  49.7914553  22.5374365
  79.1141081  48.9421511  23.4786868  48.1497240   6.1875874  58.3759356
  48.0649233   5.3561151  58.8425112  47.6605701   6.8131244  58.9104080
  24.3061996  78.9792919  57.4770784  24.3687892  79.7929668  56.9768333
  24.2165279  79.2636347  58.3866596  27.3107934  58.3872128  52.8888655
  26.9282746  58.9871120  52.2485304  27.2788382  57.5304174  52.4632931
  33.2004452  78.2744551  12.0881069  32.8445077  77.8667498  12.8776121
  34.1497183  78.2298613  12.2026575  58.9646578  78.6122608  41.0557270
  59.4933081  78.0683947  41.6396475  59.0427828  78.1908321  40.1998472
  21.5492868  21.0830188  39.7029948  21.1075830  20.6376910  40.4260540
  22.0985365  20.4074168  39.3053508   6.0242325  71.7281437  22.6819324
   6.4976245  71.8443632  23.5057187   5.2758974  72.3210955  22.7500129
  11.3736081  75.9165192  49.9270248  10.9069705  76.5496111  50.4726171
  11.6318274  75.2222490  50.5332804  22.5361204  84.7502518  55.9981012
  22.1923780  84.0645027  55.4255486  21.9492912  85.4938030  55.8602858
  42.8547907   3.7438518  66.8774176  43.5136700   4.4380790  66.8900251
  42.9278421   3.3601519  66.0035372  51.8129253  29.6367240  46.4179420
  51.6924000  29.3262982  47.3153496  51.2881136  30.4356909  46.3683605
  26.4812231  63.0915976  65.7652378  25.7889676  62.5966883  66.2035036
  26.4664364  63.9501238  66.1882544  64.9790430  58.4886503   8.7438726
  65.8030319  58.9350986   8.5490465  64.3538189  59.1966915   8.8988113
  64.5993423  37.1627331  53.6495161  65.4219007  36.7457271  53.3931255
  63.9872313  36.9354439  52.9495955  68.4181643  16.3919103  70.1854801
  68.8518810  17.1109998  69.7261000  69.0039921  15.6442118  70.0672436
  15.8391452  85.1362705   2.1782525  15.6668150  84.5663738   2.9277509
  16.1378586  85.9586811   2.5663877  43.2922220  75.1684475  61.1079788
  43.0786228  76.0722494  61.3398075  43.3239985  74.7072935  61.9461632
  73.7128782  85.8785629  42.0660448  72.9167604  85.3473663  42.0820570
  73.9861631  85.8729267  41.1487007  70.0295877  48.0599070   1.3699330
  70.8694077  47.9811668   0.9174513  69.4197655  48.3544874   0.6934947
  43.1935024  12.4844635  45.1289129  43.7964773  12.4260318  45.8700228
  43.7115717  12.8827119  44.4294596  17.6362193   4.4878614  40.0650930
  18.0054450   3.7685668  39.5527291  16.6891181   4.3913847  39.9654818
  67.3642874  14.1079080  63.1016970  67.8346968  13.7832129  62.3338985
  67.7008200  13.5834384  63.8282728  36.0382390   3.8974068  47.8964615
  36.6854858   3.5365805  47.2905684  35.1971889   3.7512124  47.4634552
  89.8708344  86.2807846  68.7349749  89.5226574  86.8118382  69.4512081
  90.6146717  85.8174515  69.1200209  91.3073540  80.0045490  67.9300499
  91.5059662  79.9636364  66.9945765  91.2616158  80.9406757  68.1244755
  12.9904878   8.2151037  62.6418304  12.5303400   7.4101895  62.4038982
  12.4181008   8.9180219  62.3343992  15.1822126  29.5598888  15.9822822
  14.5725334  29.9898148  15.3825414  14.6203530  29.1154265  16.6171050
  73.9777660  10.5703723  42.8681803  73.2571840  11.1920142  42.7654600
  74.3596792  10.7849133  43.7192678   9.5724380  86.2646770  29.6144056
   8.9288467  86.6862583  30.1838779  10.2726305  85.9900379  30.2064657
  74.6725416  39.0526724   5.8164644  75.4272366  38.6352658   6.2317204
  74.0293932  39.1390920   6.5201133  88.7217331  59.5101023  17.3150253
  89.6779633  59.5242405  17.2742736  88.4628296  58.8764143  16.6459644
  59.6149111  35.9476542  22.1330142  58.9077616  35.9371877  21.4879823
  59.4088316  36.6890311  22.7023339  41.3736820   9.5772249  47.7622461
  40.4872990   9.7551286  47.4477625  41.7471933  10.4427886  47.9281473
  76.8777990  58.4493923   8.8731241  77.1619129  59.3091726   9.1834235
  75.9831667  58.3598566   9.2015249  11.0619628  77.8479385  62.0750761
  10.4545140  77.1191359  62.2019005  10.6494188  78.5847807  62.5257444
  26.1469054  29.1540813  46.0363722  26.6202545  29.2508888  45.2100563
  26.3144422  28.2504344  46.3039303  79.9502897   7.0728546  73.7847281
  79.0926790   6.9513959  74.1921377  79.8995495   6.5772009  72.9674244
  39.5239162  66.1438084  65.7233953  39.8999739  66.8685961  66.2228918
  40.0042105  65.3718948  66.0228872  88.5743332  84.1392803  74.9689150
  88.6746788  84.6271038  74.1514826  87.6298714  84.1228485  75.1236391
  50.4227829  74.1787291   6.5248621  49.5557404  74.5823383   6.5644431
  50.2802944  73.2765245   6.8111372  47.5747061  69.1879368  64.1274738
  47.3815680  68.4851742  64.7480011  48.2421970  69.7167063  64.5646143
  91.2873268  66.5012503  15.0040925  91.8217945  66.3932896  14.2173743
  90.4807854  66.0223913  14.8132825  69.9499846  10.6377375  41.9352007
  69.9737358  10.5218542  40.9853363  69.6290350  11.5309095  42.0595694
  67.0485020  29.9640536  70.2998972  67.8352547  29.4408488  70.1465845
  66.8860292  30.4026461  69.4647455  46.7002296  17.0981824  40.6172132
  46.7549229  16.1443579  40.6760406  46.1792278  17.2601604  39.8307347
   7.9734862  82.9059315  39.9027038   8.2184529  83.6664391  39.3755960
   8.7297022  82.3218155  39.8463225  24.0284300  19.9756408  31.2366033
  23.7167883  19.9781859  30.3315592  24.2916989  20.8809733  31.4018083
   8.4419459   1.9594316  20.0424457   8.3462620   1.3879372  19.2805600
   8.7870818   2.7780026  19.6859992  39.9275684  25.8548164  47.8101635
  39.1225958  26.3061213  47.5560427  40.6001472  26.2243056  47.2380209
  39.1664314   9.1126066  28.8950825  38.7870145   8.6730373  28.1341267
  40.0888300   9.2307103  28.6682272  71.8712330   9.1932821  36.6213799
  72.6009083   9.1942817  37.2408962  71.2444925   8.5710442  36.9905043
  14.9637520  81.5683842  58.4524632  14.6505296  81.9634533  57.6387978
  14.3873537  80.8168983  58.5912418  36.9408107  17.1193171  67.9291058
  37.8266525  17.4052262  68.1521988  36.4667034  17.9301810  67.7448368
  16.2142086  77.0894575  35.8609629  15.4650319  77.6313400  36.1086154
  16.2295258  76.3893223  36.5135026  34.0454364  82.1543407   7.9966807
  33.2490015  81.6513729   8.1668282  34.7553515  81.5203285   8.0981195
  85.3553009  46.8109322  34.3536544  84.5836258  46.6142511  33.8225579
  86.0507202  46.9708633  33.7156606  84.0724850  79.8797703  33.0377865
  84.5645142  79.3880749  32.3802328  84.3371582  79.4940758  33.8729024
  49.8026133  16.5005064  51.6912222  49.4758511  16.5358365  50.7922173
  49.3640709  17.2269368  52.1341801  75.5330515   9.9628001  51.5562534
  74.7142601   9.7757918  51.0970831  76.2117243   9.5766324  51.0026169
  25.2974987  19.3081546  33.3750343  25.6877255  20.1164126  33.7077069
  24.7687340  19.5874286  32.6276064  32.1727657   9.3532985  41.5159225
  31.7366886   9.2884582  40.6662989  33.0257702   9.7400951  41.3184309
  28.6679530  59.2245626  70.4217768  28.1434512  58.4745121  70.7020521
  28.5142589  59.2853928  69.4789600  79.7761250  65.1979589   2.7664927
  80.6366158  64.9951410   2.3995352  79.9652147  65.5797386   3.6236507
  67.6330709   8.0032778  67.8724051  68.4524155   7.5719464  68.1150246
  67.5848007   8.7667334  68.4477663  79.3049574  12.5911748  49.9889565
  79.0147829  12.5011158  49.0812540  78.5188103  12.4254608  50.5092859
  27.7459478  77.7001190  45.8494329  26.9294524  77.2080708  45.7630730
  28.2409954  77.4832344  45.0594234  67.3236942  29.7455978  73.0234718
  67.1961784  30.3332353  72.2787189  66.7207718  30.0714922  73.6916828
  84.9733829  33.2934594   0.2368613  84.6138573  33.6116934  -0.5912089
  84.2820644  33.4595966   0.8777238  78.3998537  59.0176249   4.9477458
  77.8558588  59.5351601   4.3540621  78.3570671  59.4860077   5.7814240
  64.9585676  59.2970133  14.2403507  65.0310421  60.1961517  14.5605552
  65.3878593  59.3120623  13.3849466  13.1962609  62.4341726  19.1323328
  13.8673890  62.8093958  18.5622215  12.4436355  62.2956991  18.5573447
  65.2886820  29.3841887  59.2721653  64.3989801  29.3375564  58.9221907
  65.1739120  29.3605518  60.2221680   5.2773287  86.0202118  41.4611721
   6.1871721  86.3146097  41.4193773   4.7637130  86.7977531  41.2424040
  45.9004736  20.1199484  34.5179081  45.8730507  19.1654468  34.4515181
  45.3543043  20.3230095  35.2773142  38.8167167   5.4196537  20.7881355
  39.0803933   5.4448760  21.7079568  38.1767797   4.7093251  20.7418132
  62.6324701  18.4499776  70.2311325  63.3155394  18.0687666  69.6794796
  62.0291471  17.7262461  70.3997946   6.2885296  57.0475149  11.2483943
   5.9320021  57.7878761  10.7574952   6.6667163  56.4765596  10.5796504
  52.8791952  39.5641232  40.9848690  53.7562227  39.7871256  40.6729078
  52.9752636  39.4860220  41.9340277  17.7043998  74.3694544  72.2456598
  16.8737972  74.8181438  72.0875025  17.4801064  73.6522961  72.8386211
  62.1142578  24.9169803  63.3118010  62.5086355  25.6434202  63.7944841
  62.4879074  24.9824667  62.4329805  59.2725945  23.5978603  28.9224887
  59.0280676  23.1957221  28.0889869  60.0245047  24.1508341  28.7101626
  64.0790701  34.6099377  61.2728739  64.1702986  34.4822311  60.3286314
  63.5113144  35.3759480  61.3572168  67.1318960   1.0852879  66.3755035
  66.8699694   0.8143327  67.2553968  66.4321756   1.6713439  66.0871267
  21.8391728  13.6257100  55.6551790  21.7305875  13.3966339  56.5781975
  22.1518350  14.5303142  55.6680822  60.9231043   9.4092959  48.5395384
  61.4862490   9.0553492  47.8511906  61.5147114   9.5676357  49.2751789
  27.1432400  11.7379379  56.0826588  26.2440395  11.9916272  55.8745432
  27.6853967  12.3123264  55.5419397  89.6287251  48.9516783  70.6800318
  89.5592403  48.1185913  70.2138042  90.3778553  49.3901682  70.2765989
  66.4800072  16.8231297  23.5423589  67.1820641  17.1870875  24.0816927
  65.6939840  17.2905958  23.8249898  35.0429845  57.6183462  12.3475325
  35.5896401  57.4157333  13.1067073  35.2641463  58.5233593  12.1278298
  70.7427692  13.2759428  35.5729556  70.5578899  13.9415777  34.9103999
  70.8409834  12.4639130  35.0757718  34.8289776  10.3008771  40.5478907
  35.4534221  10.7664049  41.1042929  35.2067471  10.3511465  39.6698236
  22.6977634  69.7839069  66.0794783  22.9568005  70.0974274  65.2129698
  22.5365376  68.8483191  65.9573507  47.2699118  25.1130104  52.1156740
  47.8476620  25.2090549  51.3585711  47.3611069  25.9378433  52.5927162
  28.7914872  53.3063126  64.9935532  28.9881134  52.3959064  64.7727966
  28.2004118  53.5987091  64.2997456  56.9116354  23.0197096  60.0837135
  57.0471478  22.4900985  60.8694458  57.1046543  22.4257708  59.3583107
  64.7489309  26.7109323  22.9178929  65.0879335  25.9273815  23.3507419
  65.4320526  27.3692822  23.0449843  81.6022778  13.7068713  39.4492960
  81.0515594  13.8667417  38.6828852  81.3303185  12.8447652  39.7640157
  36.6509795  61.6516352  65.3645277  35.9848785  62.2862720  65.6286764
  37.4765563  62.0320892  65.6643724  15.5920637  78.4192705  39.8191762
  15.9420919  77.5732946  39.5398378  16.0069251  79.0545940  39.2356658
  42.4673271  29.9465942  11.6659188  41.9871759  30.5963087  11.1525393
  43.3753729  30.2487040  11.6455579  16.2147474  64.1291809  27.2191930
  16.6678047  63.9729786  26.3905978  16.3968241  63.3486938  27.7425694
  39.8875499  84.0401936  49.5056915  38.9400101  83.9425182  49.5998240
  40.0659561  84.9351311  49.7946262  54.0556383  10.4557478  50.6219721
  53.4144163  10.2616024  51.3056183  54.0960646  11.4117420  50.5960274
  24.1509342  22.5743222  59.2447376  23.3384871  22.4898529  59.7437668
  24.0777850  23.4239841  58.8100481  17.8283143  51.0377598  30.9480166
  18.7671494  51.1604786  31.0885882  17.6835036  50.1037979  31.0996032
  90.8636665  72.0054293  68.3373117  89.9557972  72.0262337  68.0346918
  90.8101940  72.2151232  69.2697287  44.9881077  21.0618234  57.7602386
  44.4080734  21.7954397  57.5562763  45.3117943  20.7684445  56.9085407
  87.0108604  79.0946150  20.7529736  87.0567513  79.9648762  21.1489177
  86.4879799  78.5792923  21.3671923  24.8332238  60.7859993  30.0051427
  24.9680781  60.2793074  30.8059597  25.3224444  60.3090906  29.3347287
  20.4145646  26.2030458  34.0151572  19.6540189  26.5119171  33.5228157
  20.5283928  25.2948093  33.7351918  42.7387094   6.9563043  49.9118423
  43.5008764   6.9290549  49.3334055  43.0482101   7.4122238  50.6945181
  46.8788767  12.9884088  37.2603083  46.6590500  12.9287732  36.3306022
  47.7720976  13.3322191  37.2736478   6.0562426  83.2167530  63.4814882
   5.8900785  83.0427361  64.4079542   6.5116823  84.0586281  63.4738445
  14.9065566  24.6171856   8.8489419  14.2818093  24.9683046   8.2144034
  14.3702316  24.1075873   9.4563115  78.7280655  80.7848644  41.3398743
  78.0007267  81.2760353  41.7219162  79.0667868  80.2571678  42.0630836
  45.4959202  82.8421497  73.0404377  45.2255487  83.6007786  72.5231171
  44.7235823  82.2769928  73.0584812  11.1637235  29.8577809  32.4899364
  10.4308999  29.2707086  32.6758027  10.9965348  30.1761436  31.6028476
  37.7323008  33.8011551  58.2070160  38.6341476  33.6777878  58.5031366
  37.2511983  33.0692220  58.5930824   0.9171331  73.1465721  55.9844732
   1.5674271  72.6894188  56.5177250   1.4289212  73.7570286  55.4537678
  80.0726318  36.0159540   4.3400362  80.1790333  36.7206287   4.9790564
  80.1842308  36.4436769   3.4910187  12.5558281  81.9620132  50.5079317
  12.4356222  82.8834057  50.2781057  13.2421124  81.6549587  49.9155140
  76.4053154   4.1965052  40.7324171  76.8318367   3.5326183  41.2742376
  76.4979839   5.0083089  41.2310362   8.2375300  78.2588243  49.7980356
   8.2678014  79.2120647  49.7165203   7.7850491  78.1035852  50.6271267
  48.3279037  18.5929275  60.6189251  47.7351141  18.3199322  59.9187088
  48.8733149  19.2710197  60.2202368   7.2401893  53.0045795   0.3292157
   6.4090580  53.2815170   0.7149065   7.8008521  52.8125238   1.0808831
  90.4916954  75.0160742  26.3805246  90.9213066  74.4506311  25.7387066
  91.0803223  75.7653713  26.4716125   7.1082759  64.5847607   2.2257559
   6.3713133  65.1133060   2.5319514   7.3362738  64.0347242   2.9752287
  78.7037897  58.7146425  32.0358944  78.5816622  57.8155565  32.3407841
  79.1779327  58.6249018  31.2092352  54.9959993  62.6022816   9.4114369
  55.9494019  62.5282669   9.4535983  54.8370314  63.5149908   9.1707557
  21.0977554  17.3491406  27.5424886  20.6800604  18.1346405  27.8956890
  21.9980502  17.3910427  27.8648901  65.7226086  27.3679805  71.1193466
  66.1319971  28.1344461  71.5208006  66.2466621  27.1990633  70.3363609
  29.4458842   8.9783359  68.0652666  30.1095676   8.4006524  68.4421492
  29.3169284   9.6583867  68.7264252   5.5539745  25.9156060  73.7016821
   5.4045641  25.8029199  74.6404123   5.1950610  25.1218224  73.3050442
  13.3203828  80.6847000   3.6101094  12.9195809  81.5538979   3.6013788
  13.4894013  80.4896164   2.6883677  11.6620231  72.2440863   5.7205939
  11.6654062  72.5624895   4.8179096  12.5252450  72.4793482   6.0607892
  37.5251746  82.5736904  63.7728262  37.0699215  82.8512955  64.5677519
  36.8266869  82.2867203  63.1846142   1.2707245  64.9621964   4.2640486
   1.7633960  64.3135071   4.7667527   0.6542294  65.3355455   4.8939511
  45.4155922  23.3064795  68.2885599  44.6836185  23.4740710  67.6949596
  46.1014605  22.9452205  67.7270365  64.2543602  36.7387342  41.8917322
  63.7886095  37.4349666  41.4285183  65.1624393  36.8236065  41.6011763
  77.2857428  58.7594223   0.9213067  77.2215796  57.8046322   0.9433708
  77.1031046  58.9907694   0.0106184  64.5165157  11.3763869  58.2791567
  64.3845892  12.3154593  58.4094191  63.6317253  11.0168087  58.2152748
  67.4217606  53.0526829  10.1470506  67.2247887  53.5602713   9.3597835
  67.0540476  52.1864843   9.9717838  27.3411918  30.9560227  53.3353996
  27.7005243  31.3105869  54.1486645  27.0744729  31.7272544  52.8351068
   5.7776928  40.8512354  28.2651043   5.8662474  41.7260027  27.8867316
   6.3752753  40.3069067  27.7524328  24.0777683  11.2876999  62.5826645
  24.9694872  11.3367140  62.2381830  24.1864467  10.9969521  63.4881401
  23.8752794  73.1131124  63.6259699  24.6844912  72.6458693  63.8335466
  23.7215066  72.9260492  62.6999044   3.5429561  64.1920996   2.6407871
   2.7724627  64.4075298   3.1662971   3.1858844  63.8625860   1.8160732
  50.1650143  80.9154797  35.1717782  50.2501106  81.8682003  35.2079344
  49.2242479  80.7559872  35.2476811  56.6666842  14.8817706  66.3514614
  55.9227371  14.4132090  65.9730053  56.8239641  15.6083560  65.7484961
  72.2115946  31.4572144  65.6277943  72.0756435  32.2975993  65.1901817
  72.1559048  30.8095407  64.9251938  21.3641429  84.7337723  12.6503301
  21.7979884  84.5489979  11.8173397  21.8144560  84.1752529  13.2839787
  13.5171068  64.1351175  11.4629734  14.2077696  64.6937418  11.8195653
  12.8289771  64.7451162  11.1972487  23.4512448  13.1727791  48.9276934
  23.7046146  13.3589196  48.0236006  22.9567170  12.3549616  48.8743067
  69.5046997  41.3358259  32.7683020  69.8236942  41.2198830  33.6633062
  70.2659321  41.1538601  32.2172594  22.6316215  84.9555046  63.6382866
  21.9379665  84.7419506  64.2623663  22.2502472  85.6318040  63.0784607
  70.4535913  11.5288222  63.0369139  70.1949739  12.4018598  62.7416945
  70.6685972  11.6429472  63.9626455  74.0008688  24.7096920  45.9216499
  73.9140701  23.9530134  45.3418732  74.9422169  24.8802042  45.9536123
  54.1603327   3.7681907  47.0262384  54.8335314   4.4466749  47.0781898
  54.1304350   3.3925802  47.9061556   8.8348508  25.6474519  53.0509090
   8.2667732  25.2161145  53.6892462   9.6318656  25.1174188  53.0428934
  36.4759564  30.3380442  55.2344942  36.7379117  29.7019625  55.9000826
  36.0731721  29.8107171  54.5446205  72.9331446  24.9401498  54.9707222
  72.9360151  25.4621243  54.1683722  72.9914522  25.5846977  55.6759787
  73.2439899  10.8418322  54.3352127  74.1342163  10.8335245  54.6868563
  73.2590532  11.5212917  53.6611652   1.5447682  32.6109362  44.4554901
   1.6515069  31.6619945  44.5214319   0.7743027  32.7272344  43.8995314
  82.1544266   2.4280733  70.8583212  82.5118637   1.6179496  71.2218714
  82.5106621   3.1189278  71.4169312  68.4475517  64.4093180  65.5025196
  68.1822824  65.2822876  65.2130508  67.7602386  63.8292170  65.1749229
  37.7581644  52.1147823  59.8449230  37.6736522  51.3110161  60.3577995
  37.8943896  52.8019238  60.4972363  10.3087997  59.1853857  19.9043345
   9.5172459  59.2931890  20.4316401  10.9869349  59.6529436  20.3919339
   8.9032853  23.0115986   2.6252800   8.4366691  23.6980748   2.1485731
   8.5989159  23.0980802   3.5286695  78.4367037  45.2657795  74.5428896
  77.5493145  44.9755716  74.3318224  78.4445620  46.1959410  74.3171167
  33.1000376  42.8367186   7.4549580  32.8261542  42.4894524   6.6060597
  32.6520014  43.6797047   7.5247329   6.2153906  17.3475242   2.2474065
   6.8462670  16.6690290   2.0068401   6.0956877  17.8580475   1.4466137
   1.8692523  35.6220698  14.6484900   2.4332625  35.0546050  14.1230309
   2.4055539  35.8582950  15.4053319  78.2120705  85.8218479  46.7219067
  78.5158110  84.9411201  46.5021706  78.1116962  86.2585735  45.8760738
   4.5354033  51.1436081  16.1631596   4.3075594  51.7341137  15.4450917
   5.3755742  50.7649183  15.9044313  68.6217690   7.8266507  63.4215546
  68.7924337   6.9805896  63.8354206  68.1223965   8.3165038  64.0749311
  16.5863132  57.8180456   4.7428259  17.2073686  57.8049612   4.0145743
  16.4311647  56.8947220   4.9419141  84.4060898  69.7637463  45.4463387
  84.6510792  70.6652355  45.6549788  84.8275089  69.2376232  46.1259222
  80.0144958  71.9174337   9.9000978  80.3932381  72.3553467   9.1378510
  80.7275009  71.3813210  10.2471447  84.3611336  14.2395353  32.3560405
  84.0682697  13.6244643  33.0284619  84.5407295  15.0492191  32.8339410
  81.2426472  38.0496478  56.7038584  81.0795879  37.3217273  56.1040497
  82.0487785  38.4512019  56.3796139  79.5709133  77.2787428   6.4242172
  79.3475866  76.3574839   6.5570498  80.3455830  77.4183369   6.9688570
  69.9537945  23.9597535  62.5823307  69.4177771  24.3735361  61.9057941
  70.2491760  23.1401181  62.1858740  50.2364349  58.2505417  67.7033615
  49.3701982  58.4413242  68.0631781  50.1770067  58.5120201  66.7844915
  57.7297306  10.5652046  55.5558586  57.3012352  10.0015235  56.1999798
  57.0988512  10.6325066  54.8391390   5.8537060  18.3632886  51.5833569
   5.0350773  18.7198722  51.2384987   5.8089596  18.5284352  52.5251389
  82.2507477  11.5367472  63.9635611  81.3976574  11.4395189  64.3866634
  82.8840542  11.4191937  64.6716070   4.3074781  40.9253359  36.2478638
   4.3643668  41.7811394  36.6728330   3.6514807  41.0422945  35.5606794
  47.1076059  16.2171102  65.5356264  47.5411558  17.0317435  65.7898664
  47.0343637  16.2720239  64.5828152  53.9645052   7.5395310  56.5247869
  53.9171171   7.4860698  55.5702591  53.6529112   6.6868395  56.8281937
  43.9913273  11.5286148  74.4691610  43.8439703  12.4609506  74.6281195
  43.6155939  11.0929024  75.2341509  78.1967115  31.6415286  62.9081488
  78.8645220  31.6855335  62.2238111  77.4483919  31.2197876  62.4857950
  79.6486521  29.6596551  67.4688721  80.4318237  29.1714692  67.2148132
  79.2285585  29.1107416  68.1310225   3.4246260  81.7447948   4.3859741
   3.0227718  81.0766888   4.9412954   3.9093623  82.3022938   4.9946284
  60.5311871  18.6711895   8.4922063  60.3148270  17.9401839   9.0710407
  61.4846325  18.7408340   8.5404766  55.5214167  18.0780709  61.7181778
  56.2282944  17.5971079  61.2877846  54.9853611  17.3995650  62.1286678
  30.0323462   5.1472455  16.2862825  30.7567263   4.5275468  16.3727629
  30.2438641   5.6551409  15.5029988  68.5368443  38.1519341  68.3135986
  68.4217215  38.9317155  67.7705336  69.4043493  37.8224874  68.0788088
  35.5629706  80.1931763  69.0493441  34.6792030  80.3859138  68.7362337
  35.4334760  79.5668364  69.7614956  72.5604343  32.9181242  33.6199713
  72.7037001  32.2311187  32.9690242  71.7031431  33.2822084  33.3992410
  64.0305567  30.2749634  50.4882956  64.4655037  29.6582127  51.0770845
  63.4574795  29.7288322  49.9501896  76.1898947  42.0850754  50.1925230
  77.0128059  41.5994978  50.1353693  76.2755728  42.7793217  49.5391369
  29.6679711  11.2270629  63.5673141  29.2405581  10.3722048  63.5147238
  29.5637488  11.4911211  64.4814491   3.2018948  70.5243969  10.3430080
   2.6891673  69.9109793   9.8166400   2.6470339  71.3011503  10.4138339
  16.1791956  73.1347656   9.7507423  16.9416738  73.7123013   9.7869211
  15.8473468  73.2318306   8.8581687  45.9370041  70.6929255  68.1034565
  46.6229582  70.0254440  68.1163788  46.2534332  71.3495731  67.4830437
  82.0532227  64.2428827   5.7625550  82.1440506  63.3921909   5.3332478
  82.6657104  64.2069960   6.4972723  86.7474461  78.6038637   0.7265673
  87.6052952  78.1910324   0.8260018  86.7773914  79.3619967   1.3101496
   7.9944539  30.9314728  68.8340759   8.1003022  31.4093351  69.6566772
   8.8793647  30.6451488  68.6078358  87.5224400  42.3166370  52.7548838
  87.0835590  42.6109076  53.5530186  87.7328110  41.3979244  52.9220486
  72.1868515   8.0360091  51.4405537  71.3811064   7.6256782  51.7546129
  72.8313351   7.8523028  52.1240187  21.0895777  84.9650002  39.1706443
  20.5081272  84.6202278  39.8483467  21.9197559  84.5103836  39.3133473
  86.6448879  23.0885434  53.1818676  87.2071457  23.8399696  52.9935837
  86.3472652  23.2312703  54.0803576  60.3358412  17.6881051  43.4419107
  60.5825090  18.6111760  43.3842230  61.1686897  17.2164512  43.4302378
  46.8251085  11.7387414  43.5800266  46.2030983  11.4835370  42.8987026
  47.6632261  11.8128097  43.1236219  81.6105938  34.6836448  64.9570036
  80.7946301  34.8157597  65.4396868  81.7519283  35.5098605  64.4948101
  40.0898790  64.3757248   4.2933050  39.5500278  64.9714279   4.8128513
  40.6707048  63.9609432   4.9311385  86.1326718  34.1882273  74.8872293
  85.4303574  33.6788030  74.4829054  86.8319463  33.5527511  75.0402618
  34.0754104   1.2316077   1.2400684  34.1114998   1.8186156   1.9952844
  33.8801646   1.8058044   0.4995219  25.2214742   1.2244637  53.4021568
  25.0355220   1.9632909  53.9816284  24.5030022   1.2293783  52.7696991
  52.8013945   7.3174304  54.0655804  52.8757000   7.0495462  53.1496382
  51.9167423   7.0556283  54.3206835  74.7885656  48.3351278  68.4107685
  75.1561928  47.8124666  69.1234446  73.8602924  48.4183645  68.6289597
  23.3732533  59.4552898  16.8924081  24.1208196  59.4088411  16.2964058
  23.6718702  59.0115166  17.6862133  67.8478479  14.3749630  48.1465864
  68.4737682  14.9386787  47.6919651  67.0503330  14.9010491  48.2051897
  78.9801693  43.4241199  59.5093107  79.3653345  44.2462206  59.8126745
  79.7015858  42.7957726  59.5404243  41.6822290  85.8682823  24.5460486
  41.1749077  85.2422428  25.0626993  41.2317467  85.9031487  23.7021995
  40.2764131  23.9413782  75.0245078  39.9609710  24.6433636  74.4553420
  40.8549501  23.4220215  74.4661234  32.1408558   6.7417198  54.0840530
  32.5720215   6.8265951  53.2336855  32.8423977   6.4887369  54.6841097
  66.2101603  14.1913855  56.3516712  67.0154333  14.0069807  55.8681822
  65.5564499  13.6140203  55.9572840  68.6697960  16.4440393  63.8252592
  68.0303764  15.7506728  63.6621094  68.2336283  17.2451830  63.5351562
  16.7111015  75.1028109  59.4726372  16.3243413  74.2754316  59.1861248
  16.0969949  75.4413509  60.1241732  49.6367407  76.2184048  73.5846758
  50.1859283  76.4024210  72.8225994  49.1279697  75.4477310  73.3327770
  22.7804518   8.9037853  60.8618021  22.8215671   9.8132443  61.1574793
  22.7218032   8.9643425  59.9083233  67.3025417  29.9352431  57.4572611
  66.6478014  29.7649693  58.1344271  67.9020596  30.5654502  57.8568268
   0.6374115  58.1576538  66.5584803   1.0241008  58.2436562  67.4298620
   1.2876716  58.5397863  65.9691000  33.9132571  18.7126005  44.9322796
  34.6660352  19.0634716  45.4081488  33.9378428  17.7715254  45.1055002
  62.8693438  16.7303514  43.2268381  63.1615543  16.1001933  42.5682449
  63.3388090  16.4801824  44.0226078  54.0513611  10.2545047  42.9835033
  54.7378206  10.0841141  42.3385429  54.1344738  11.1874199  43.1809664
  81.4076328  47.7260208  68.5416269  80.7298183  47.4056101  69.1367245
  80.9371853  48.2803202  67.9189920  91.0983849  26.4909673  62.7598572
  91.0378551  26.4768076  63.7150383  91.2843037  27.4050665  62.5451708
   5.2624238  48.3593225   6.3707614   5.4678273  47.4331617   6.2432396
   5.4970336  48.5333872   7.2822946  35.0509596  21.8880486  26.4132404
  35.7922363  21.4593887  25.9854650  34.3845749  21.9531441  25.7291889
  71.4203405  30.0210500  43.3539724  71.1584377  30.5875993  44.0796900
  72.3077393  29.7403264  43.5774708  54.7065449  18.4147799   4.2315641
  55.0161886  17.6972413   3.6788496  55.5018950  18.8853085   4.4810802
  40.0621033   1.6815615  49.2477083  39.2772079   1.4112262  48.7711668
  40.7131720   1.8430001  48.5648632  31.6253662   6.1680084  18.5290647
  31.1038756   6.0291445  17.7384973  32.1130991   5.3519857  18.6406660
  75.0370026  26.2041712  38.9141846  75.0473976  27.1566463  38.8197660
  75.9506845  25.9696078  39.0766549  68.5935688  40.4042864  14.2501760
  69.1188860  41.2019825  14.1872764  68.6200142  40.1726675  15.1785541
   2.0426476  74.7834301   2.4458320   1.1717647  75.1558208   2.5841060
   2.3568681  75.2005005   1.6436175  22.1057105  34.3224597  36.7312980
  22.0040870  33.7510967  37.4925137  21.4258981  34.0335536  36.1225104
  78.9798403  35.1877952  44.2363691  78.0821609  35.2471232  44.5633078
  79.2542410  36.0978365  44.1234207  43.7770796  23.6568236  44.0070724
  44.1303205  22.8720808  43.5879898  42.8554964  23.6720467  43.7488222
  14.2301929  74.5607996  49.4079971  13.7906516  75.4107141  49.4340658
  14.2320561  74.2641068  50.3180552  31.8867421   6.4271218  59.5785046
  32.8099275   6.2084776  59.7056103  31.8670678   6.9134635  58.7542963
  47.8451967  22.4546981  70.3343153  47.9039574  22.2403073  69.4032860
  48.6222982  22.9861498  70.5072308  66.7728472  19.6102881  63.1283283
  65.8931255  19.8455513  62.8334236  66.6564751  19.3437934  64.0402889
  90.5890656  18.4717548  55.8046579  90.6523609  19.1903877  56.4337778
  90.8092022  17.6899385  56.3111496  49.3231821  53.9102840   8.9529747
  48.5110855  54.3521738   9.2009044  49.7637796  53.7346935   9.7844046
  79.8474741  46.1595678  54.2297840  80.5449486  46.6144466  53.7577248
  80.3073502  45.5977726  54.8535824  48.3288479  83.3177948  38.7092662
  48.8763857  82.8369141  39.3298960  47.4494553  82.9635429  38.8412070
  55.5925512  71.2698507  61.5581799  56.1023474  70.4756546  61.7181635
  55.6868839  71.4299250  60.6191874  43.0946970   4.0226164  37.7498174
  43.1972885   3.1977600  38.2244945  43.5305500   3.8720605  36.9110107
  38.0537033   9.2165828  63.6554289  37.1989179   9.5983219  63.8550472
  37.8828025   8.2787824  63.5685158  87.1998692  80.3078461   4.7599161
  87.2290897  81.1871719   4.3828726  86.2799644  80.1760578   4.9893311
  65.9670258  40.5269623  35.0353479  66.1300278  39.5909071  35.1513767
  65.0945377  40.6656265  35.4038191  41.2692642  76.4921570  69.9319410
  41.3757801  77.3263121  69.4746971  41.1581230  76.7353153  70.8510447
  32.7515411  10.8896363  46.5178156  33.0201244  10.2510047  47.1783018
  32.3242068  10.3670549  45.8391953  46.8060684  24.8664665  22.0228648
  47.6387167  24.4258165  22.1924400  46.5730047  24.6036911  21.1324358
  40.6491852  12.5764906  39.7213674  41.5747070  12.4776590  39.4980359
  40.4805899  11.8809748  40.3570271  72.9112911   5.9575224  56.6723061
  72.8960133   6.9088721  56.5677452  71.9978046   5.6905967  56.5697241
  41.6391182  78.7407351  74.1022444  42.3990297  78.1756830  73.9626598
  41.8765163  79.2792559  74.8571444  73.4676123  16.1029649  56.3985157
  73.8031912  16.6086090  55.6582832  72.7922773  16.6614401  56.7835617
  76.4227200   6.3960147  61.5216017  76.7496014   6.7355967  60.6884956
  77.1990108   6.0458928  61.9586658  10.0843620  34.2628241   4.9262449
  10.8950043  34.5593858   5.3399384   9.3910730  34.5699334   5.5104256
  33.3661580  70.9866285  40.4012442  32.7910447  70.8301115  39.6522593
  33.5268044  71.9301414  40.3868198  30.0881243  14.7544444  64.5521545
  29.9585080  14.1779482  65.3052044  30.1575851  15.6308925  64.9306345
  24.0814042  68.1586456  23.6475420  23.5748649  67.6684141  22.9999924
  24.5093441  67.4853897  24.1765285   3.6756688  48.0849504  62.9462624
   3.9273781  48.8575029  62.4402618   3.2279149  47.5210142  62.3156071
  76.7158747  52.3123264  59.5350695  76.9041491  52.2386408  60.4706764
  77.2519493  51.6314554  59.1285324  57.0666504  51.3940382  42.3551941
  57.0040751  50.4585743  42.5481367  57.8621006  51.6787100  42.8051472
  13.4043825   0.0480724  39.3378687  12.7072668   0.2570651  38.7161112
  13.9291024   0.8471340  39.3868732  12.4144351  46.8603468   4.4038144
  12.1938396  47.7917814   4.4017756  12.9257429  46.7370558   5.2035606
  66.8435240  45.7974672  29.8890948  66.6072941  45.9669352  28.9771152
  67.2016335  44.9098015  29.8827696  11.3478255  26.8569064  65.6600571
  11.7432058  27.4981046  66.2506247  10.4284632  26.8228459  65.9243393
  29.6148086  33.1073070  14.1415644  30.3809357  33.4338808  13.6697245
  29.9650240  32.4458885  14.7383106  82.6078415  35.1409245   7.3636085
  83.0430889  35.8766913   6.9329846  82.9948711  34.3640995   6.9598973
  50.5792046  10.0939608   8.8022274  51.0828018  10.5561745   8.1321663
  50.0255728  10.7693231   9.1941559  19.8885632  28.7701678  53.7968493
  19.0120196  28.4292841  53.9749002  20.4296827  27.9895067  53.6785698
  11.2018502  44.5210266  37.9052210  10.8786750  43.8764906  38.5347939
  12.1167624  44.6580315  38.1509781  69.0632868  30.3590155  45.4358339
  69.0605879  29.4351578  45.1854134  68.3665752  30.4324079  46.0880899
  65.8959866  20.1489663  55.0618839  65.0687265  19.7235489  54.8362875
  65.7656527  20.4677176  55.9549952   9.1432315  23.5499978  40.9638882
   9.1233325  23.1177092  41.8176794   9.9193388  24.1092992  40.9966373
  72.7519894  56.4407396  46.8478870  72.6915312  55.7774973  47.5354052
  72.2740364  56.0640717  46.1090279  22.7896643  39.4720769  66.7852211
  22.4119520  39.9298215  67.5362396  23.7322783  39.6181917  66.8649673
  39.1083860  60.1811504  55.0560474  39.3636680  60.5833006  55.8863115
  38.7781358  60.9087610  54.5290279  78.1870890  62.3172092  45.0657845
  77.4003839  62.7450514  45.4038382  78.5232496  62.9220438  44.4044209
  77.7239799  71.3973999   8.5166872  77.3164034  70.8894348   9.2181766
  78.6058331  71.5850878   8.8381475  44.1969347   3.8846937  17.2862828
  44.3217230   4.8309740  17.2140861  43.8824511   3.7521201  18.1805742
  13.6497402  75.6312943  63.1542015  14.1280651  75.5183697  63.9755917
  12.7964282  75.2292061  63.3167219  57.6410341  22.7950907  53.5104609
  58.0372620  21.9593906  53.2638025  58.3224821  23.4441423  53.3355570
  22.5518847  36.9363809  65.6618786  21.7400455  37.2786832  65.2877426
  22.8423667  37.6179624  66.2679243  76.7162991  51.6379023  54.1682768
  76.1185360  52.2905302  53.8036108  77.5787354  52.0505381  54.1217375
  88.8093185  50.6458902  64.4822884  89.6282864  50.3760862  64.8978853
  89.0646267  50.9082937  63.5978746  10.1115739  54.1832447  67.7641869
   9.3510807  53.6320591  67.5795937   9.7934729  54.8256445  68.3985090
  85.8172989  23.9087152  68.8088942  86.7185974  23.8587403  69.1273069
  85.7928467  23.3082581  68.0638504  82.9603767  36.6685104  34.4986200
  83.5984421  37.3714161  34.3760419  82.1259499  37.0529485  34.2299604
  50.8355570   7.1219105   8.8100982  51.3495159   7.8585392   8.4792507
  49.9252558   7.3983181   8.7043613  33.1518936  34.5179486  48.0663967
  33.1574631  34.0395045  48.8954258  34.0609121  34.4903326  47.7678108
   6.5640992  54.3092346   4.8529929   6.1778069  53.8646412   4.0984422
   6.6101563  55.2288437   4.5914027  88.9693356  56.0678816  47.7454090
  88.3707809  56.1203194  47.0002794  88.3962536  55.9849977  48.5075998
  54.7978115  37.9540443  47.7610779  54.9859715  38.8665199  47.5414991
  54.2817211  38.0028510  48.5657501   6.9913715  28.9641595  74.9721575
   7.0771271  29.9042010  74.8134136   6.9006419  28.5812068  74.0996075
  64.1119623  72.4355793  15.7480776  64.8590946  72.4616146  15.1502895
  63.9466333  71.5026617  15.8843243  72.1045971  15.8076084  48.0182791
  72.2463894  16.3994372  47.2794485  71.7495728  16.3673627  48.7088299
  11.9513547  19.4473124  25.5661559  11.3151181  18.9614236  25.0414205
  11.5177143  19.5759344  26.4097452   5.9465480  58.7879848   8.5139996
   5.5321401  59.5953798   8.2096839   5.3363043  58.0953741   8.2607722
  62.5454617  36.8250275  61.4381599  62.2750425  37.3246861  60.6678009
  62.1759081  37.3069239  62.1780491  53.2212353  19.2941666  74.0990162
  54.0132332  19.6627450  73.7077188  53.2593775  19.5642567  75.0165272
  68.0690527  38.0648613  70.9610176  68.0918217  39.0179420  71.0467529
  68.0232048  37.9102898  70.0174904  91.2034873  35.4969740  57.1769285
  91.7654666  35.5525184  57.9498005  91.5984371  34.8079348  56.6426325
  75.7023859  16.5918624  61.4056683  76.1819935  15.7721519  61.5251875
  75.0024223  16.3723457  60.7907724  64.6598625  18.1640542  68.2590675
  64.8785877  19.0897250  68.3664179  64.3876743  18.0867457  67.3446465
  81.6938210  27.8480434  61.5824080  81.6567802  26.9246912  61.8319702
  81.1503124  28.2937551  62.2321558   2.3837591   0.4369051  71.5072298
   2.0757891   1.0765821  70.8651972   3.0110336  -0.1026075  71.0258961
  89.7882843  81.4976883  18.0508423  90.7207012  81.3582516  18.2163370
  89.3805790  80.6556129  18.2531071  25.6502843  68.7165356   2.7534580
  26.3043427  68.7541628   3.4513283  24.8307586  68.5125542   3.2040176
  75.0228786  48.9490032  38.9464712  74.1686916  49.2782450  39.2261076
  74.9464273  48.8612843  37.9963684  55.9126568   7.6043010   4.0320709
  55.5300665   8.4147048   3.6957610  55.3154755   6.9169575   3.7368369
  67.3296595  47.1207809  52.4995756  67.7825356  47.6573753  53.1501102
  66.4783525  47.5445271  52.3902750  85.2355480  31.9696784  37.0365095
  85.5425739  31.3079739  36.4167356  85.5347443  31.6557288  37.8898263
  77.4505424  16.0093081  57.3381376  77.6626921  16.6381443  58.0279112
  77.0300055  16.5339220  56.6568422  83.5476112  31.6637397  13.2978690
  83.6104584  30.9134340  13.8889050  82.6084995  31.8348336  13.2270277
  90.5046177  40.6463432  66.4851236  89.6875000  40.8093596  66.9562721
  90.9134960  41.5084982  66.4093399  66.7703390  24.8749733  44.1932917
  66.4794779  25.7845926  44.2582893  67.2119284  24.8247147  43.3455229
  55.6522274  47.1221685  37.1576357  56.5147543  46.9155502  36.7976522
  55.1667070  46.2990141  37.1036577  47.6822853   0.4572750  61.7220879
  48.1582642  -0.1921215  61.2044382  46.9088030   0.6621473  61.1967468
  82.6415348  27.7748966  12.4074900  83.3829308  27.1709824  12.3644769
  82.0463943  27.4727607  11.7213774  55.9005928  18.3325291  43.7675762
  55.8515549  19.2878485  43.7330580  56.7572498  18.1504798  44.1538811
   8.3725965  17.2029757  57.1690607   7.7790582  17.9296947  57.3583317
   7.9565346  16.7364967  56.4441299  85.3653240  33.2495546  45.7362270
  84.9255180  32.6745081  46.3624239  85.0277042  32.9772687  44.8829365
  84.6284580  61.0394239  37.8076982  84.5886040  61.2673473  38.7365127
  84.2097378  61.7759085  37.3621726  71.4949560  26.5522599  59.4160509
  71.8726158  26.7439151  58.5576344  72.1763229  26.8045211  60.0392151
  81.6919422  79.0079403   2.5813574  81.4221573  78.4701538   3.3258271
  81.7689323  78.3896732   1.8546876  88.2153893  52.4694586  66.3626719
  88.6143494  51.8795729  65.7230616  88.5848618  52.1971941  67.2026682
  88.4747982  64.4006157   4.9215880  87.7289486  63.8038015   4.8603800
  88.9299679  64.3016863   4.0853646  70.7170582  42.0209980  72.2538376
  70.3569174  42.2089148  73.1205654  69.9688101  41.7061186  71.7466831
  64.8758745  13.2785666  61.2493277  65.6020498  12.8497934  60.7964993
  64.1560888  13.2603157  60.6186104  56.0632181  32.6796126  72.5770712
  56.9392967  32.4309754  72.2822809  55.9028292  32.1284175  73.3430290
  80.5921364  55.9411049  56.3334465  80.9974194  56.8075705  56.3684225
  80.6174183  55.7020855  55.4069185   5.1068968  71.6522694   6.9381505
   5.4873925  71.0509157   7.5783288   5.2473873  71.2236404   6.0938931
  65.0959682  34.2280865  65.0417709  64.7891140  35.1262593  65.1657009
  66.0062265  34.3225384  64.7611523  57.9221058  77.0349121   2.5505877
  58.0433893  76.0871887   2.6083961  58.7003374  77.3483038   2.0897523
  65.4063129   2.6242375   9.6960676  65.7707977   3.2170340   9.0388179
  64.7774172   3.1600592  10.1794028  54.5168066  35.8677030  29.7529602
  54.5627356  35.0523758  30.2523208  53.8780499  36.4019823  30.2249432
   3.6473504  47.6419020  50.6914902   3.1297436  47.8768587  51.4616251
   3.2750547  46.8106318  50.3971863  78.6096716  38.2998681  31.1336851
  77.9494381  38.5049152  30.4716611  78.1113434  38.1932592  31.9439530
   6.9906670  75.2933502   9.3809479   6.6583043  75.2367783   8.4850878
   6.6507727  74.5094538   9.8124617  52.2654200  23.0511808  33.4180975
  52.1805048  23.1845045  34.3621564  52.9819536  23.6300874  33.1579471
  60.9833765  37.0016098  65.2826691  61.7901039  36.8346357  65.7700539
  61.2802124  37.2784781  64.4157982  78.1214666  47.1265793  34.1182137
  78.8426399  46.9829702  34.7310066  77.7124071  46.2663412  34.0239000
  80.3248978  79.9026251  68.5117674  81.2502861  79.6822929  68.4053040
  80.0477695  80.1982784  67.6445770  57.6527739  31.9913888  39.2671514
  57.7525854  31.2942100  39.9153876  58.0912447  32.7469039  39.6585274
  67.1333885  50.5256844  37.4586391  66.9350052  49.6003342  37.6021528
  67.9026270  50.5201817  36.8890095  65.2405453  26.5926170  59.4463301
  65.3758812  27.4565148  59.0569735  65.9187984  26.5238166  60.1182461
  78.2121181  20.8715820  66.9107389  78.0819798  21.0046887  67.8496647
  78.8403797  21.5479851  66.6577530  66.8433857   7.1917325   1.9823928
  66.9637156   6.3075030   2.3286445  67.7264977   7.5598526   1.9534503
  23.3683491  54.6250010  56.5627384  23.4353614  54.9353981  55.6597471
  24.2438102  54.7564363  56.9267797  80.9587860   5.5831617  52.8834820
  80.1692009   6.0562563  53.1461096  81.2428856   5.1315606  53.6781979
  25.9195828  29.7327995   7.0039916  25.7206130  30.0155854   7.8965580
  26.5250444  28.9996815   7.1143734  76.3709450  75.2227116  21.3259363
  76.6631079  74.3648052  21.0179281  75.5120230  75.0577879  21.7148948
  63.5874414  78.9981890  52.5024509  63.9262772  78.9235449  51.6103458
  63.7433672  78.1372690  52.8906965  40.6855726  31.8228006   1.2191205
  40.3404665  31.1572599   1.8142593  40.6823254  31.4007235   0.3600093
  60.4049826  28.6925936  59.8630953  60.0665283  28.2698345  59.0738201
  59.6843243  29.2444158  60.1670265  62.6066875  24.4240737  73.6380053
  61.8512678  24.0196013  74.0645885  63.1040955  24.8178506  74.3547726
   5.7652110  13.7572968  53.3491516   5.4909897  14.6659017  53.2247686
   5.0198692  13.2385862  53.0464363   6.8388265  55.5389977  53.3288431
   6.0348123  55.9005833  52.9559517   6.5385783  54.9589014  54.0285349
  65.5954266  15.7419682  66.0659647  64.9881315  15.6313622  65.3343916
  65.4609299  14.9649084  66.6084766  13.2474613  77.8088379  19.3368089
  12.7565253  77.9957390  20.1369858  12.7419555  77.1231508  18.9003098
  67.4354649  64.2604351  16.4503491  68.2349586  64.2869902  16.9760203
  67.6757908  64.6857882  15.6272149   4.4863540  29.4406295  72.7285910
   4.6552661  28.8849425  71.9677258   3.7977946  28.9831758  73.2111406
  45.4812288   7.2202790  45.3874254  45.3255701   7.7592629  44.6118641
  46.4288044   7.0854008  45.3991127  10.5794942  17.6515746   6.6290414
  10.7761765  18.5615468   6.8515283  11.0795403  17.1367061   7.2623622
  54.5305586   0.3769691  46.7819929  54.0066147   0.3950223  45.9811258
  54.8332310   1.2785414  46.8905687  75.0707960  50.0093317  51.9149208
  75.6675291  49.6069241  52.5459623  74.2241859  50.0236559  52.3613262
  50.1698637  14.7368956  29.2781472  50.7897282  14.9280679  28.5742640
  50.6689215  14.8802257  30.0822783   5.1374394  53.3825445   2.1945177
   4.8601201  53.9619589   1.4848682   4.3928993  52.7964163   2.3299715
  62.6684570  31.4102125  60.0570011  62.5817823  30.6901741  59.4322872
  62.2129440  32.1430087  59.6425676  76.4164972  49.0555334  54.1206408
  76.5822220  49.9833250  54.2878866  75.6749582  48.8389969  54.6858549
  90.6134796  28.7075567  26.9854403  90.9848404  29.3994832  26.4381194
  91.1388969  27.9336381  26.7824292  25.8633137  30.2600145  32.5438976
  25.8913898  30.7656646  33.3561563  24.9529266  30.3216887  32.2547197
  78.9321899   5.3842747  62.2092724  79.1018009   5.6581193  63.1106424
  79.3067980   4.5053208  62.1514702   0.5335386  30.2366328  72.3779821
   0.2984321  30.8247089  71.6602612   0.2516264  30.6980491  73.1678247
  10.5480123  47.1072626  66.9527054  10.2074957  46.3237810  66.5209246
  11.4864612  47.0957232  66.7645216  42.2489882  79.3453741   4.3413219
  41.3555622  79.1045904   4.0962860  42.2138500  79.4616652   5.2907813
  64.4063234  39.2130780  62.8990412  63.5013199  39.0399241  63.1583118
  64.3746758  40.0721407  62.4780369   5.5232853  50.7246494  56.4714146
   6.2094796  51.2753201  56.0944128   5.8840817  50.4315948  57.3081779
  68.7883043  19.3147397  45.0587940  69.5380020  19.0074587  44.5491266
  68.0377245  19.1944385  44.4770813  39.3453789  79.9887419   2.6001480
  38.7165666  79.9513245   1.8794367  38.8187528  79.8398113   3.3854604
  69.3075562  24.9721003  59.8428679  70.1829958  25.3559160  59.8930836
  69.1480207  24.8612952  58.9055824  58.8699722  32.7565217  46.1486959
  59.5433235  32.5044847  46.7806053  59.3450022  33.2391524  45.4722023
   0.1460256  50.3022480  69.4186449   1.0369317  49.9523735  69.4084072
   0.2129967  51.1413813  68.9630079  86.9657803  48.5515022  46.7121935
  86.7335129  49.0455246  45.9259176  87.6581955  49.0684128  47.1240091
  37.2093050   0.1048738   5.9555042  37.5744341  -0.5103510   6.5914369
  36.5275811   0.5720884   6.4384109  69.1050768  13.8308024   6.0300338
  68.7157869  13.1229532   5.5165792  70.0486422  13.6845124   5.9628272
  79.8720074  28.6856818  27.4093652  80.6124210  29.2834878  27.5125456
  79.5027256  28.9071059  26.5544796  65.7260275   5.6611353  68.8285112
  66.1147165   6.4849186  69.1226768  65.7593441   5.7082981  67.8730536
  34.5364809  74.8591948  71.1036587  35.2628541  74.8647833  71.7270231
  34.8988414  75.2531528  70.3101110  12.5106645  64.2537451  15.6939924
  11.6167021  64.1681910  16.0252655  13.0596828  64.2316151  16.4777780
  88.8850498  28.8885045  66.3959122  89.1824436  29.7918320  66.5044928
  88.7237549  28.5806084  67.2877741  24.8800492  35.8651495  13.7889302
  23.9987135  35.8801532  13.4157622  25.1289725  34.9409461  13.7782359
  41.7035294  79.0214348  13.6289966  42.3014832  79.5807505  14.1248274
  41.5205765  78.2873154  14.2153692  82.1316338  11.6450572   1.4057688
  83.0613327  11.8695116   1.3669977  81.8378925  11.9862580   2.2504751
  48.5912561  10.7235491  58.9642763  47.9096031  11.3664687  59.1598225
  48.1898260  10.1360905  58.3239794  63.0015182  13.0848372  52.6140070
  62.4475193  12.9729736  51.8414736  63.8902330  13.1485939  52.2642231
  59.0063715  36.7946291  42.7952337  58.4747219  37.5894022  42.7513885
  58.4122372  36.1277246  43.1394386   8.8139880  63.4309578  12.9585671
   8.2037210  63.4186077  12.2212386   9.4162560  64.1476774  12.7590179
  89.4545174  83.7375450  19.8225617  89.5518017  82.9476643  19.2907250
  89.9099636  83.5338593  20.6394529  83.6555195  23.3013463  31.8218136
  82.9074097  23.0850720  32.3783994  83.7370968  24.2526770  31.8892241
  46.9501448   1.1131993   3.5019800  47.4173641   1.8908846   3.1967899
  46.4541054   1.4150418   4.2629451  68.1222916  43.7166309  31.2067509
  67.6002932  43.3566475  31.9238019  68.9847422  43.8708401  31.5922832
  22.6923490  47.9964161  65.2844048  23.4046078  48.4500980  65.7350636
  22.3825526  48.6250687  64.6324396  11.3868010  54.4867945  63.7357998
  12.0419049  54.4647741  63.0382395  10.8968163  55.2939510  63.5788155
  61.3694048  11.5387285  32.7912784  61.3317060  12.4052823  32.3864388
  62.1103525  11.5885448  33.3952188  29.9823570  73.6298561  32.4001551
  29.3914866  72.9235172  32.6612878  29.9240565  73.6500645  31.4449453
  89.8880959  36.5179229  49.6660089  89.6312618  35.6262851  49.9010658
  90.5647850  36.4041901  48.9986372  88.9187527  36.4048553  28.5638118
  88.5303020  36.0676813  29.3710613  89.6794605  35.8441305  28.4116578
  74.9984550  40.9958315  10.4217172  74.4759178  41.2566566  11.1801088
  75.6531763  41.6883516  10.3323543  69.1504335   4.7600797   3.4037253
  69.1363478   4.9968752   2.4763843  69.2769623   5.5912679   3.8612705
  68.9541912  62.3356724  45.0704479  69.1454124  62.6285505  45.9614515
  69.0378141  63.1251478  44.5356941   0.1913145  30.0699568  38.1209779
  -0.2593539  29.2982030  38.4637928   0.2355745  29.9215865  37.1763825
  60.0914955  10.2617145  59.4336748  59.5795584  10.2872348  60.2420664
  59.7087812  10.9471965  58.8860655  74.0917158  24.8681569  70.6097794
  73.4645271  25.3056693  71.1854982  74.2406368  24.0166616  71.0208845
  83.8572216  19.2400432  71.9866753  84.5691013  19.5124733  71.4076757
  83.0624104  19.5443559  71.5486097  87.9084587  67.0154238   2.0053509
  87.2549725  66.5097618   1.5221328  87.8620148  67.8924942   1.6248010
  11.0308731  57.7236223  43.1495571  11.7351294  58.2476759  43.5311604
  11.3823640  56.8337107  43.1222010  35.8761430  81.9460678  13.7112463
  34.9648976  81.8667126  13.4291697  36.3784194  81.9631767  12.8965962
  15.8686662  63.9605713  71.3935566  15.4850543  64.3310213  70.5986738
  16.7982805  64.1814041  71.3362646  86.4241600   6.0096580  49.2951441
  86.8162346   5.6036329  48.5220623  85.9516239   5.2974629  49.7260952
  70.6494379  81.7691803  36.4458036  69.9482727  81.4319897  35.8882189
  70.8143091  81.0665321  37.0745611  45.2134895   6.4255434  17.8188705
  44.6254635   7.0395947  17.3790979  46.0640097   6.8646753  17.8161037
  80.8189297  60.9256220  68.1097937  79.9865294  60.5145454  68.3429432
  81.3008404  60.9757185  68.9353180  63.0771589  81.3287163  20.8540463
  62.2347927  81.7354584  21.0570550  63.6766720  82.0655346  20.7360816
  13.0038631  39.0776920  37.2850156  13.4543931  39.6207285  37.9318285
  13.2340097  39.4685555  36.4421105  78.0610228   0.8165438   1.3256475
  78.7928343   1.4204639   1.1993007  78.1271124   0.5485903   2.2421983
  22.1704888  82.9112911  53.3168507  22.2204399  83.2098389  52.4087715
  22.6531291  82.0847130  53.3241224  78.5847902  85.4027748  58.0632877
  78.9656878  85.7574177  58.8666391  79.2165422  84.7471905  57.7677870
  40.3834820  11.9705403  18.7164903  40.7555485  12.8293550  18.5159063
  39.4404626  12.0845520  18.5983694  14.2020154  80.6180000   1.0889967
  14.4150865  80.0717545   0.3323931  14.5668721  81.4766312   0.8748512
  18.3681262  19.5020413  55.0840235  17.5365460  19.9742723  55.1253271
  18.1934261  18.7594879  54.5058155  24.2492199  25.0983548  57.6663494
  23.5365176  25.7335091  57.5965834  25.0001669  25.6125951  57.9627752
  88.5330677  52.6404095  44.2016220  89.2043400  52.2461796  43.6446524
  88.8243961  52.4563503  45.0946379  90.0992870  61.6257048  58.1711864
  89.7014427  62.4552059  58.4355307  89.3799877  61.1283684  57.7819538
  79.0943289  80.6111526  32.1491385  79.5999432  80.2892303  31.4028454
  79.5310783  80.2362537  32.9139495  72.0677519  54.5451403  67.0283031
  72.8835249  54.9652481  67.3007965  72.3022223  53.6256552  66.9025898
  79.3943214  56.1852884  24.6135116  78.9890003  55.6102848  25.2625990
  79.3022346  55.7141209  23.7854099  88.4928036  41.2969112  37.7052665
  89.4142437  41.0955000  37.8684330  88.3895588  41.1962318  36.7589927
  29.1701174   8.3028722  11.7865372  28.2990813   8.5841399  12.0665634
  29.0261984   7.4497187  11.3770890  50.8333540   4.2428714  37.4441624
  51.1045456   5.1163375  37.1617746  50.4869652   4.3733320  38.3269024
  15.5436897  56.6693211   1.5375201  15.1049960  55.9144926   1.9299646
  15.3176093  56.6214991   0.6086320  12.9964805  19.5239556  58.6215544
  12.7787173  19.3931913  59.5444345  12.2307611  19.2008507  58.1466722
  23.5903406  50.7307482  46.1463118  22.6955724  50.6517220  45.8155918
  23.9735889  49.8643255  46.0096836  43.4488010  61.9227886   4.3183741
  44.0084934  61.6429901   5.0427276  43.6685467  62.8453112   4.1884214
  75.7473469  55.7927275  50.6210518  75.6979704  55.0424004  51.2133408
  76.5566587  56.2401152  50.8682108  88.7040329  64.0461493  43.0669355
  87.9280567  64.6064806  43.0783176  88.9114952  63.9055395  43.9907408
  59.2022371  24.2916059  21.0280061  58.7399530  23.9370441  21.7874885
  59.6918344  23.5477972  20.6769037  78.4014606  32.3634529  30.2669406
  78.2083321  33.1488180  29.7549510  79.3571901  32.3362589  30.3124928
  84.0087414  83.3887672  36.5215540  83.2792282  82.7781868  36.4155698
  84.0949631  83.8097095  35.6662130  83.3035374  38.5550141  52.0737743
  84.1482925  38.1990719  52.3493242  83.2795811  39.4343805  52.4510956
  83.0824566  54.6616411  33.3582377  84.0360546  54.6014929  33.4153676
  82.7667141  54.2118788  34.1419840  69.2212582  73.9377356  40.1442766
  69.6258020  74.7946882  40.2792215  69.5688915  73.6383867  39.3041730
  27.0990491   6.9388759  14.8722982  27.4903035   6.3684273  14.2106795
  26.7106819   7.6558614  14.3709624  83.1283855  55.4081774  46.9106340
  82.6098919  54.6035671  46.9109726  82.5081158  56.0927057  46.6597939
  81.7013454  70.9009457  55.8453226  81.0305214  70.3151369  55.4945230
  81.6156292  71.7009592  55.3268051  48.6043501  58.9261961   4.6060854
  48.2384729  59.6955538   5.0424951  49.3871021  59.2523289   4.1620508
  70.6014204  76.9494629  13.5274303  70.9886312  77.7774715  13.8115156
  70.3299379  77.1096325  12.6236176  52.7196503   4.7982159  30.1765680
  53.6314011   4.5312563  30.0596261  52.7700520   5.6036222  30.6913614
  88.7287617  13.8143349  72.8790283  88.1360722  13.2302189  73.3520603
  89.5113945  13.8576245  73.4284353  83.5890579  53.3789968  62.0578957
  82.7628040  52.8958607  62.0688581  83.7093353  53.6270237  61.1412477
  85.1884365  56.8874454  63.6687183  84.6627140  57.4972105  63.1509924
  84.7090530  56.7974424  64.4923210  91.3654995  56.6586924  72.7278233
  90.6766796  56.6442060  73.3923149  91.5339565  55.7358885  72.5373220
  44.4557047  73.0769110  72.6166487  45.2077532  73.0867004  72.0245600
  44.8383284  72.9755211  73.4881687  54.9750853  42.5731945  13.2595229
  55.0637579  42.8378057  12.3439085  54.0538931  42.3294687  13.3502650
  88.0554485  56.3308525  71.8705368  87.8406143  55.8226919  71.0883284
  88.9105415  56.7158604  71.6786575  81.1517048  34.6246481  48.1389666
  80.7218075  33.8867211  48.5712624  80.4312801  35.1718616  47.8262854
  74.3331146  34.2249942  62.2718620  75.0937319  34.7166419  61.9620562
  73.7324286  34.2183971  61.5266323  90.6501940  31.9953465  39.8910165
  91.4387226  32.5326085  39.8148274  90.7241200  31.3592386  39.1795874
  72.8289223  65.7662106  53.0712891  72.8987885  65.3549004  52.2097921
  72.7175331  65.0341749  53.6778736  37.5379086   4.1820666  55.4123163
  36.7329502   4.0819684  54.9041271  38.0339885   3.3828619  55.2350903
  10.3870952  19.5354629  27.8959274  10.7165265  19.4289768  28.7883234
   9.5061445  19.1618407  27.9196477  76.3907146  70.2697992  47.3250008
  76.1102295  70.2481270  46.4100742  75.5749464  70.2665567  47.8257418
  91.1498928  15.0942600  61.6222620  90.8343315  15.9158266  61.2458563
  90.3621483  14.6663964  61.9578600   6.7365342  73.6185074  69.7147942
   7.4385655  73.0504608  70.0321436   6.2807333  73.9016294  70.5074596
  13.2721448  53.4266758  58.6159420  12.4346840  53.0191803  58.8369370
  13.5615182  53.8366413  59.4310617  69.5445204  24.4553137  18.2667017
  68.6164618  24.3571281  18.0538714  69.5507526  24.7780752  19.1678226
  77.6008558  44.8607206  42.6550531  77.3317146  45.2292585  41.8136406
  77.6363754  45.6131124  43.2457113  84.3595695  61.2781620  56.7781162
  83.7616444  61.4945889  57.4935770  84.0171719  60.4595232  56.4191818
   5.1676011  39.1698956  64.2687750   5.2684498  39.0314102  63.3270311
   5.9343946  38.7479663  64.6563768  38.4686589  82.0700455  36.3633037
  39.1696024  81.5922737  35.9198499  38.3031368  82.8277588  35.8023190
  90.1346588  39.2692757  43.5787439  90.7277679  39.9909520  43.7876558
  90.0269699  38.8005328  44.4063377  90.8358574  63.5855770  66.8589830
  90.2392006  64.0391397  67.4543953  91.7042255  63.9109278  67.0962763
  22.3758554  54.8397207  37.8492713  22.4096394  54.4637346  36.9696546
  22.4222279  55.7852316  37.7075410  11.4221287  42.4324036  70.7655954
  12.3420763  42.1834612  70.8547926  11.4127493  43.0596352  70.0425959
  26.9228125  13.3012187  40.2060890  27.6303720  13.0371451  39.6179938
  27.1178818  12.8558469  41.0306072  83.5422134  19.9160695  16.1190796
  83.2851028  20.8038211  15.8700359  83.5851860  19.9384475  17.0750523
  20.9100747  75.1083326  43.1054020  20.6852841  75.9354353  43.5315514
  20.6691027  74.4368458  43.7435818  66.0162783  41.1923552  48.1662893
  66.6142941  40.9395647  47.4629354  66.3999557  40.8104610  48.9557076
  24.5505857  38.7993813  32.4182940  24.9303627  39.3423438  33.1090856
  24.9084640  37.9257774  32.5763130  10.6199598  58.2560921  33.5667992
  10.7082927  59.1996670  33.4322929  11.4781868  57.9784393  33.8870907
   3.5768953  39.8404980  50.3254080   4.1633931  39.8751521  49.5697260
   3.7321678  40.6644964  50.7870865  48.6594296  57.1678972  17.3531568
  48.1847668  57.8055620  16.8199480  47.9822254  56.7473221  17.8830063
  70.7666492  67.0196438  68.3652067  70.5028105  66.1535645  68.6758947
  70.1466656  67.6211500  68.7775660  54.5585203  39.1836524  74.8008060
  53.8435364  38.6670280  75.1724625  54.1924238  39.5574474  73.9992523
  12.8166199  61.0716200  53.7597847  13.6377609  60.9030771  53.2976723
  12.5114441  60.2054119  54.0295553  23.5688353  41.1178827  72.6688528
  24.0731359  41.0041714  73.4744453  22.6934528  41.3648224  72.9671097
  71.0234356  18.5901701   4.1675568  70.1281786  18.2696283   4.2770952
  71.5441799  17.8006411   4.0202513   8.3933139  67.8379250   2.3986228
   7.6254851  67.3209095   2.1549724   8.8940459  67.9201937   1.5870008
  84.1935349  63.3841753  68.0538702  83.9348698  62.6611853  68.6253691
  84.3172550  62.9786539  67.1956873  23.7662649  74.5668697  56.0445738
  23.2074928  75.3315258  55.9056234  24.3022680  74.7966576  56.8036079
  84.6029663  46.6295195  70.2714252  84.2132282  47.0384455  71.0441589
  83.9433765  46.7356253  69.5859146  70.4568100  27.4956012  25.1838207
  69.9249601  27.8633785  25.8895874  70.2751970  28.0565810  24.4297981
   2.4780861  52.6749563  49.7924566   1.7959493  52.0204782  49.6422052
   2.1498908  53.1996822  50.5226517  85.6304359  64.1036940  39.7041535
  85.1970768  63.2882118  39.9559784  86.5646458  63.9171600  39.7974014
  76.3683176  35.9070826  61.0472918  76.7301321  36.6290259  60.5333662
  77.0813465  35.2707839  61.1015272  74.9248934  37.7431870  31.1607313
  74.5472383  37.2347403  31.8784261  75.3638458  37.0933294  30.6118822
  65.3892183  46.9640064   8.4941131  64.6555376  47.5612164   8.3482391
  64.9776459  46.1275005   8.7111264  59.0567064  62.1930981  72.0795202
  59.7963095  61.6941690  71.7326832  59.2939663  63.1082869  71.9299555
   5.8086634   8.3860898  70.8117771   6.7584544   8.2703030  70.7848978
   5.4912180   7.9450744  70.0237656  17.2581100   8.6186373  41.5130520
  17.2443354   8.0080181  42.2500658  18.1818140   8.6792666  41.2694836
  85.8713055  62.3733854  51.8521357  85.9950447  63.0944633  52.4693632
  86.7567158  62.0568943  51.6729450  52.4504805  35.8474064  10.8692622
  52.8841448  36.4761233  11.4462209  52.7411127  34.9920082  11.1855829
  80.8997440  54.4253826  31.8715477  81.7427731  54.3412542  32.3170304
  81.1135197  54.3630981  30.9406066   5.6571102  67.3262644  42.2822666
   6.5276015  67.4822998  41.9160271   5.0988889  67.1790934  41.5187454
   4.3155450  49.2804813  60.4684019   4.6635672  48.4596539  60.1200438
   3.4839806  49.4017124  60.0101089  88.5240650   4.3832400  18.6612761
  89.4467640   4.2452407  18.4472239  88.2624626   3.5846150  19.1195273
   4.2577469  38.6076999  55.5740643   4.6381223  37.9771328  54.9625635
   4.9936986  39.1605425  55.8366919  80.7544518  69.0666103  60.8432055
  81.1301708  68.4634113  60.2019358  80.9472942  68.6657524  61.6907644
  32.3447728  61.5925646  59.6164608  32.5171280  60.7054090  59.9318647
  33.2069087  62.0072412  59.5848417  22.1676230  16.6060221  74.1462755
  22.3397326  16.1751091  73.3090639  21.7102242  15.9451997  74.6662092
   4.0958679  54.6748781  46.1120892   4.4537702  55.5330372  46.3394594
   3.1558612  54.7571659  46.2728643  69.9863911  77.7047205  46.1559391
  70.3109646  78.4677601  45.6777620  70.5208492  77.6741934  46.9494438
   8.9675009   6.9451880  46.0923910   9.3689144   6.8631190  46.9574738
   9.5525718   6.4607644  45.5099344  20.2075863   3.6130562  47.1618176
  19.8947561   2.7495396  47.4314642  21.1427951   3.4891447  46.9997597
  31.0386944  31.5104294   4.3519160  30.4008079  32.1524358   4.6636191
  30.9608030  31.5389228   3.3983159  24.8245311  48.8171864  36.8780804
  24.9457860  48.7818480  35.9292483  25.6722093  49.1045570  37.2173309
  79.6712112  81.4845562  63.4428692  80.0773144  82.3419666  63.3157635
  78.8451529  81.5371513  62.9621506  75.6408167  67.3119164  42.3113966
  74.8162794  67.7727842  42.4662256  76.1656237  67.9259396  41.7977953
  87.7765656  14.0786028  32.6121616  87.7841187  14.4035494  33.5124850
  87.0262718  13.4851944  32.5779891  40.8938599  39.0939641   8.9308268
  41.3347816  38.8568234   9.7466606  41.5430832  39.6049404   8.4474635
  54.7247219  13.4966230  65.5712795  53.9815140  13.0506682  65.9774828
  55.1097631  12.8401923  64.9907017  74.6204281  19.0576100  25.8752489
  75.0147915  19.5694995  25.1690769  75.2933741  19.0295815  26.5553904
  77.0157337  55.3229380  53.9570093  77.5902033  55.6485033  53.2640266
  76.4495134  54.6870279  53.5196972  28.3964753   7.0489103  36.1592603
  28.7730885   6.2816131  36.5901303  27.4504662   6.9124961  36.2111282
  17.8674412  20.7978797  40.4944992  17.7583337  20.2444100  41.2678003
  17.6800799  20.2178597  39.7564578  45.4113340  25.6618690   7.5595534
  44.8436975  25.1392460   8.1260180  45.0196886  26.5352368   7.5681442
  79.2009258  32.2658443  51.3492537  79.7847128  32.6712513  51.9904041
  79.2106152  31.3348603  51.5715265  18.7542701  28.2276082  30.2865243
  18.0175829  28.6179066  29.8162150  18.3624423  27.8489065  31.0734701
  29.7990680  84.7262192   1.7830941  30.0843263  84.3694782   0.9419073
  29.2183018  85.4509449   1.5513399  20.4595804  47.5703526  57.7312803
  20.2730441  47.6290655  56.7942715  20.0917792  46.7273283  57.9963493
  61.9137764  10.8835232   0.7205682  61.4613199  10.1451695   0.3127069
  62.4694681  10.4838836   1.3896930  73.9205933  58.4979534  47.7620554
  73.5729170  57.7670813  47.2510004  73.2816076  59.2002821  47.6409531
   2.4099715  58.9067411  24.6103811   3.2156470  58.7950897  24.1057491
   2.6445466  59.5250559  25.3024054  14.4299650   4.4669482  71.5507841
  13.7140000   4.2424780  72.1451235  15.1976049   4.0365255  71.9272089
  19.9883044  40.0993872  36.0826898  19.2843652  40.0469351  35.4362011
  20.4373097  40.9205198  35.8817840  72.1251583  78.5493612  66.4330006
  71.1872101  78.7205553  66.3482714  72.3995399  78.2796621  65.5565262
  26.1204600  22.6962471  65.4715967  26.6315746  21.9033718  65.3093052
  25.3350782  22.5889397  64.9350405  24.5473528   0.7296064  69.3848991
  25.1523852   1.3158230  68.9304590  23.6901140   1.1425638  69.2807865
  60.6758881  29.2138052   9.4678974  59.7851562  29.5390177   9.5985645
  60.6389952  28.2975388   9.7423548  61.2108231   8.9161736   3.9077887
  60.5437708   8.3992362   3.4560707  61.0157204   8.7989843   4.8375377
  75.3415060  22.8432846  18.7206185  74.4709444  22.5788736  18.4232271
  75.9132862  22.1213746  18.4595788  74.4072008  53.7863684  70.5525827
  74.9206591  53.9302444  71.3475037  74.6141529  52.8885841  70.2929974
   6.9414169  50.8186007  71.9130135   7.5290811  50.2024889  72.3503780
   7.0051646  50.5927563  70.9850264  73.3214378  67.5842619  46.4022255
  74.2276669  67.8488684  46.5602016  73.3529663  66.6280651  46.3717318
  40.6362915  17.3987806  27.9814863  41.2657547  17.3681891  28.7019515
  40.5853033  16.4953029  27.6694584  80.4728031   2.9089716  31.3610721
  81.3008404   2.4388923  31.4591050  80.0555611   2.8408146  32.2198486
  22.2124839  13.5307133  62.2441864  22.1631598  12.5773787  62.1738100
  21.4858961  13.8483644  61.7080927  66.5303230  44.6453333  23.6270952
  67.4318600  44.7484779  23.9317679  66.4205503  43.7005806  23.5192776
  88.8663864  15.9483480  50.6805038  88.1077862  16.0237563  50.1016521
  89.1346741  15.0325680  50.6056643  49.2004728  25.1233387  56.4210367
  48.4884357  25.6172800  56.8275499  49.7011232  25.7796860  55.9364843
   2.9233161  62.9871607  59.6262884   2.4257208  62.4739599  60.2628899
   2.6265755  63.8873386  59.7598982  73.5428524  30.8945966  58.1176615
  73.7579966  29.9869418  57.9029417  73.5141516  31.3406205  57.2712135
  25.3566194  20.0595498   8.8234687  26.1372089  19.7474456   9.2811823
  24.8429990  20.5012679   9.4997156   4.9448112  57.8682613  23.8169742
   5.0779915  57.5796986  22.9140759   4.7225001  57.0685387  24.2936850
  28.9733744  78.7887430  36.9076157  28.1168079  78.4289551  36.6772270
  29.5929694  78.0944538  36.6833520  27.9143310   8.6231267  21.2052512
  28.3616114   9.2680508  20.6573057  27.4159288   9.1465276  21.8328476
  82.7031803  74.8487711  24.6712661  82.4790096  75.6029224  25.2164602
  83.5200310  74.5176888  25.0445914  61.7625904  24.5984530  28.1708813
  61.9748783  24.9425721  27.3032713  62.1558666  25.2239347  28.7794352
  46.3883162   4.6843970   2.3618823  45.8716631   4.9526432   1.6020490
  45.8271885   4.0629652   2.8257647  69.5566702  60.1240969  43.6656237
  69.4662905  61.0025740  44.0348673  68.9608431  59.5837307  44.1844893
   5.7314688  38.5801458  61.5518284   5.2051723  38.9056921  60.8215809
   6.2912923  37.9082346  61.1627674  23.6766839  50.5154562  54.9450684
  22.9323149  50.4193306  55.5391264  23.7383270  49.6704531  54.4996500
  55.9951162  16.3448274   6.5313035  56.1113358  15.5421984   7.0397437
  56.8627024  16.5275776   6.1705714  63.3360958  44.2752409  48.8488579
  62.9338551  45.1244020  49.0315056  62.8224325  43.6515522  49.3620777
  53.8753414  19.9221694  49.7300482  54.5552492  19.6978068  50.3653574
  54.3188715  19.8881376  48.8824940  77.0589447  51.1906195  68.5295057
  77.2104216  52.1271896  68.4025240  76.6737986  51.1266184  69.4034624
   2.2366482  40.3358412  45.7260704   2.2405535  40.5796528  46.6516924
   2.2933896  39.3803310  45.7298374  16.0025144  75.9654713  17.1710670
  15.3059018  75.3852797  17.4782169  15.5572653  76.7884779  16.9694591
  71.0227871  27.5039792  14.3912816  71.9741821  27.4482679  14.4805920
  70.6953478  26.7125726  14.8187017  16.9342220  78.4389687  58.7966442
  17.7282965  77.9960251  58.4975100  17.0993733  79.3665886  58.6278868
  78.4723425  27.1979427  64.3444729  79.0630484  26.4550805  64.2201662
  77.6400614  26.9071364  63.9716768  53.2270908  67.0541000  69.5994949
  53.1448460  66.2683058  70.1398563  53.5274601  66.7304182  68.7502384
   5.6421536  20.1910853  23.1354475   6.2665397  20.4910135  22.4748302
   4.7893205  20.2552986  22.7055812  83.5180187  46.5506363  48.3900833
  83.5652828  46.4422607  47.4402142  84.2855072  47.0789433  48.6093616
  78.3081865  29.8155332  44.5359945  78.2855034  30.7668257  44.6397066
  78.8854456  29.5119190  45.2365828  40.9072018  74.9777985  26.9006705
  41.3277578  75.7371521  26.4972568  40.8956909  75.1793385  27.8363419
  65.8233213  50.3887701   6.3274658  66.3936043  49.6396303   6.5000713
  65.0271797  50.2034998   6.8255287   5.2403635  37.2928119  27.1694064
   6.0383952  37.8068209  27.0462394   5.4814738  36.4072895  26.8974710
  73.8795328  45.7148170  56.9093227  73.6705732  45.1732349  57.6704121
  73.1273270  46.2996435  56.8177319  32.7741408   5.1212680   6.8277234
  33.1536746   4.7716266   7.6339108  31.8693757   4.8088637   6.8337983
  40.0786734  18.6668098   2.7873689  40.6931257  18.3570278   3.4527382
  39.5722723  17.8903174   2.5489357  66.0800695  70.8311605  33.9724422
  66.1880922  71.7283487  33.6568260  66.0840225  70.2959776  33.1788468
  74.5671368  65.8588076  39.3695021  73.9717913  65.1349545  39.5640016
  74.2907667  66.5610504  39.9583197  65.9422445   5.2380562  44.5065546
  66.8727541   5.1213479  44.6982908  65.9200859   5.5270028  43.5942745
  38.7755346  64.6571398  11.0069513  38.4966445  63.9973164  10.3720605
  39.7281551  64.5697975  11.0403669  82.1267128  64.6755075  65.9117842
  82.5561333  65.5273724  65.8332872  81.7128754  64.6945000  66.7746925
  76.0152340  57.0839167   4.0839928  75.7446575  56.7948675   4.9554685
  76.9687366  56.9999981   4.0891322   0.9418546  79.9969196  25.5828500
   1.3512090  79.2087221  25.2259064   1.2853369  80.7099724  25.0445127
  18.0248213   2.0192493  42.0301008  18.5698843   2.2227024  41.2700081
  18.2421350   2.6978868  42.6692057  89.1507149  19.1482663  48.2537270
  89.3727875  19.3427408  49.1642761  88.8541031  19.9849212  47.8955936
  75.1706886  46.7937946  52.4899626  74.6899939  45.9692669  52.5628567
  75.7047987  46.8306112  53.2834387  18.8415802  73.1415129  15.3376949
  18.5853672  73.3659410  16.2322450  18.7347722  72.1915340  15.2891529
  44.6290970  73.0349779  64.2412329  45.2536726  72.6170588  63.6483669
  44.0015745  72.3441410  64.4538260  45.8946371  10.3077841  69.4114542
  44.9701166  10.4559934  69.6102762  46.2005472  11.1431372  69.0581369
  89.5099258  22.4073386  42.4097157  90.0217342  23.1782007  42.6547718
  88.7754822  22.7577829  41.9057083   4.1257989  75.3646564  71.1422873
   3.3221319  75.8549118  71.3154936   4.8279718  75.9425449  71.4410019
  90.5139542  60.8025360  39.0548539  89.9085808  60.5985832  39.7677016
  90.6852245  59.9584627  38.6371875  58.9790678  16.0850227   3.6116472
  59.2149210  16.9244123   4.0066522  58.0303669  16.1337912   3.4940770
  20.3959084   7.1521229   4.3454283  20.1922011   7.1484679   3.4101623
  20.5434728   8.0744106   4.5548120  75.6158113  32.1056223  59.9954462
  75.4760408  33.0115438  59.7197628  75.1219559  31.5838695  59.3629026
  12.3171377  63.7309504  57.8541613  12.7795327  64.5266438  57.5909185
  12.9913259  63.1847620  58.2583618  86.3563442  74.3247461  61.2410831
  85.5935860  74.6345520  60.7527828  86.0996151  73.4608269  61.5635109
   5.3742808   5.7004499  71.2477922   6.0122520   5.3833348  71.8870592
   5.3262645   6.6434526  71.4048672  53.6995697  12.8388393   2.7920103
  53.3997154  13.5997486   2.2946821  54.3013287  13.2000816   3.4428751
  87.3074055  64.1143179  45.9402895  86.4996719  64.6047926  46.0927153
  87.7954578  64.1960096  46.7596531  35.0673676  11.7476165  28.7099218
  34.4941878  12.3750687  29.1503787  34.6792316  11.6369498  27.8419733
   6.2702340  56.1030912  71.6491508   5.7857758  56.6815901  71.0601902
   6.3304842  56.5924978  72.4695683   0.6718357  51.9469309  58.3876181
   1.5588477  52.1393490  58.6916208   0.7399669  51.0827637  57.9816580
  88.8815117  62.3927641  72.2945166  89.1008663  61.7276764  72.9470253
  89.6000290  62.3550797  71.6632128   4.5832515  83.9623260  58.6923790
   5.1461852  83.9308453  57.9188490   4.8281088  84.7755718  59.1338587
   1.9494876  39.1148853  60.7513475   1.1510528  39.4073915  60.3118324
   2.6604262  39.4731760  60.2199125  75.3233480  58.4900808  43.9658356
  75.7890129  58.8083553  43.1924772  75.7112455  58.9739370  44.6949816
  81.8236637  54.6932936  64.3635511  81.5999794  54.0978098  63.6482906
  82.2344875  54.1330576  65.0220251  44.6737957  39.8571563  18.3750546
  45.3245926  40.3755283  18.8483298  44.6850204  40.2122879  17.4862409
  33.4002090  16.4576936  63.0736732  32.5724745  16.4614820  62.5929737
  33.8768578  17.2159123  62.7358198  60.7745790  58.8955975  23.8634300
  61.5235806  58.6823654  23.3068681  60.2136374  59.4406557  23.3116269
  50.2706957   7.1682429  49.1405916  51.2255287   7.1634066  49.0735054
  50.0008535   7.9513675  48.6608696  71.6767550  48.8270521  17.7903152
  71.8153381  49.3690300  17.0136011  71.5188217  49.4548750  18.4953880
  65.2533674  85.1146507  70.7052231  66.1665010  85.2754498  70.9430456
  65.2419376  84.2081451  70.3980541  56.4691019  77.0600653  27.6190376
  57.3074532  77.3904037  27.2961259  56.0080671  76.7675543  26.8328309
  91.8768120  77.1313572  27.3184443  91.7423534  76.9955587  28.2563734
  91.1585045  77.7062178  27.0542622  64.8817825  50.3912544  18.7362134
  64.1730404  50.5447483  18.1114292  64.7288370  49.5029926  19.0584362
  89.8993397  75.8585739  63.1457901  89.2531013  76.4863729  62.8225660
  90.2367401  76.2544203  63.9493418  77.4690390  82.9607964  62.4520874
  77.5464535  83.5084438  63.2333183  76.6933441  83.2946587  62.0014572
  19.7942626  16.4058554  66.2936354  19.0657151  16.7006147  65.7472229
  20.4518962  17.0961797  66.2087584  74.8586559  84.4604397  54.5732880
  74.6979141  83.7994862  55.2467394  74.0850830  85.0235271  54.6008587
   0.5710012  66.9494581  38.3176851   1.0334414  67.7583456  38.5369563
   0.4028372  67.0169544  37.3777938  38.9626002  43.9824390  51.2582016
  38.2585478  43.3656311  51.0579824  39.3314052  43.6655235  52.0826864
  29.0603399  78.1384802  74.6250200  28.3694029  77.9532290  75.2610397
  28.7436914  78.9024878  74.1430950  54.9378777  57.8201771  45.6737995
  55.7764864  57.5625896  46.0567093  54.9935055  58.7724066  45.5938148
  45.7557820  53.1949816   0.1738749  45.0732361  53.6508862  -0.3185834
  46.3288794  53.8928954   0.4912148  10.4048729  31.5983701  71.6926146
  10.1991940  32.3090911  72.2999048   9.6029174  31.0772586  71.6533566
  49.0823078  72.2215128  24.8049164  50.0212193  72.2911310  24.9776411
  48.7594080  73.1202030  24.8706174  32.4710321  19.1452324  13.5765564
  33.0723953  18.8953304  12.8750277  32.9873562  19.0563059  14.3776381
  48.0425549   1.3901472  14.9575412  48.6549520   0.7424299  14.6087444
  47.8073549   1.9286263  14.2019260  79.7075891  22.9863429   5.7730991
  78.8415003  22.7675056   5.4292417  80.1557732  23.4102201   5.0411952
  51.5113974  11.9451034  19.2343736  51.2017393  12.2712672  18.3894110
  50.7128620  11.7164397  19.7100735   6.3894904  46.7303562  47.6474905
   5.6390285  46.1397791  47.7127457   6.3086069  47.3054075  48.4084129
   4.5497602  40.0454426  70.7566118   4.9191129  40.8689880  70.4378891
   3.8023403  40.3098536  71.2929726  68.4478569  70.2766943  46.0995817
  69.3595028  69.9866533  46.0678101  68.4439135  70.9840965  46.7444038
   4.5225990  51.0137892  10.9913230   3.5988966  50.8172798  10.8351541
   4.9967438  50.3680658  10.4674351  33.2061625  15.7541537  23.1012678
  32.3903728  16.1340427  22.7750754  33.6015916  16.4503026  23.6259055
  84.5750809  69.4462252  35.8334279  85.0526714  68.6427402  35.6271386
  83.7320805  69.1437626  36.1712003  59.1704178  46.5586519  43.7361336
  59.5249796  47.1959829  44.3560696  59.8509073  46.4693785  43.0689049
  71.5796089  60.0582170  70.5826330  71.1612177  60.8275986  70.1963329
  72.4620390  60.3530645  70.8076096  52.6532888  31.6103578   1.5332875
  52.7293921  32.3201537   2.1709624  52.2633171  30.8875251   2.0248866
  81.6902351  51.6654873  12.7648568  82.3650074  52.0402050  12.1987391
  81.1028576  51.2054443  12.1652043  85.8558273  62.8782988  18.9206409
  86.2610435  63.6291265  19.3545616  85.0200844  62.7627134  19.3727577
   1.3490590  47.0619202  52.9123211   1.2010918  47.9895067  53.0964899
   0.5774306  46.7903662  52.4152517  91.3716316  63.2019377  42.0376444
  90.4480553  62.9514122  42.0591164  91.3661003  64.1492176  42.1749830
  39.8079896  24.8216200  33.9709473  39.7555709  24.3172717  34.7828078
  40.2508974  25.6325340  34.2209172  61.6822481  39.1077852  10.3012061
  61.8086958  38.3888316   9.6820557  60.7466459  39.3040204  10.2525425
  11.2219071  44.0295982  15.1266003  11.3979745  44.9298668  15.4000103
  12.0603502  43.5795498  15.2300453  19.4428921  62.5775909  58.1938076
  19.5557010  61.6781330  58.5011721  20.3348255  62.9110718  58.0964375
  80.1395893  76.8585110  55.9119272  81.0239124  76.9170189  56.2735796
  79.6328926  76.4107609  56.5894270  63.9524746  81.2709808  45.9094477
  64.6323681  81.8504238  46.2532806  64.1744280  81.1637115  44.9845362
  28.1089687  73.8588142  27.1954226  28.3592033  73.0126429  26.8244672
  28.4378600  73.8330984  28.0939770   0.1537016  73.9954472  62.0140314
  -0.3823302  74.6373367  62.4797344   0.7495191  73.6525774  62.6801205
  30.1581740   7.3401904  33.1597686  29.2673969   7.1980053  32.8395677
  30.1777267   8.2635272  33.4113598  25.9783816  81.4276886  41.2797785
  25.8213997  82.0118332  40.5379105  26.7759180  81.7662621  41.6866398
  80.2689552  57.8733063  67.4105024  80.7797241  58.6710882  67.2730875
  80.5540943  57.5506306  68.2653761  65.0907946   8.7009293  50.0828028
  65.8403206   8.1448853  50.2955389  64.3336344   8.1195736  50.1532698
  68.5988235   9.6148139  35.4483891  69.3564034   9.0595031  35.2641630
  68.6734438  10.3365731  34.8241091  56.0058880  24.6318436  34.6286464
  56.8392515  24.8887730  35.0232649  55.5311918  24.1940427  35.3352046
  72.7194881  63.0232143  64.1211462  72.9692698  62.8775454  65.0336313
  72.3577499  62.1844578  63.8350201  55.9121609  27.1067977  52.5548887
  56.5612698  26.6214252  53.0641079  55.2764940  26.4445186  52.2836924
  52.1378613  22.5047302  36.1608624  52.0685863  23.2793832  36.7188454
  51.4016819  21.9528222  36.4248085  50.8188057   0.0704586  56.4499998
  50.0029993  -0.4302250  56.4518309  50.8309984   0.5053731  55.5973959
  56.5303612  53.5950470  40.6174469  56.7965603  52.9368448  41.2594318
  56.5826225  54.4256735  41.0902691  44.0187073   1.8035202  27.1122026
  44.2613649   1.9690676  28.0232143  43.4278297   1.0516538  27.1545625
  31.1309004  57.5922251  57.0326805  30.8126450  57.1123171  57.7972937
  30.4073763  57.5532150  56.4072037  58.2008553   9.6130973  42.5890827
  58.8438082   9.8459268  43.2588816  57.9853582   8.6985010  42.7715826
  85.8504391  71.8240833  23.4008789  86.7200375  71.6620684  23.7666297
  85.6499672  71.0331869  22.9003572  10.5332243  84.9947262  73.8790607
  11.1673689  84.5257568  74.4214153  10.3845024  85.8187771  74.3427944
  69.0879107   6.1167878  32.9235315  69.0318298   6.1240405  31.9680047
  69.0732145   5.1886839  33.1572819  45.4545975  80.4373169  53.8881063
  44.5040989  80.3988743  53.7817574  45.6282759  79.9239635  54.6771193
  44.4376612  58.7610865  60.6864500  44.4658756  59.6963453  60.8882570
  45.3458643  58.4705353  60.7699776  49.1663027  12.3240066  20.9833860
  49.2889214  12.9815114  21.6681361  48.3903074  11.8349874  21.2570977
  11.3768804  49.9995136  45.8247042  11.6677558  49.1542482  46.1669731
  10.4287398  49.9976587  45.9560728  52.6814079  55.4058361  13.8940251
  52.6189375  55.7810116  13.0156326  52.9193020  54.4903851  13.7471056
  55.3995562  38.7688804  39.7142982  55.6063318  37.8382325  39.6284461
  56.1027479  39.1211343  40.2598858  65.9019327  47.2169304   3.7447396
  65.0114059  47.2945356   4.0870368  65.7850075  46.9894505   2.8223449
  86.2842178   5.6278640  66.5827084  87.2007275   5.4979485  66.8263578
  86.2114334   5.2419436  65.7097816  62.3977184  28.5602951   7.5152963
  61.8437195  28.6626482   8.2891434  62.9190302  29.3625522   7.4861348
  40.5972815   5.6691539  23.7258196  40.5633783   6.0645616  24.5968723
  41.2557554   6.1808866  23.2559514  65.3913546   3.5008758  59.8719931
  65.6967211   3.4351054  60.7767868  65.8496428   2.7970850  59.4127750
  13.2781470  45.3241396   2.2083047  12.8608537  46.0764933   2.6279065
  12.8604674  45.2670336   1.3489363   6.4420468   4.5725626  16.9593167
   6.8594730   4.8451543  17.7764344   5.5100620   4.7403803  17.0988667
  64.5250416  65.0344324  16.5920389  65.4802036  64.9746037  16.5740955
  64.2789745  64.6815300  17.4471080  20.2618313  47.8402042   6.2910420
  20.5861855  48.0453587   7.1679324  20.4246497  46.9025183   6.1887473
  66.2184572   0.8475254  50.0452518  65.6040335   1.4279158  50.4945421
  66.1429644   1.0875234  49.1217089  67.9953909  32.7889991  72.4787521
  68.0377483  33.1484127  73.3649015  68.8846588  32.4820876  72.3020077
  40.7552719   6.3148004  41.9588566  40.6894732   5.9388554  42.8366756
  41.1598158   7.1715724  42.0949411   3.3762601  44.6557426   0.6031420
   3.4326160  45.1332235  -0.2245453   4.2616516  44.6974707   0.9644901
  86.1427975  64.0926981  12.3124015  86.0218906  64.0905142  13.2619321
  85.7051563  64.8911238  12.0170653  41.5154982  65.9970617  48.8005924
  40.6991005  65.6744719  48.4189367  41.6860056  66.8194580  48.3414412
  70.4578209  29.5367932  48.9243269  70.4217720  30.4932809  48.9165020
  71.0619354  29.3140769  48.2160330  46.0703850  82.3202133  31.0198975
  46.1714029  81.8545341  30.1897335  46.4715385  83.1754112  30.8651567
   0.9878606   8.6284244  44.2569733   0.6675918   7.7991796  44.6119547
   1.1035959   9.1887069  45.0243855  61.2495470  52.9396343   7.5058186
  60.8125639  52.2219753   7.9643458  61.9381475  53.2238436   8.1068885
  37.1766710   9.6387535  74.3681335  36.2433457   9.8004824  74.2303705
  37.5867248  10.4971325  74.2619514  27.7588964  43.5019445  57.6775503
  26.8967199  43.6032820  58.0808067  27.6338124  42.8260040  57.0114517
  17.2838056  77.3137331  49.6492910  17.6671505  78.0847120  50.0674677
  16.3387930  77.4535751  49.7095346  10.7924855  28.8040209  52.9273748
  10.3213167  28.4550381  52.1707773  11.0466278  28.0296206  53.4293175
   3.7828842  83.8197517  66.8222857   3.0950683  84.4831848  66.7674541
   4.2348209  84.0106583  67.6441956  16.5135598  78.4685469  68.5828733
  17.0552647  78.3271360  69.3592691  17.1419108  78.5788870  67.8692675
  39.0860939  74.0691185  66.7609978  39.4537377  74.9355507  66.5867233
  38.8805747  73.7174940  65.8947659  42.1838951  23.9813852  35.9314156
  41.2913275  23.7266135  36.1651802  42.2479630  23.7969780  34.9943352
  32.5458241  75.3086042  61.1142254  33.4974289  75.3115845  61.0109091
  32.2164607  75.7123613  60.3112793  12.5087464  81.8782330  41.8873262
  12.0341945  82.4126816  41.2506151  13.0389202  81.2854290  41.3546658
  47.2204399  57.7238131  40.6934357  48.0613756  57.7634907  40.2379274
  47.3766470  57.1379423  41.4340973  47.1475935  72.0239735  34.4194174
  47.6213217  72.8491306  34.5239544  47.0878744  71.6681004  35.3059959
  72.1555138  31.8276024  45.4709101  71.9899321  32.3681283  46.2433386
  72.2480249  32.4556065  44.7544718  53.1608248   3.5061935  60.6859064
  52.5280333   4.1267315  61.0474873  52.6638412   3.0080596  60.0369835
  69.6076918   4.5730719  24.1047311  70.2413225   4.5840853  24.8221016
  68.9038420   4.0036801  24.4155741  68.2243776  33.0354166   1.5800980
  68.6789751  32.2348905   1.8422605  68.5077906  33.6913347   2.2170267
  22.1419740  67.8981781  36.6610122  21.4919710  68.4864378  37.0453000
  22.2989464  68.2534170  35.7861423  72.8221178  85.6272030  66.2046766
  72.6163864  84.7488213  65.8847427  72.0716572  85.8657742  66.7488432
  34.8934269  75.9045649  48.8991070  35.3870630  75.8868122  49.7190094
  33.9802623  75.8017445  49.1670465  44.3571186  84.0331268  33.6911464
  45.0174284  83.3596325  33.8543415  44.1922140  84.4201946  34.5509267
  54.5481491  66.9541121  10.1222503  55.2410269  66.7154408  10.7380342
  53.9693022  67.5282478  10.6237864  62.8683662  23.3584666   8.4574944
  62.7727747  23.7820911   9.3105102  62.0677376  22.8440690   8.3544654
  45.1075935  74.2786646  27.7070451  44.3952370  74.9166250  27.7492547
  45.8084488  74.7328281  27.2393227  49.4079494  33.6211944  45.4298019
  49.6817541  33.1987262  46.2439156  48.5571957  33.2299757  45.2313042
  13.6956692  78.2365561  73.5190964  13.8770878  77.8460741  72.6642036
  13.0801749  77.6315165  73.9330149  11.8996739  20.3842831  36.2108374
  11.0314286  20.0490808  36.4344883  12.4940753  19.6605265  36.4085603
  19.5324004  64.4255543  11.1839795  18.9627409  64.6041393  10.4357648
  19.9446845  63.5870171  10.9763467  27.3558974  12.0241702  29.6898794
  28.2358623  12.1878111  30.0291681  26.7970443  12.0171690  30.4669666
  61.1984348   8.5333085  68.1097364  61.1565018   8.2095689  69.0095520
  61.1291456   9.4842833  68.1938648  39.1277337  25.6832337  68.2843161
  38.7458563  26.5323877  68.5064316  38.3791685  25.1425362  68.0322647
  58.7570953  22.1235442  72.2584772  58.5431147  21.3285112  71.7702484
  58.9106274  22.7849245  71.5837669  84.2429733  85.5793095  19.8162949
  83.7735939  84.7608089  19.6551156  84.1449833  86.0756207  19.0037048
  84.9285793  65.6025267  44.4155931  84.0528584  65.3084564  44.1648293
  85.5092430  65.2076626  43.7651014  43.7974691  57.6984406  15.3547001
  44.0276146  57.9935455  16.2357092  44.5090151  58.0198288  14.8009443
   2.7586129  68.2846546   1.2120849   2.0388213  67.7498865   1.5469812
   2.5059396  69.1840458   1.4206059  40.9509277  59.3327093  51.5156317
  41.1093378  58.3933640  51.4219952  41.0631371  59.5024633  52.4509525
  44.2965174  43.6242151  71.6025352  45.2311277  43.4626055  71.7314434
  44.2147779  44.5778704  71.6122913  86.4439869  25.6535292  51.8113899
  85.5542660  25.5938411  52.1593475  86.3249397  25.8400846  50.8801222
  17.3578465  61.0402346  14.5996368  17.9357290  61.0628366  13.8368964
  16.5274167  60.7055283  14.2611265  91.1468506  31.7808080  33.0937934
  90.8221531  30.8935356  33.2472491  91.1471176  31.8743396  32.1411753
   6.8036789  35.9265590  43.7493086   6.2345934  35.9462047  44.5187140
   6.5043956  36.6594768  43.2112598  53.3092308  39.1660333  43.9085293
  54.0919685  38.6240005  44.0072823  53.5465193  40.0040150  44.3056631
  47.4597979   0.5991100  65.6260252  47.5627327  -0.2914935  65.2906704
  46.7241573   0.9582904  65.1299858  75.0545406  28.4944582  57.6320505
  75.9170818  28.6273813  57.2388792  75.1128817  27.6368690  58.0532074
  17.9503715   2.2679187  48.6004496  17.3556423   2.0283598  47.8897190
  17.9115367   3.2237649  48.6333418   2.4705961  24.3056893  21.3200665
   2.3989742  24.2891550  22.2744393   2.1085455  23.4656549  21.0381222
  25.0059748  68.0878782  40.9821939  25.3695035  67.2264528  41.1871815
  24.7906971  68.0415058  40.0506687  61.7356348  22.6801252  64.6788979
  61.9904566  23.4356594  64.1493082  61.1943960  22.1494818  64.0943384
  45.0286627  24.5751977  53.7769127  45.6161928  24.5369482  53.0222130
  44.1538048  24.4620490  53.4053564  61.3735294  56.2151718  24.9137592
  61.1330080  57.1379995  24.8314786  61.7464495  56.1422634  25.7923055
  59.3156147  27.6913285  63.9422131  58.8014078  28.3588338  63.4880495
  60.1697636  27.7122402  63.5106802  74.4917107  21.0009074  33.8192987
  75.2424240  20.9909892  34.4130659  74.8659992  20.8206344  32.9569507
  64.4710302  84.8978043  47.8537750  63.5975647  84.5875931  48.0926371
  64.9270344  84.1149712  47.5448132  77.0917702  11.9380844  65.8859730
  78.0390835  11.8040824  65.9154129  76.7225122  11.0990536  66.1614847
  67.7603054  79.4666195  60.9372997  68.4778786  79.0039015  60.5046129
  67.1172428  79.6134567  60.2436543  84.2916107  31.9172955  28.0691910
  85.0623226  31.5057826  28.4602046  84.1387081  32.6962590  28.6040449
  55.7042551  74.2189360  28.1770086  56.0005665  75.0220299  28.6053419
  56.1871195  73.5200262  28.6181402  52.7751589  27.6375890  42.2350454
  52.9656124  27.3555017  41.3404036  53.0740261  28.5463214  42.2684002
  85.5083084  52.5523949  57.4554348  86.0575294  51.7689228  57.4276161
  84.6122456  52.2183275  57.4142981  72.6933622  22.6982307  63.7296200
  73.1066561  23.2278633  63.0477762  72.1240568  23.3101940  64.1961241
  81.5314007  12.7747607  15.7449925  81.8582344  13.4706354  16.3152289
  81.9752121  12.9213691  14.9096656  64.3226194  37.2587442  49.2800236
  63.4238291  36.9525576  49.4010973  64.2288399  38.1355548  48.9076853
  62.2461033  83.7055874   3.6496624  61.4375448  83.9280415   4.1111532
  62.1941900  82.7588654   3.5182846  35.8417368  25.9462237  68.8452196
  36.3054013  25.2286577  68.4135437  35.0217891  26.0288286  68.3582973
  52.2176695  79.8039007  52.0462084  52.0157242  80.7165813  51.8401337
  51.8498135  79.6684790  52.9194641  59.2422533  85.6791115  56.4503574
  60.1993990  85.6806755  56.4604473  58.9933729  86.1021137  57.2721624
   1.8746625  56.8827295  40.9462929   2.0763801  57.7016068  40.4935408
   2.3749697  56.9299459  41.7609692  83.2963562  47.2698593  28.5184312
  84.0214539  47.8616047  28.7191677  83.5872173  46.7888355  27.7436733
  43.4435034  -0.0047618  38.0403185  43.3668184   0.3970000  37.1749043
  43.6045027   0.7301291  38.6321354  60.1164436  12.0502007  40.8764458
  61.0671091  12.0048392  40.9784794  59.9435949  12.9629779  40.6458092
  88.1958961  27.5358081  42.6470375  87.9715443  26.6262341  42.8434324
  87.3727226  27.9280424  42.3558903  45.1962805  34.7845125  70.6167650
  45.1836348  33.9653015  71.1117029  44.5538378  35.3405881  71.0575342
  42.3967695  56.9850874  50.7727623  41.9425631  56.3752031  50.1914120
  42.4798489  56.5106392  51.5999460  39.7947264  11.2034023  41.7832613
  38.8473654  11.2232745  41.9186974  40.1635075  11.4316332  42.6365757
  49.2075396  80.0132084  49.3795776  48.8071156  79.2850256  49.8545933
  48.8653374  80.7968426  49.8097610  50.5114031  20.3141403  61.5770817
  50.5818796  20.4453778  60.6315470  49.5867586  20.4669189  61.7718363
  65.1472616  21.5636659  57.4704695  64.5873117  21.2501860  58.1806946
  65.6107378  22.3132873  57.8439522  63.1380224  82.0109749  65.2178001
  63.6318636  81.1992550  65.1017904  62.5026417  82.0091724  64.5018959
  30.3293610  80.9891891  71.6767263  31.1267757  81.2062645  72.1596766
  29.6935296  80.7604313  72.3546791  70.6114149   4.4061118  26.8752074
  71.1912394   4.9209043  27.4364758  70.9710693   3.5196644  26.9082355
  57.8973436  26.5684199  58.9142323  58.4993696  27.2377324  58.5889244
  58.4288788  26.0349870  59.5051241  59.1803932  26.2234020  13.6934400
  58.9292669  25.7922816  12.8765547  59.3179846  25.5050516  14.3109131
  49.5978832  39.7911143   7.6554656  50.5206966  40.0299311   7.7427387
  49.6081161  38.8453293   7.5084358   0.5208852  26.7381525  59.0237856
  -0.2979205  26.8165970  58.5342646   0.3850248  27.2739911  59.8052311
  71.7938423  71.5547991  25.5672121  71.4652014  72.0150375  24.7949338
  71.7322397  70.6275654  25.3377080  79.8605728  40.3794575  34.4616699
  80.5896091  40.5375195  35.0614643  79.9329138  41.0751200  33.8081789
  79.3370295  28.4723330  37.6028538  78.4731388  28.0785608  37.4809194
  79.4711161  29.0034461  36.8178868   1.0197646  21.7603064  65.2472353
   0.5561805  21.5523601  66.0584593   0.3594243  22.1780252  64.6943378
  27.7385116  61.8619013  14.2065692  28.2506156  62.5916004  13.8579726
  26.9386935  62.2683954  14.5401609  90.3730392  30.1130533  42.1712399
  90.3424644  30.9563732  41.7194557  89.4820786  29.9828815  42.4960136
  31.8374372  85.7236576  57.0361280  31.9545484  85.1010895  57.7537107
  32.3837852  86.4719200  57.2766495   7.7475387  80.1947594  25.1316810
   7.6393157  81.1277294  25.3163075   6.8817914  79.9056578  24.8433495
  75.2588654  12.8125465  61.2290525  75.9167337  13.4692407  61.4575100
  74.6413469  12.8276742  61.9602680  31.1870646  10.4210353  43.8092470
  30.8580017  11.1188591  43.2426882  31.7431498   9.8910660  43.2381678
  30.9364486  83.1477356  42.4592733  31.5423298  82.7534962  43.0867386
  30.6903291  82.4273968  41.8789577  79.3932915  21.5288234  63.8687134
  80.0842190  21.5391898  64.5310926  79.5760345  20.7492757  63.3441734
  63.6725712  22.3630786  43.5148907  63.7098980  22.2752690  44.4673252
  63.4675694  23.2863522  43.3673334  63.5744953  40.2463150  41.7735577
  64.3475103  40.7932472  41.9133759  63.7202740  39.8394418  40.9194851
  11.7050624  44.2380095  68.7996340  12.5224340  44.3441486  68.3129406
  11.0183108  44.3940639  68.1513643  43.5704899  76.8811989  35.4912853
  43.3783054  76.0020065  35.8173513  43.0033398  77.4563932  36.0048270
  25.3381968  10.2685809  35.8123565  25.6742311   9.7423577  35.0868201
  25.5088854  11.1734772  35.5510879  79.3956614   6.8626302  57.9341745
  80.2496624   6.5509784  57.6345301  79.5760107   7.2849810  58.7740135
  74.5369577   8.0489093   1.7506672  75.0234795   8.8660371   1.6419044
  74.1867304   7.8609627   0.8798912  88.8390350   6.1182499  13.8302004
  89.4746685   6.2483227  13.1264412  88.5303211   5.2200562  13.7111294
  64.6143770  28.2036853  54.5060730  65.4003143  28.7141442  54.3112183
  64.6168041  27.5022197  53.8547850  54.8744774  21.6077518  57.2871113
  55.0721407  21.3178229  58.1776714  55.6519794  21.3728189  56.7806196
  37.1101809  11.4808023  42.1261215  36.8174767  11.0772312  42.9432440
  36.5931988  12.2833908  42.0567560  60.2693796  26.3954878  30.1060390
  60.6759501  26.6985679  29.2942023  60.9333754  25.8391571  30.5132723
  57.5502825  20.6489754  61.6788769  56.8536568  20.0967360  62.0338106
  58.2439995  20.0347042  61.4387608  57.9594539   0.2708036  16.0172963
  58.6480568   0.9338076  16.0670722  57.1497153   0.7729132  15.9254146
  73.4444046  14.0599716  67.8577662  73.5578203  13.2692981  68.3852196
  72.8486872  13.7965727  67.1563578  44.5415211  85.5562305  62.0485783
  45.3564930  86.0561275  62.0021439  44.7555637  84.7993279  62.5940228
  58.5672188  19.5251751  74.3184853  58.5010910  18.9333236  75.0678635
  59.1880226  20.1977801  74.5985460  63.3228350  26.6781354  49.5881128
  64.2681265  26.6518950  49.4398975  62.9838514  25.9235454  49.1065359
  74.0841627  30.1130414  42.5376177  74.8878956  29.8582006  42.0845175
  73.9574766  31.0320926  42.3019743  59.2901993  25.3644824  52.7473068
  58.8786411  25.1209450  51.9181252  60.2298212  25.3250861  52.5689936
  69.5203447  33.3653498  54.2901134  68.7924147  33.0856276  54.8451853
  69.8536587  34.1567326  54.7130108  25.7538199  83.0704117  38.6979294
  26.5854287  83.5227108  38.8396549  25.9967065  82.1509075  38.5895276
  52.7183867  20.9766030  39.2616749  52.5985146  20.1014400  38.8929558
  51.8846893  21.4194584  39.1033602   6.9856030  76.8926668  51.9186735
   7.2455096  76.9532347  52.8379154   7.5336170  76.1944532  51.5603304
  78.3868265  19.2812645  49.1030598  78.8343620  18.4814811  49.3792629
  78.9724112  19.9887586  49.3728256  82.4473858  14.7261155  29.9834967
  81.9489574  15.4461873  30.3698874  83.0427647  14.4466639  30.6789565
  78.4061146  25.3130865  20.8519459  77.6964045  24.6748424  20.7799149
  78.8344193  25.1023912  21.6816425  29.3893790  80.1410103  19.7573948
  29.5472026  79.6911478  18.9273667  28.7729716  79.5756340  20.2228236
   1.9447123  29.9167466  32.8734326   1.7421231  30.4584980  33.6361217
   1.1068470  29.8162961  32.4216342  47.0560408  82.2909355  33.6362171
  46.7305326  82.4141407  32.7445340  47.7265501  82.9658413  33.7418103
   4.1367036  24.9133730  60.1553583   4.7043765  24.6532774  60.8808470
   3.2647443  24.6158457  60.4149675  76.4078856  55.7072687  64.0039539
  75.6254578  55.3082037  63.6234522  76.1203003  56.5750170  64.2877531
  64.1211462  15.7098961  14.5740306  64.2178154  16.2213111  15.3773618
  65.0088882  15.6475067  14.2215347  54.3311691  83.0353165  72.9347134
  53.4756660  83.3166981  73.2590055  54.6902609  83.8102913  72.5026274
  57.7747345   4.2678484  62.4326181  58.5112953   4.5707116  62.9636383
  57.9679966   4.5866412  61.5509987  35.7312107   9.9500024  52.2777033
  35.2490687   9.2442864  51.8467331  35.7778621  10.6443477  51.6204834
  82.5740528  63.5895824  24.5935345  83.4132671  64.0489626  24.6239543
  82.5867844  63.1225777  23.7580872  48.6838055   7.8797513  74.0173197
  49.0036106   8.3958334  73.2773066  47.8285742   8.2581234  74.2214060
   9.0586311  20.1234317  55.6933880   9.9768740  20.3354311  55.5257034
   8.7490296  20.8306241  56.2593031  59.7905874  21.5184736  43.6702871
  59.5386457  22.4405980  43.6208153  59.0076876  21.0412097  43.3954811
  11.7475557  43.3309460  57.5778389  11.6707575  43.9553022  58.2993031
  12.6859581  43.1534624  57.5135517  83.0480194  33.5197711  37.8863788
  83.8410378  33.0323291  37.6633072  82.5306511  33.5169482  37.0810533
  89.2769051  11.2202644  39.0591908  90.1250553  10.9261382  39.3914032
  88.7238598  11.2843978  39.8378181  48.9098835  24.0130877  37.3888278
  48.2463837  23.5068440  37.8575659  49.6312857  24.0976930  38.0122495
  76.7793608  27.4925447  54.6654987  76.9537210  27.7406430  55.5733967
  76.8027449  26.5356398  54.6699810  51.3661098  11.8387008  40.6352901
  50.9013605  12.6732051  40.6972456  52.0979691  11.9262171  41.2459946
  83.7907410  14.2082965  23.8113904  82.8530693  14.2653894  23.9950705
  84.1333771  15.0712371  24.0441322  66.9625139   9.3604642  47.9691744
  66.5067339   8.8183880  47.3252439  66.2737656   9.6540910  48.5655308
  47.2540426  12.2886920  23.7910724  46.7489672  12.7396595  24.4676495
  46.8263340  12.5327361  22.9702568  41.6196346  18.0604303  59.3912315
  40.7428455  17.7064669  59.5401573  41.6290569  18.2942820  58.4630823
   2.6689294  36.4173841  48.8587475   3.5830349  36.2659979  49.0990067
   2.3288204  36.9810009  49.5536518  64.8535395   8.4080309  43.0312490
  64.7253036   8.8752741  43.8567638  65.7719231   8.5614932  42.8093338
  63.2324028  80.2785015  55.3756714  63.4081078  81.1709785  55.6737471
  63.3933496  80.3049469  54.4324684  61.6103983  10.6647015  62.6643038
  62.1255875  10.4146135  61.8973207  61.7109442   9.9304897  63.2701540
  61.7443419  33.2267427  18.8434148  62.3834038  33.5865974  18.2283235
  61.4973688  33.9696455  19.3941712  78.6338282  75.8821011  33.0233073
  78.6557627  76.2000322  33.9258981  77.7504635  76.0887146  32.7179956
  79.9080849  23.3163238  15.3406501  79.5584011  23.3366728  16.2314582
  79.4421339  24.0169930  14.8843765  79.9281597  52.1628857   9.3375713
  79.9367857  53.0916119   9.1060001  80.8520699  51.9307375   9.4309729
  63.2939243   1.8151313  62.7317381  64.1456699   1.3934831  62.6178551
  62.7440071   1.4326888  62.0479536  61.8101597  23.7609959  46.1949348
  61.3222122  22.9583883  46.0106611  62.7281094  23.5146832  46.0812044
  64.4958115  63.8420057  32.9578733  64.9729443  64.6708632  32.9975486
  65.1584244  63.1753206  33.1387377  78.8005304  71.4474630  12.7192450
  78.6991453  71.6740227  11.7947865  79.1620779  72.2373772  13.1211782
  82.8445911  50.8561897  40.4522228  82.4225426  51.4202642  39.8042083
  83.3370304  51.4586401  41.0097027  67.8125525  33.9966321  56.3511944
  67.3328352  34.6652818  56.8400812  67.9253578  33.2789779  56.9744778
  76.5705061   2.7090919  53.9238262  76.9739866   2.5627595  54.7794104
  75.8111382   3.2617956  54.1085052  19.6449327  13.2346523  59.9058342
  19.6062601  13.9710104  60.5161715  18.7286210  13.0196190  59.7315788
  49.6941280   7.5453728  42.6748466  49.4733524   7.9435110  41.8328381
  50.6160498   7.7649927  42.8092384  88.5584545  56.3735628  41.5078545
  89.1595078  57.0701027  41.2436533  89.0259266  55.5636072  41.3037300
  41.7912483  80.3448105  38.9199090  41.8229961  81.2187576  39.3090510
  40.8642483  80.2008533  38.7296939  21.7337155  73.4454489  25.0459433
  21.2354088  72.6298523  25.0980806  22.1019125  73.4451056  24.1623926
  89.0577793  23.4357429  66.3615990  89.2161560  24.2898297  66.7636967
  88.9973068  22.8305507  67.1007299  58.3449316  81.8511009  58.7190437
  57.5880480  82.1262455  59.2363930  58.0703878  81.9718075  57.8100395
  55.0796223  46.8784332  17.2418213  55.9260845  46.9335127  17.6853287
  54.4620228  46.6401386  17.9332137  32.9721546  12.2944224  40.2773333
  33.3462501  12.9738760  40.8382511  33.6364317  11.6054583  40.2601433
  71.6422415  50.4060841  15.5733967  70.8092785  50.8754683  15.6190395
  71.6477156  50.0122023  14.7010100  86.0088444   6.0344470  32.0659995
  85.9343433   5.8352679  31.1327219  85.3176594   6.6760367  32.2299004
  22.3959851  59.8767281  29.0673161  23.2341933  60.1157665  29.4629216
  22.6231933  59.2358017  28.3936548  32.3228192  22.7808452  30.9192705
  31.3777804  22.6806831  30.8048248  32.4135900  23.3012986  31.7174697
   5.1258630  78.9298534  24.2036891   4.9919376  78.4624195  25.0281882
   4.2892760  78.8513327  23.7452245  56.3665199   5.2555937  46.6185188
  56.0364199   5.0650233  45.7404852  56.9915533   4.5529836  46.7971373
  80.7881546  45.5199862   9.3018234  80.5288792  46.0711336  10.0402296
  79.9615192  45.2589941   8.8958871   2.3289101   8.0793810  69.0658426
   2.3456372   8.0725747  70.0228691   1.4178392   8.2711595  68.8435745
   1.7043391  20.1406622  54.0389013   2.1758230  19.8436570  53.2606173
   1.3916305  19.3354535  54.4513130  31.3571739   8.9633155  25.3061938
  31.6017604   9.3845522  24.4821978  31.2077594   9.6896935  25.9114075
  32.0911217  25.9173155  48.1465864  32.0061421  26.3507342  47.2973776
  32.9333091  26.2195969  48.4865570  46.4512730  79.6969795  15.1463234
  46.3310623  79.9235487  16.0685205  46.7247486  78.7797594  15.1587164
  11.9591737   9.0756553  48.8298941  11.4712012   9.0500778  49.6529722
  11.3082385   9.3229753  48.1731224  64.1117954  20.4987741  50.3410864
  64.6109724  19.7358978  50.6327581  63.4026957  20.1331067  49.8122168
  73.5845852  14.4325030  43.9058352  72.6913023  14.1858339  44.1454744
  73.6704350  14.1627264  42.9914618  45.8851480  12.2756481  58.6155272
  45.9707022  12.4899387  57.6865530  45.8531094  13.1252182  59.0553379
   7.5320530  58.4328794   0.3376900   7.2296417  58.6358786  -0.5475049
   7.0322883  57.6562500   0.5893179  65.1884937  33.8346696  21.5648770
  65.2480221  33.9194942  20.6133032  64.2965412  33.5250926  21.7224073
  80.7140446  56.1014986  60.2649021  80.4892349  56.9405985  59.8628950
  80.4757023  55.4489470  59.6064234  80.7527161  31.1250091  13.4855950
  80.2772141  31.9517326  13.5671723  81.0542202  30.9334850  14.3736517
  22.6135492  32.3917389  13.9053941  21.6609430  32.4778318  13.8685322
  22.7632093  31.4651322  14.0931034  10.8583045  50.7194328   3.2862946
  11.2308300  50.1140642   2.6452136  11.2339175  50.4437971   4.1224587
  79.1778851  32.0095825  59.4656658  78.7850857  32.5833440  60.1235008
  80.0763226  31.8778872  59.7684860  68.3115958   0.1104338  51.5728664
  69.1833375  -0.1715296  51.2957478  67.8538392   0.3106958  50.7564259
  79.1569853  14.9913239  47.9883575  80.0348377  15.0393546  48.3669090
  78.6313915  14.5525026  48.6572456  14.5564711  71.5141201   6.4259118
  15.3424168  72.0061827   6.1884350  14.3930590  70.9459114   5.6731379
  74.1516781  68.4305859  55.9655142  73.5367060  68.0451298  56.5895844
  73.9262915  69.3607521  55.9505653  72.8522778  64.9012804  34.3753362
  72.4006224  65.1928997  33.5833764  72.9797602  65.7005167  34.8864150
  73.2057285  35.0690389  48.8630819  73.9795303  35.1812911  48.3109379
  73.5545826  34.9882436  49.7507763  53.7421751  13.6943221  48.0795860
  54.4342995  13.2864678  47.5591564  52.9645205  13.1658864  47.9000187
  55.5591726   9.0050882  52.7861309  55.2635813   8.5528839  53.5763025
  55.3306675   8.4115070  52.0708132  87.5845528  24.9208665  64.1169930
  87.6780128  24.0691066  63.6903763  88.1352329  24.8595071  64.8975229
  59.9674797  27.3507476  54.7544432  60.1255274  28.1045771  54.1861153
  59.9311066  26.6037989  54.1569710  57.5399637  74.9418783  32.8563643
  57.6540995  75.4219818  33.6765480  58.2665682  75.2328920  32.3053765
  63.3606625  42.4697876  18.3406186  62.8862000  41.6916656  18.0479586
  63.3226204  43.0682278  17.5945282  72.5537968  35.6191444  60.5388975
  73.0133438  36.3183928  61.0037661  71.6336966  35.7399964  60.7735014
  48.1640339  26.9487548  36.5773797  48.9427996  27.5033259  36.6243625
  48.4483194  26.1061382  36.9315124  87.0665932  18.5043526  68.3395529
  87.3325157  18.2599449  69.2259932  86.2468433  18.0313230  68.1964207
  74.3276882  25.4602456  50.6689787  75.1854992  25.8690453  50.5537653
  74.2270613  24.8947811  49.9032402  60.3027534  64.4131756  59.9075508
  61.0442305  63.8738298  60.1824236  59.5419407  64.0007782  60.3166056
  81.1315441  48.7867594  51.2058592  81.7065430  48.6343765  51.9557810
  81.7153168  48.7627459  50.4476595  29.9052095  10.4598618  19.5325828
  29.6318483   9.9194515  18.7913263  30.8429956  10.2893221  19.6203625
  90.4390907  80.1680088  32.5927329  89.6321392  79.7579575  32.9040647
  90.9906864  80.2334881  33.3722782  20.5528975  84.1256905  42.1494627
  19.8616791  84.7275925  41.8734932  20.0923729  83.3146286  42.3647118
  57.6483583  11.5617466  33.9776421  57.3582935  12.4736667  33.9999247
  58.3022881  11.5354133  33.2791305  27.2875261  69.0514135  43.1230783
  26.6928530  69.7012949  42.7485800  27.6868534  68.6265850  42.3639393
  74.1326714   7.6999354  47.1234322  74.9916410   7.5722069  47.5260305
  73.7742758   6.8164504  47.0383406  51.9807720   5.8833301  66.8103313
  52.5934029   5.9804875  66.0813046  51.1154318   5.9294796  66.4037752
  26.9980717  85.1309204  49.2944050  27.1215677  86.0255909  48.9773273
  27.5276470  84.5929813  48.7058401  25.3440857  23.7471533  73.2164097
  25.8268094  23.8525367  74.0362310  24.7019005  23.0622864  73.4029293
  29.3269706  29.7657061  52.2022915  29.0214467  28.8640594  52.3019028
  28.5976815  30.3015447  52.5141382  32.6498723  16.6829193  56.6297054
  32.4775314  15.8077884  56.2823153  33.3549380  16.5541899  57.2641659
  70.6232119  36.3695335  65.6101322  70.4951859  35.6791759  64.9595547
  70.8324385  35.9012198  66.4183044  46.5245771  26.1784363  46.5207911
  46.6203547  25.5374193  45.8164072  45.5785227  26.2795997  46.6255665
  74.2160320  64.3817329  57.9607630  73.8754559  63.5277271  57.6944637
  74.9114037  64.1778564  58.5861635  49.5073986  68.1975937  42.0277882
  50.1106548  67.8660679  41.3626528  49.2158794  67.4162006  42.4975443
  56.6048527  66.2922955  35.1085973  55.8482027  65.7086754  35.1642418
  57.1436977  66.0585880  35.8644128  61.7137861   3.4699070  65.7603788
  62.2782183   2.8418604  66.2111616  62.0978737   3.5537097  64.8876333
  56.4126635  13.5015810  41.6475630  56.4778709  12.9940462  40.8386230
  56.5683174  14.4061530  41.3759899  29.3787909  11.9024467  60.8969975
  29.5515060  11.6205716  61.7953014  29.9194098  12.6841080  60.7831144
  10.3981757  34.9312711  59.8157072   9.5832753  35.1270366  60.2781439
  10.8649898  34.3307233  60.3967905  65.1221609  85.7352924  43.5700512
  65.0818825  86.5411568  43.0550718  65.9750462  85.7702160  44.0031767
  74.3642712  48.5726166   6.0836124  74.1480923  49.4295835   6.4511788
  73.6490059  48.0031157   6.3669831  68.1193018  30.2250314  36.5251803
  68.3359718  30.2768946  35.5942678  67.8053331  29.3292332  36.6484714
  78.2352972  40.3235722  37.3511910  78.9972067  39.7656417  37.1948624
  78.4496450  40.8029652  38.1514859  29.6717906  20.3111243   0.9047653
  30.2975368  20.5229664   1.5974391  28.8141751  20.4110217   1.3179843
  57.8263092  20.1465106  40.3412437  58.3301592  20.6737375  39.7212434
  58.2367134  19.2823303  40.3096676  11.3743365  81.3920975  32.3684287
  11.8661451  82.0686626  31.9030142  11.4693201  80.6101131  31.8246317
   4.3636459  13.9124918  36.4920998   4.3738842  14.7361994  36.0046244
   4.1161621  14.1638482  37.3819327  60.9373236   2.8635293  60.7916737
  61.7398214   3.1120700  60.3329134  60.2443266   3.3453822  60.3402281
  60.9846449  14.3153811  44.4283915  61.2401533  14.8159218  43.6535311
  60.0650024  14.5417047  44.5672178   1.2637272  53.7710381  42.5014114
   1.2633142  54.7267294  42.4477196   2.1762478  53.5231876  42.3527193
  48.4761906  13.9920390  15.7836235  48.2206106  14.8650432  16.0815752
  47.6728630  13.6176527  15.4220474  83.1186008  58.2121515  50.9392929
  83.4455299  57.9021215  50.0947666  82.5153065  58.9212465  50.7169008
  53.0418062  11.5440154  23.5504746  52.9644251  10.6033623  23.7098956
  53.2171249  11.6142845  22.6120949  47.5236177  34.4186473  36.2474942
  47.6346540  34.9791479  35.4795480  48.0918455  34.8078275  36.9122434
   5.4522711  27.2154379  16.6989839   5.8170116  27.9946351  17.1185648
   5.2605045  26.6205859  17.4239719  31.8185186  55.4619884   1.7457226
  30.9667230  55.4535532   2.1823052  32.4300098  55.7594442   2.4193922
  53.5504103  23.2303572   5.5410486  52.8250885  22.7910900   5.0969887
  53.5198021  24.1304851   5.2169102  88.3701611  20.0130200  26.5707684
  88.9327621  20.0369644  27.3448062  88.8365936  19.4499898  25.9529734
  71.9495153  20.0904965  55.5744219  72.2917223  19.4471014  54.9538040
  71.1388826  20.4031420  55.1727247   6.3530451  18.0032277   9.5114499
   5.9038872  18.5208762  10.1796782   6.2758094  18.5246944   8.7124884
  80.9138012  53.1075478  62.0785856  80.2463436  53.7673903  61.8905878
  80.4177952  52.3377371  62.3571587   3.1581068  64.4730997  48.4800625
   3.0238935  63.6802053  47.9608965   3.1706747  64.1664553  49.3867302
  57.2782183  38.0380607  36.4970994  56.5940046  38.6182809  36.1632919
  57.9387760  38.6294413  36.8578720  82.8756142  18.7423491  35.9500122
  82.7191925  19.1022217  36.8230844  82.1887398  18.0856729  35.8350348
  86.1316490  25.0330448  60.7701063  85.6388760  25.8497524  60.6901503
  85.5622959  24.3704939  60.3788376  74.6905184  20.4342890  53.8345909
  75.5274916  20.8685255  53.6698151  74.2479801  20.9995461  54.4677401
  81.4514637  42.6005888  59.8472166  82.2889900  42.7624130  59.4129467
  81.6603661  42.6094007  60.7812977  14.4900382  73.8045549  18.2219052
  14.3459225  73.9381933  19.1587102  13.7338257  74.2148256  17.8023183
  71.8418121   8.6400414  42.7509356  72.6284361   9.1007161  43.0428791
  71.2417603   9.3363094  42.4837637  79.7551870  49.5097351  38.7226510
  79.1521788  49.6941996  38.0025244  80.0084496  50.3728199  39.0500259
  46.3821602  76.1243105  42.7132797  46.0823870  77.0316315  42.6572609
  46.4468002  75.8367586  41.8025875  60.6535959  43.3376360  36.3589621
  60.4474401  42.8369188  37.1482754  61.6101646  43.3611155  36.3332415
  33.2646441  60.5372429  13.2968056  33.6718202  61.2633514  13.7692523
  33.6813664  60.5484581  12.4351513  18.6838949  27.8574967  26.2204814
  19.5285809  27.4832630  26.4708543  18.6783338  28.7263107  26.6221833
  52.2640991  75.4908848  40.3702021  52.3438883  75.9400988  39.5287323
  52.9007959  74.7777462  40.3223181  57.8267288  37.0655203  69.3238354
  57.2290659  37.6027751  69.8438263  57.2528124  36.4931512  68.8146734
   7.0967633  65.6957579  17.9591393   7.1834421  64.7613144  18.1476462
   6.8667185  65.7324696  17.0307195   1.5808126  54.6128893  36.5166664
   1.9937409  54.9117565  37.3268533   0.6723145  54.4371367  36.7615628
  11.9669688  40.5504036  48.0723381  12.8326356  40.2201033  48.3126593
  12.0370209  40.7486582  47.1385193  19.1380203  30.7752943  69.7411489
  19.9561703  30.2822733  69.8027229  19.4143140  31.6859841  69.6384859
  75.0691414  40.1308060  42.9877043  74.3854952  40.1917410  42.3205137
  75.3496075  41.0353994  43.1265593   5.4027498  49.0075064  52.3717785
   5.2486324  48.3040762  51.7411661   5.7856357  48.5685825  53.1313658
  83.4560108  22.7732182  23.3127546  83.5817242  22.7674818  24.2616487
  83.9757633  23.5165000  23.0067849  91.0253811  49.4409370  73.2854795
  90.7196712  49.4149208  72.3787880  91.9800949  49.4394541  73.2164717
  52.5305176  18.3814585  44.8194647  52.9144764  19.1773605  44.4515705
  52.8010988  18.3872700  45.7376051  67.0747852   4.8615789  51.6333771
  67.0918608   4.8548019  50.6763506  67.5857306   4.0930778  51.8874884
  77.2855711  39.3575120  34.2946982  78.2147121  39.5745802  34.3709111
  76.9699192  39.9049044  33.5757017  38.5325909  66.6428661  41.7124462
  38.7847996  67.5140238  41.4063263  38.5278702  66.7164183  42.6668024
   8.6891347  47.7584743  45.2813673   9.5571315  47.5692177  44.9250031
   8.8587582  48.3107424  46.0445547  73.6148357  26.6718817  61.0835457
  74.4239521  26.1620617  61.0429573  73.9054441  27.5838089  61.0706806
  85.6748486  42.0685291  55.1770496  86.2598705  42.5391626  55.7707500
  85.1530457  41.5069246  55.7502556  23.3364820   2.7006614  65.8326387
  24.2575169   2.6362941  65.5800772  22.9307365   1.9177674  65.4602432
  84.9423313  61.6599178  40.8433056  85.3658581  60.9842205  41.3727283
  84.2746925  62.0321512  41.4194393  71.6453648  40.4433203  45.6728649
  72.2274971  39.7610402  46.0072994  71.1770439  40.7586479  46.4458323
  27.2295070  38.9959455  15.7017052  27.7552032  39.5132899  15.0915980
  27.5913715  38.1119537  15.6396866  42.8134537  79.5988607  54.0290737
  42.2670317  79.0443802  53.4721136  42.2817564  79.7516632  54.8102140
  61.6713572  22.7974057  51.1024427  61.0292387  22.1785164  50.7547474
  61.9989491  22.3802924  51.8992662  75.1540184  33.6794615  34.4845200
  75.3875685  33.4850860  35.3922105  74.3019390  33.2610369  34.3615794
  85.8406925  42.5267982  50.6548214  86.4893627  42.5212336  51.3586903
  85.3118134  43.3067608  50.8226776  63.5434628  32.0622253  38.7741208
  63.9851856  32.9063010  38.6811304  62.6324415  32.2880626  38.9619374
  52.5933170  67.1991873  60.1527405  53.3590889  66.6627026  60.3577042
  51.9943714  66.6009235  59.7060013  78.5929489  15.0614989  25.3711438
  78.3606434  15.9888375  25.4191947  78.7312412  14.8972535  24.4383359
  11.4503562   7.3758078  40.4270554  12.2331154   7.1926719  39.9074578
  11.3236523   8.3209670  40.3442764  53.2840252  33.7949252  35.1375723
  52.7816296  33.4339976  35.8680272  53.9333391  34.3636417  35.5513072
  55.4288626  55.9331417  11.3662636  55.9587097  56.4392996  11.9821334
  55.7590199  55.0381851  11.4454961  72.5472403  20.6464720   9.7470671
  72.4063730  21.4720392  10.2105629  73.1785774  20.1725674  10.2884173
  71.6837931  10.9530687  60.6697416  71.1957455  11.5183103  60.0709534
  71.3360405  11.1648953  61.5360165  81.7919827   3.7328792  68.3515692
  82.0627117   3.0047357  68.9108086  80.9054565   3.9433509  68.6448240
  88.3632755  22.1451592  61.1949539  88.5313129  22.1077275  62.1365452
  88.3549213  23.0801511  60.9901285  85.3191948  50.9340715  54.0136385
  86.0017681  50.2637243  54.0446997  85.3030396  51.2172556  53.0994272
  85.1970291  78.8730574   7.6772171  85.2558517  77.9481411   7.9165977
  85.3914833  79.3431473   8.4880394  66.4493704  38.4777093  26.9600511
  66.9411087  38.3087540  27.7637172  67.0043564  39.0772104  26.4612341
  69.6797991  25.6029630  15.7030594  69.8918343  24.8577857  16.2651873
  69.0352106  26.1040926  16.2026668  76.0118437  45.1593876  68.7624693
  75.6890774  44.2874384  68.9899731  76.0526276  45.6251478  69.5977163
  12.4074423  60.8119011  21.1166215  13.1794512  60.3822088  21.4848566
  12.7546597  61.3797617  20.4287195  41.8660736  16.1386251  32.3557377
  42.4460936  16.5884554  32.9701161  42.4391413  15.5341029  31.8841720
  69.9210358  25.1050019  50.7326031  70.7247686  25.0259852  51.2464190
  69.2275620  25.1991177  51.3856506  68.0916357  12.6998472  42.5073385
  67.4359560  12.4203765  43.1462526  67.6131535  12.7510965  41.6798925
  61.7289448  36.8616390  48.9639568  61.0101080  36.3050604  49.2635059
  61.7933512  36.6852212  48.0253601   0.5003453  53.9678907  71.7560911
  -0.2600847  53.5630178  72.1732903   1.2527642  53.5907888  72.2120380
  49.7553921  21.4394045  41.1267948  49.0264034  21.2885571  40.5250835
  49.8537683  20.6110740  41.5962839  55.3215361  13.9270282  56.1398029
  55.1612473  14.8298085  56.4146233  54.8074102  13.8256395  55.3387833
  24.3170691  45.2445602  48.1575108  23.7201357  45.7671642  47.6219845
  24.8079205  44.7191000  47.5256968  87.3865604  43.1828165  39.4605970
  87.5572300  42.4988842  38.8130355  86.5172482  42.9761028  39.8038363
   4.6553960  37.9172421  20.4225016   5.2402645  37.4554873  19.8217154
   5.1358449  38.7094450  20.6629491  36.1845136   2.3971362  50.8133125
  35.7188535   2.2116818  49.9978399  35.6148982   2.0484465  51.4990139
  68.6308813  84.3386269  34.1078496  68.9409876  85.0165272  34.7082758
  68.3212900  84.8210335  33.3412552  74.5988035  40.5369949  48.0360985
  75.1705885  40.9541941  47.3917103  75.1989317  40.1391792  48.6668301
  72.7750969   9.2732656  23.3159471  72.8872633   8.5766804  23.9628005
  71.8266773   9.3711919  23.2314420  27.5309229  69.1985273   4.6452171
  28.0981088  68.4275103   4.6530920  27.9043555  69.7773695   5.3098369
   1.6168854  42.3324347  39.9338365   2.2937661  42.5748587  39.3019390
   1.7262127  42.9550409  40.6526184  83.7923622  43.1163883  53.5742331
  83.9515591  44.0594482  53.6132908  84.4510174  42.7379751  54.1566515
  76.2605858  41.3353109  46.2069130  76.1185646  42.2226763  45.8772993
  76.4802027  40.8230400  45.4287243  83.5342979  38.4552550  47.1653080
  83.7972832  37.5568461  47.3651409  84.2042446  38.9987898  47.5799894
  89.6566868  47.1132755  44.8608398  88.7163448  46.9402599  44.8155069
  89.9163342  46.8001842  45.7273197  80.7406235  44.1457748  40.0786114
  81.2220955  44.9202776  40.3694010  80.2860260  43.8379622  40.8627224
  59.1085672  20.5173373  52.8728390  59.4353962  20.3749418  51.9845057
  58.6511040  19.7057843  53.0926991  80.4892635  69.1098213   2.5360805
  80.9881878  68.9157104   3.3295742  79.7264862  69.5979261   2.8461677
  74.2041588  23.9747977  48.6352730  75.1261377  23.7310886  48.5528517
  73.8683224  23.9480305  47.7393198  60.8920145  60.3103304  41.8450642
  60.9659672  60.7434893  40.9946918  61.7469740  59.9019051  41.9809723
  81.4827061  24.1838431  73.8446426  80.9544373  23.3906603  73.7550259
  80.8424473  24.8936105  73.8949680  42.2290373  10.5206454   6.0209978
  42.1163893   9.5738536   6.1054289  42.8723431  10.7461739   6.6929555
   8.3051395  26.4171624  46.3818693   8.1831986  26.3575053  45.4343462
   8.8212389  27.2134972  46.5072680  65.1449537  20.3853059   8.2611364
  65.5515432  21.2240052   8.4790736  65.8712387  19.8369706   7.9643768
  64.5068407  48.8438797  38.7212753  64.4679594  49.6709490  38.2409859
  64.9708080  49.0584469  39.5305490   4.9690172  47.1290588  13.4434485
   5.4394066  47.6681137  14.0793633   4.0642333  47.1247864  13.7558258
  12.4610758  85.0395775  49.4376469  13.1298709  84.8921299  48.7689114
  12.7838755  85.7889938  49.9380636   3.0128545  76.1225653  33.1001997
   3.5144803  76.5097189  33.8176370   2.1707822  76.5770721  33.1241488
  86.4244080  67.0017195  46.3000965  85.8116341  66.9183683  45.5694914
  87.2458267  67.2776937  45.8934641  17.4683952  40.8480215  40.8853579
  17.1724772  41.4291000  41.5860796  18.4210289  40.8284950  40.9766722
  55.4124403  15.0596440  53.4325027  54.8234034  14.3067384  53.3835411
  56.2655258  14.6827209  53.6479330  11.8705165  35.1314282  36.1448860
  12.5333321  34.9288511  36.8050909  11.4762843  34.2851257  35.9337401
  71.2747717  36.8503761  48.7693071  71.0337830  37.0734596  49.6684122
  72.0233059  36.2609005  48.8612127  83.2507706  34.2319846  67.3798227
  83.3189869  35.1679611  67.5683022  82.8220177  34.1904235  66.5250301
  71.4554548   1.0356878  44.5046186  72.3002815   0.8017813  44.1201878
  71.6796494   1.5360457  45.2892256  85.8692360  26.5080714  67.1419191
  85.2615547  27.0316696  66.6196203  85.3372574  25.7856464  67.4755859
  67.3002195  34.9647570  32.5123858  66.9238377  35.2746391  31.6886497
  67.6917696  35.7448649  32.9052639  89.9526596  19.9189079   0.5867112
  89.8053551  19.1626096   1.1546439  90.3938866  19.5584953  -0.1824789
  41.9884539  83.3521366  36.1180806  41.9129753  82.4394226  35.8397031
  41.1766434  83.5250378  36.5948462  68.3834219  47.6862812  46.9716597
  69.2286777  47.4165201  46.6124916  67.7878809  46.9720507  46.7448759
  78.6986589  38.8702798  40.4350471  79.2317486  39.5813847  40.7905436
  77.7965975  39.1750431  40.5332232  25.3809071  29.1112757  39.5353580
  24.8317671  28.4925961  39.0537858  26.1816382  28.6226988  39.7260237
  18.3947718  58.7014627  30.7652044  17.5700915  58.4719276  30.3368974
  18.3529186  58.2639408  31.6155314  63.4386015  40.5618477  36.1565089
  63.0213308  41.2978411  36.6042018  63.0053329  39.7869873  36.5144253
  20.9631276  27.2402811  23.2595658  21.1480045  26.5403247  22.6333761
  21.4894223  27.0193958  24.0279770  26.4128852   1.4635614  50.0582552
  26.0872507   2.1677570  49.4976282  25.7847071   1.4215295  50.7792711
  74.2019749  51.3364029  64.3913031  73.3037949  51.0090208  64.4395256
  74.6526766  50.9073019  65.1186085  16.6110539  43.2297468  42.0176935
  16.4351249  44.1207457  41.7153692  15.7809436  42.7682066  41.8988323
  23.0526519  22.2647786  35.3262091  22.6922321  22.9152989  35.9288311
  22.3583269  21.6122413  35.2349043   6.8469542  24.8913312  40.7052755
   7.0244431  25.5979204  40.0844193   7.6859218  24.4406509  40.8014679
  62.1383047  47.5800896  37.5478864  62.7782011  46.9902992  37.9465270
  62.5995064  47.9657459  36.8030429  50.4871368  51.6630602  17.9080093
  50.0738859  52.4476099  17.5475371  49.9307060  51.4173174  18.6470783
  61.8007088   6.5885866  61.8207073  62.0102549   5.9272212  62.4801922
  60.9223938   6.8893683  62.0537949  68.2192421  52.2096157  33.3471155
  67.5915909  51.9208431  34.0096092  68.1972170  51.5227604  32.6808023
   2.7918297  37.6659536  45.9114408   3.3830461  38.0930972  46.5313148
   2.8720981  36.7326331  46.1081648  76.7725372  30.1086473  61.1848211
  77.4200821  29.8561358  60.5266762  76.2898874  30.8301616  60.7814598
  88.9591599  26.3123918  55.5041456  88.8080597  25.4283428  55.8385992
  89.0965176  26.8446946  56.2877369  69.4906855  35.5946279  71.1373663
  68.5539913  35.4632854  70.9904480  69.6696758  36.4641237  70.7793570
   4.1723520  53.5636997  63.5742378   3.5836282  54.3184376  63.5769224
   4.9972817  53.9046431  63.2285786  39.6570063  65.7252121   1.9223380
  38.9866638  65.1601744   1.5381469  39.8336458  65.3383350   2.7798659
  71.2652206  27.1571755  71.2963152  71.3768196  26.2139368  71.1776733
  70.8071280  27.2408438  72.1326065  54.1544533  72.1630144   3.6717099
  53.6407042  72.3982000   2.8990662  55.0090218  72.5679445   3.5234618
  51.0364676  37.3991966  34.9282384  51.1881542  37.7371621  35.8108497
  51.8987703  37.4178863  34.5131326  68.7197876  37.5169325  47.6972294
  69.6376324  37.3792481  47.9313946  68.2276106  37.1506643  48.4319687
  54.4058704  29.1423297  24.5267701  54.4643736  29.9098206  23.9577627
  53.8657284  29.4303584  25.2626491  80.4536629  54.4184732  72.2486782
  81.0546875  55.1358557  72.4495840  80.8769989  53.6417913  72.6144505
  27.6812649  81.5905094  36.1731887  27.0019746  82.2592163  36.0858107
  28.3233285  81.9776535  36.7682576  42.7696371   4.4863334  48.1578636
  42.1056938   4.0785384  47.6018810  42.5011587   5.4031128  48.2184029
  10.1178586  79.1642666  72.4702072   9.3511325  79.6036339  72.1023560
  10.8239901  79.3587589  71.8539429  60.9479380   7.3552155  65.8305645
  61.7909479   7.4285620  65.3831387  61.0104513   7.9700381  66.5615368
   1.9560950  50.1172972  66.7817307   2.3830681  49.3088531  67.0651722
   2.6637235  50.6446505  66.4110661  36.4643192  83.9754581  15.6176484
  36.2318850  83.3166313  14.9633110  35.8058262  84.6618938  15.5107856
  85.0189018  34.9492717  70.3962803  84.9213982  34.0010428  70.4834080
  84.4788456  35.3111362  71.0988617  49.4133711   9.2980033  54.2726898
  49.3615007   9.5373452  53.3473492  49.8754215  10.0287116  54.6835470
  69.3082476  27.2557449  73.3088541  69.1892242  28.1877255  73.4918308
  68.4209871  26.9229817  73.1736755  90.7129383  27.4732924  39.6337271
  91.2743092  27.8242016  40.3250742  91.0777760  26.6087770  39.4446731
  54.6580219  27.3110294  35.5026937  53.8994503  26.9273353  35.0627089
  54.5561028  27.0579362  36.4201832   4.6999228   9.8081523  24.9851918
   5.3285182   9.7823882  25.7066059   5.1593864  10.2694392  24.2835236
  24.1166520  32.9623604  58.1607914  24.4363689  32.0765758  58.3322573
  24.6740818  33.5261917  58.6970711  66.7065954  45.8680916  27.1585512
  67.3159313  45.2567673  26.7447591  66.8838358  46.7073393  26.7337203
   2.8846437  36.0654736  41.0295010   2.9902023  36.5745902  40.2258301
   2.9242480  36.7150307  41.7314577  18.8790262  55.2104759  45.2066898
  19.4686925  55.7567406  45.7264185  19.4303489  54.8624277  44.5058775
  45.5487633  57.1892786  17.8155828  45.2052546  58.0826998  17.8214073
  45.6590700  56.9690514  18.7405503  88.7529755  42.8948355  26.1379766
  89.3747139  43.4122467  25.6261611  88.7817097  42.0243835  25.7408357
  55.5296755  29.7337031  60.2029800  55.1952839  30.6224561  60.0824356
  55.6404877  29.6458459  61.1496782  59.6918392  57.8469849   8.7400359
  58.9830399  57.4056244   8.2720238  59.2897606  58.6427116   9.0884340
  64.6795273  59.3507004  31.7019439  64.4294786  60.0540924  31.1028194
  65.6302691  59.2859650  31.6118026  75.5934143  35.1017427  66.2740088
  75.1842308  35.7132459  65.6617498  76.0866213  34.4993234  65.7171726
  88.9923954  35.3046203  65.2837467  89.4280243  34.4636631  65.4224968
  88.4994030  35.4549432  66.0903406  56.5637112  19.7577202  48.6042166
  57.2789717  19.1478598  48.4233618  56.7138529  20.0423980  49.5056868
  49.6922207  22.8078890  11.9273114  50.4242516  23.3337831  11.6051257
  50.0615263  22.3008251  12.6503134  89.0075111  63.9093685  58.9367056
  88.2890892  63.5071182  58.4485435  88.5806084  64.5459652  59.5100546
  30.2443004  68.6372662  69.0600729  30.7467604  69.3898201  69.3722153
  29.4374490  68.6578989  69.5746565  70.9115601   0.0924693  50.7272148
  71.7225504   0.0886405  51.2356567  70.8477497   0.9840485  50.3848028
  65.9593487  18.0412209  30.4503512  66.4532757  18.6814821  29.9381614
  66.0917234  17.2126055  29.9898028  68.7356043  32.9820728  36.9780731
  68.7585211  32.0657849  36.7021656  68.3548117  32.9584122  37.8559494
  69.5774031  33.1424809  22.9085588  69.2460823  32.8401637  22.0629430
  70.4209185  32.7008843  23.0070519   1.3904434  12.2368753  22.4432373
   1.4563289  13.1845939  22.5603724   1.6389713  11.8726802  23.2928419
  88.4513760  14.4105911  47.8058290  89.1952133  15.0126290  47.8280115
  87.7934837  14.8219693  48.3663464  54.1744423  70.6125546  19.1237056
  54.2024708  71.1609936  19.9077094  53.7463617  71.1587954  18.4644675
  71.3877535  30.6028605  36.0715485  71.2891722  30.6833410  37.0202518
  71.5809107  31.4920735  35.7745290  75.8128262  49.7064543  18.1965292
  75.3424501  50.3201437  17.6322973  76.4062691  49.2437983  17.6049149
  73.6489487  37.4447107  21.6368032  73.0954838  37.3155594  20.8665895
  74.5381355  37.4983335  21.2865138  22.8180075  43.5629606  13.9241338
  22.8122663  42.8103685  14.5155716  23.1994843  43.2272196  13.1129730
   9.4131339  28.0829239  35.3773284   9.8342174  28.7534308  35.9152317
   8.5621262  27.9424572  35.7924008  88.6665344  29.3167377  38.6966300
  89.2568588  28.9259934  39.3408823  88.3484745  28.5748100  38.1822252
  82.9379463  21.4914751  68.1199265  83.1299114  22.3114157  68.5749865
  82.4106884  21.7540550  67.3654175  61.9040585   2.4119884   3.5093889
  62.3718262   1.8299511   4.1082710  62.5646544   2.6791757   2.8702807
   0.6573536  53.4877539  51.9685268   1.4517242  53.2471323  52.4452972
   0.3648064  54.2987442  52.3843956  23.6703849  29.2578053  69.4418192
  24.1016793  28.4239411  69.2550468  24.1872168  29.6413612  70.1503420
  34.2408681  11.8249178  21.2308884  33.8771319  12.6233459  21.6135645
  34.3138528  12.0189166  20.2963996  58.4658527  27.0827127  68.6392975
  58.1296158  26.2533689  68.9789534  58.1046247  27.7462959  69.2270088
   9.1036701  13.8789928  35.3553009   8.6400473  13.8989210  36.1924911
   8.8849568  14.7134471  34.9404716  68.0465031  19.8851514  71.0644674
  68.9250851  19.5265722  71.1899471  68.1705284  20.8341408  71.0808802
  64.0478373  34.0464234  17.3058581  64.4309807  33.2547283  16.9281697
  64.6980000  34.3479538  17.9403675   2.0963249  42.5649500  21.3040471
   2.0618340  41.7799425  20.7574177   2.7525872  43.1207895  20.8838153
   7.0145959  36.9304800  35.4586601   6.3620496  36.5654087  34.8610497
   6.9693142  37.8756547  35.3143406  73.8589954   1.9237652  41.2353897
  73.2406092   2.4739707  40.7546568  73.9749432   2.3702247  42.0741129
  29.7570634  29.8468947  20.6693769  29.5501137  30.6092644  21.2099290
  30.3035760  30.1943159  19.9644995   3.7750551  62.5065804  56.2926865
   2.8231543  62.6028347  56.3218832   3.9488527  61.6975546  56.7738295
  10.0962305  54.6291637  59.8147345   9.3010890  54.2273474  60.1647663
   9.7816426  55.2488947  59.1565514  57.3157597  41.9332647  39.4501066
  57.4692106  40.9885216  39.4382167  56.7062664  42.0860243  38.7280130
  78.3049154  66.4094305  34.0590048  77.9924393  66.1120129  33.2045245
  77.6892900  67.0969248  34.3131423  62.5885105  38.0976510  34.3572927
  61.7805099  38.6106133  34.3728042  63.2480764  38.7000418  34.0132976
  11.7908323  12.2032702  54.6452570  12.4898803  11.9860756  55.2620125
  11.0481691  11.6692543  54.9272299  86.4113998  27.6364541  30.0708628
  85.7296085  27.1531558  29.6041560  87.2061253  27.1203923  29.9355173
  53.9776897   6.1989921   2.0429471  53.3013153   6.8631226   2.1759044
  53.8075638   5.5448377   2.7207160  70.2642870   0.7165875  40.7317114
  70.0870132   1.6197255  40.9946680  70.2307510   0.7346347  39.7752666
  91.6568375  44.9856520  36.8222427  91.0736084  44.9401283  37.5798702
  91.6516399  44.0987015  36.4623427  70.1222849  45.2103853  45.5988455
  70.0291395  44.4363356  46.1541843  70.9217644  45.6342602  45.9109163
  44.9450397  76.0337257   8.4592366  44.8529911  76.9729376   8.6193460
  45.2386522  75.9733725   7.5501817  56.6188097  65.7988024  46.5162182
  55.9961462  66.4563084  46.8264008  56.9559860  66.1568356  45.6950235
   7.9667675  45.8960152  60.0660992   7.7786309  45.2091026  60.7056189
   8.9156413  46.0131216  60.1125383  60.1947355  20.5877376  50.0725365
  59.7424841  20.7191849  49.2392159  60.9473038  20.0386405  49.8526144
  68.4625292  39.4504714  21.5146875  68.0849504  39.1677666  22.3476005
  69.3555689  39.1061640  21.5274072  70.2337933  12.7320063  49.0425158
  70.0542450  11.8032575  48.8961554  69.4754601  13.1837952  48.6723089
  74.6014977  64.4672441  20.7379818  74.5116186  63.9872694  21.5612531
  74.8190641  63.7955618  20.0916576  87.8023338  53.1267881  37.5491333
  87.9011059  52.1751833  37.5187063  87.9756069  53.4143543  36.6527462
  15.0173676  36.6056848  41.6270876  15.4725802  35.8727360  42.0415735
  14.0924788  36.3608861  41.6568470   7.1752167  41.8023396  59.0575266
   8.1121171  41.8287373  58.8632298   7.0162463  40.9045458  59.3489456
  73.1589746  53.1128311  32.4171376  73.2256269  52.3055410  31.9071698
  72.7535105  52.8428364  33.2411122   0.1061474  29.8330545  29.5691133
  -0.2008350  29.6316862  28.6851215   0.7269973  29.1333985  29.7722363
  86.4643192  28.4349775  64.9414158  86.7733955  28.8986564  65.7196903
  86.8954563  27.5814414  64.9841404  82.8966141  44.7023201  35.2822685
  82.9599285  45.2775240  36.0447383  83.8054657  44.5153141  35.0471973
   7.1279687  31.0512924  34.7823429   7.1951491  31.6868091  34.0697169
   7.0747417  31.5851045  35.5750895  22.2744179  80.6575966  12.6517379
  21.5462375  81.2639713  12.7870035  21.8557763  79.8279905  12.4221182
  19.0846550  35.3896570  30.2517366  19.6614146  36.1533856  30.2690101
  19.3022299  34.9071217  31.0492659  84.0358353  44.8951149  51.0346508
  83.1182098  44.8401642  50.7678699  84.2050171  45.8334780  51.1188269
  88.4205914  37.0512533  38.2898283  87.5286198  37.2358084  37.9956245
  88.9799500  37.4813962  37.6430416  88.2562447  27.4275494  62.2798347
  88.5374260  27.7775407  63.1252193  87.5011444  26.8772054  62.4876404
  44.3856716  23.5482216  56.5146065  44.5488977  24.2547822  57.1393967
  44.2798138  23.9922023  55.6732321  70.9867954  54.3163490  49.3104744
  71.8856525  54.3690062  48.9856434  70.8857870  55.0918198  49.8624516
  11.6681528  16.9453430  21.8972826  11.6982031  16.0207820  22.1432829
  10.9816062  17.3181546  22.4503636  86.4000702  32.6793480  50.1312637
  86.4477253  31.7256188  50.1973057  86.8820858  32.8884101  49.3311501
  69.4956684  67.7617836  23.6996531  70.1735687  67.1533012  23.4056520
  68.9388227  67.2392988  24.2768550   3.8202059  35.7777691  31.2373853
   2.8710309  35.7336617  31.1218309   4.0747437  36.5992069  30.8170533
   2.8209564  14.5877779  50.6168079   2.7682483  14.9145293  49.7186518
   2.1647874  13.8920617  50.6574726  75.7761431  15.6787121  37.0811868
  75.5858850  16.2812376  36.3621640  76.5469074  15.1923788  36.7885494
  36.7560244  10.0414240   5.3261596  36.2084031  10.5443716   5.9289747
  37.6477504  10.3375077   5.5088919   5.0004077  83.3613491   5.9219640
   5.6517696  82.9640865   6.5000165   5.5163521  83.8014317   5.2464229
  83.9152336  31.9260097  16.4280665  84.1187859  32.8086376  16.1186039
  82.9597378  31.8766356  16.3996065  65.3560591  30.3007865  46.4099550
  65.3358793  31.2473965  46.2693977  65.0047970  30.1821399  47.2924328
   2.9429844  31.9400430  30.0025463   2.9964548  32.6954627  29.4171286
   2.3150271  31.3538218  29.5803547  57.2726727  35.5086398  35.5167603
  57.4489355  36.2939143  36.0349369  57.0702982  35.8395529  34.6416759
  11.2082064  69.2061520  50.7873011  10.8027017  68.4000635  50.4678965
  11.1785626  69.1276550  51.7408133  81.8394279   9.9379277  49.1025400
  81.5141201  10.0815415  48.2138395  82.7291393  10.2907991  49.0918589
  74.5554543  40.3941679  60.8932257  74.7904015  41.2527561  61.2451553
  74.0836573  40.5882311  60.0832987  26.2353206  18.5241795  53.2938623
  26.3495207  19.4113803  52.9531813  26.3284826  18.6178243  54.2419052
  85.2152061  52.4803686  35.1916122  85.0609207  51.9766569  35.9908009
  84.6794796  52.0462513  34.5277071  87.2654438  34.5681214  39.0586948
  86.4011383  34.8215222  39.3827057  87.7190590  35.3981543  38.9120030
  71.8841267  65.9618759  41.5989017  71.4364195  66.0875988  42.4355555
  72.0150185  65.0156832  41.5371037  82.4826622  57.7364159  39.0553069
  83.1151199  57.0334101  39.2036653  82.4828529  58.2351255  39.8723269
  66.4172173  62.2214603  60.7082891  66.9960928  61.4796591  60.5326128
  66.2934351  62.6361227  59.8544931  22.7729297  75.4186296   5.6310606
  21.8803239  75.7340336   5.4896080  23.1730175  75.4340839   4.7616225
  63.8399935  53.7811756  11.6935456  63.8772058  54.6487331  12.0962691
  63.9154816  53.1725311  12.4284518  11.2971735  43.8554287  63.9365149
  12.0499790  43.4180975  63.5386992  10.6981003  43.1436300  64.1616583
  72.2631073  39.1523457  57.3984432  72.3878908  39.4263697  56.4898348
  73.1480598  39.1165113  57.7614975  54.7746229  69.8158646  53.3765173
  55.2455664  70.5815125  53.0475330  55.2268171  69.0693855  52.9834318
   1.3866781  20.3651881  30.2487183   1.5053023  20.6378269  29.3388677
   1.7384887  19.4755340  30.2799773  25.6890702   1.6101183  41.7069244
  25.6720471   2.2481042  40.9935427  26.6199327   1.4617646  41.8734121
   6.5843189  46.1466408  21.9447541   7.0290625  46.5029716  22.7138186
   5.6976599  45.9531021  22.2490716  89.9683666  67.8619528  73.7268591
  89.7335720  67.7959156  72.8012562  90.3301239  68.7432671  73.8198996
  23.6157131  17.1434999  28.9968967  23.4094977  17.2838891  29.9210167
  24.2896366  17.7942109  28.8003421  70.0008011  67.8067732  14.3698859
  69.5310545  68.5590076  14.0097260  70.7020950  68.1916142  14.8955452
  74.7626972  54.1058636  16.7633832  73.8272572  54.2965984  16.6940713
  75.1560926  54.5631695  16.0201848  77.1022463  45.8199167  50.2137852
  77.4792528  45.3803825  50.9759617  76.4550638  46.4223242  50.5805111
  76.5412664  41.0443830  32.2716498  77.3052502  41.4947176  31.9114232
  75.9852123  40.8710194  31.5120578   7.8075624  48.2925653  41.9563913
   8.3305770  47.7680397  42.5626612   8.3055717  48.2814693  41.1390209
  10.9603572  50.6340027  40.4440498  10.2222848  50.0920868  40.1651144
  10.7315981  50.9121275  41.3309240  79.2688990  75.1238155  45.1620960
  80.1164818  75.1555109  45.6057405  79.2201996  75.9489679  44.6794081
   2.9025686  58.6099148  45.2773142   2.2314462  58.9626598  45.8616066
   2.7287161  59.0269756  44.4334745  34.3916488  11.7140329  73.8152504
  34.5569301  12.0642388  72.9398823  33.4613109  11.8796897  73.9677668
  18.6512721  51.2304735  49.4638729  19.0595949  51.8637562  48.8735676
  19.3782628  50.8784819  49.9775028  29.8848915  43.0072737  24.9302626
  30.7054734  42.7958727  25.3754425  29.2486596  42.3928738  25.2962637
  81.1441994  48.1219053  48.3163548  81.3417912  48.7987947  47.6690435
  82.0007896  47.7882624  48.5831165  81.9283581  15.0374126  27.1946526
  81.5859699  14.2058694  26.8667245  82.1552277  14.8597360  28.1074476
  71.4928770  39.5147419  17.7808499  72.0269728  40.1753378  17.3397291
  70.9621572  40.0122309  18.4030032  80.4621792  29.2181802  63.5676241
  79.8655367  28.5283041  63.8579988  80.0758743  30.0264883  63.9047194
  18.5303247   0.5637778  74.1780901  19.4788551   0.6876685  74.2123604
  18.3706427   0.1735205  73.3187723  89.6618652  60.4526997  47.5153542
  88.8926125  61.0057783  47.3789978  89.3351269  59.7083378  48.0207300
  71.3654470  28.6342740  40.8325624  72.0349360  27.9702353  40.9970808
  71.1878681  29.0137243  41.6932106  27.7539587  70.2267599  50.4529476
  26.8294501  70.4476070  50.5658531  27.7993846  69.8215628  49.5869350
  60.0528288  63.7740755  21.9977307  60.4717779  64.6139097  21.8095875
  59.5140457  63.5971117  21.2266064  36.6492891  85.8989525   0.9819932
  37.3778248  85.9185028   0.3614414  36.2237215  86.7500973   0.8786307
  64.6851587  61.1420536  23.2245183  63.8427591  60.7662439  22.9688430
  64.9774027  61.6235542  22.4505782  69.5025349  55.7466459  55.9810543
  70.4178286  55.5030251  55.8427906  69.0351963  55.3487492  55.2465487
   4.2816731  66.6659737  21.8658829   4.5863101  67.5512886  22.0650005
   3.8426942  66.7484808  21.0192871   1.7422205  34.1586256  31.5520477
   2.1716958  33.4302211  31.1034846   1.7277205  33.8977480  32.4728966
  30.3203773  41.5376949  53.2880354  30.5830479  41.1354542  52.4601221
  30.1856875  40.7986689  53.8812733  57.2258711  31.8342733  26.5752792
  56.9208908  32.7255750  26.4055729  56.9151878  31.3278508  25.8247852
   7.5313294  38.8711691  27.0314908   8.2533157  38.6157775  27.6057243
   7.8971177  38.8177061  26.1485577  83.0905247   8.4413719  14.5420599
  83.0824947   7.6071489  14.0727639  83.1305313   9.1038358  13.8522983
  63.0665016  58.5203362  22.5074124  63.1993437  58.1557512  21.6323924
  63.8572311  58.2791996  22.9899406  79.8994827  61.1456394  40.9560347
  80.2112770  61.4044380  40.0888300  79.8590708  60.1899433  40.9206629
  60.6896448  20.9735394  33.6024976  61.3487291  21.6175342  33.8615537
  59.8717356  21.3058019  33.9724422  59.9816799  41.9301128  38.5551572
  60.3828382  42.1060228  39.4062495  59.0743780  42.2187567  38.6537790
  48.0975103  66.4984035  43.4509659  47.6956654  66.0583639  42.7018833
  47.6886511  66.0919905  44.2150927  57.3412037  38.7435222  26.4637208
  57.8519773  39.5192266  26.6952991  57.5184965  38.1207705  27.1686888
  42.1278715  42.2757912  16.0739398  41.5683651  41.6867876  16.5801609
  41.9336367  43.1468868  16.4199114  69.3850183  24.9352789  38.5197616
  69.2420673  23.9888144  38.5214257  69.6410465  25.1372552  37.6198220
  27.3360944  10.8457494  16.9638395  26.8686700  11.3943601  16.3339400
  27.6717758  10.1160502  16.4431763  21.7578173  65.0791407  23.1467247
  21.5014291  64.2174530  22.8181005  22.5087118  64.9053097  23.7143278
  62.7983189   1.1773836  42.4288797  62.2535038   0.7160282  43.0665016
  63.1560040   0.4845565  41.8736458   3.9539519  37.7591801  66.4760256
   4.6741962  38.2515287  66.0822296   3.2898104  38.4205270  66.6703606
  73.1986666  32.0630789  53.1155539  73.6629343  31.3484859  52.6796150
  73.8576126  32.7498317  53.2174969  12.0681477  62.6284456  51.4216232
  12.0613658  62.2512674  52.3013544  11.6378832  61.9704533  50.8755922
  56.7541218   7.0049238  43.5323238  57.4554253   6.4639956  43.1692791
  55.9484291   6.5981442  43.2135391  27.5380826  73.9118624  71.3540792
  26.6024518  74.1139126  71.3557148  27.6424479  73.2549047  72.0423746
  73.4589575  -0.1695841  69.7526598  73.2995985  -0.4102724  68.8400221
  73.6274479   0.7722933  69.7260475  70.0188112  76.0885477  64.6975422
  69.2363071  75.8410835  64.2049122  70.7480097  75.7803917  64.1594458
  41.3699770  82.4194908  54.2502117  41.3610554  82.8220749  55.1185894
  41.8693686  83.0302620  53.7081766  47.7008867   3.7324974  60.2531195
  46.8279219   3.3400124  60.2640009  48.0611181   3.5394087  61.1186695
  89.1230679   7.4735206  39.8212647  88.4735489   7.8276896  39.2138696
  88.6082745   6.9894767  40.4669619  59.8185539  60.7923222  16.0337949
  60.4605627  61.1087847  15.3982556  59.0210056  61.2818956  15.8326435
  72.1391153  71.1519146  64.2761755  72.8079319  71.8103886  64.4641447
  71.5637970  71.5708256  63.6360598  17.0962739  59.3235588  24.5226812
  16.8351161  58.4815598  24.8955894  17.7487946  59.6644020  25.1344633
   8.7762529   7.2397852   0.5690751   9.1412491   7.9883647   1.0409212
   8.1856799   6.8250865   1.1979476  90.8910370  53.8687611  37.5590777
  90.0150681  53.8607836  37.1732688  90.7806873  54.3228579  38.3944535
  12.8463173  23.6294222  38.6947727  12.5111103  23.7597466  37.8077078
  13.7970746  23.5960484  38.5890436  71.3380957  17.0411634  57.7211523
  70.5962992  16.4467001  57.8333330  71.5612984  17.3161149  58.6104298
  90.6640339  29.9006319   6.2135345  90.4765892  30.6631279   6.7609793
  91.5677834  30.0289631   5.9254569   9.8794103  33.0977082  66.2046051
   9.6608436  33.1170583  67.1363163  10.2224743  32.2163200  66.0573244
  69.1919613   5.0372660  19.5190024  68.6225510   5.0871825  20.2867985
  69.0402985   5.8603060  19.0544224   7.4245465  13.8328266  37.6264787
   7.1909481  12.9525352  37.3319435   7.5748211  13.7386620  38.5671091
  53.8174534  25.9888697  26.3989377  53.4346294  26.7396617  26.8527985
  54.3889856  26.3758421  25.7357383  76.0691643   7.6966953   7.3254055
  75.9384394   7.3291779   8.1995183  75.2917624   8.2338852   7.1727252
  71.6537619  22.0841980  44.7305202  71.1694384  22.4396205  45.4757309
  72.2982597  21.4950991  45.1227093  73.5407734  20.3620052  46.3720512
  73.4150887  20.6635475  47.2717762  73.9432907  19.4983196  46.4629316
  53.3838081  86.1387825  55.7085752  53.5667801  86.1425781  56.6481161
  53.8312721  85.3587627  55.3805780  26.5865326  85.9586143  46.3567781
  25.6756115  86.2335014  46.2524128  26.5298653  85.0734711  46.7166901
  69.8225307  12.1289814  24.8051190  69.0994835  12.7254081  24.9993062
  70.5503273  12.7039289  24.5685267  52.7549410  25.1619077  37.5302553
  52.0788479  25.7337618  37.1667767  52.3072147  24.6684957  38.2175112
   4.7491983  21.8991184   7.4621665   5.2256012  21.0964251   7.2501397
   3.9862725  21.6010904   7.9575008  55.7458258  62.8384352  21.6337729
  54.8425961  62.9023314  21.3234162  56.1120129  63.7104416  21.4862919
   0.6868818   7.6340133  48.0539751   0.9199121   7.6338202  48.9823771
  -0.2358839   7.8879839  48.0387068  71.5675831   4.7767395  30.2007675
  72.2095299   5.4401630  29.9477673  71.9348860   3.9532530  29.8795366
  88.7976360  76.1418962  19.5516527  88.3849430  75.6420469  18.8473320
  88.2035255  76.0428095  20.2955937  75.8482599  33.3809948  41.3365126
  76.6025257  33.4593987  40.7524157  75.0996304  33.6336708  40.7961988
  50.4368830  16.1117518  74.5839930  49.9705172  15.3110194  74.8239183
  49.7652149  16.7935777  74.5983982  28.1052899  51.4348745  14.0694034
  28.4720278  52.0375156  14.7163653  28.8137364  51.2987185  13.4402788
  60.1275158  72.1448994  39.1291904  59.5147705  72.0451307  38.4006143
  59.5788622  72.4025965  39.8699999  37.1192718  41.5371323  23.0456591
  37.3825026  41.9475460  23.8693714  37.2895813  42.2041273  22.3805737
  11.6888642   8.9310259  32.3454523  11.1833560   9.3704116  33.0292892
  11.0410273   8.6999857  31.6797495  57.5184917  30.8697057  44.1446590
  58.1623602  30.1687360  44.2461967  57.8376913  31.5720439  44.7112846
  10.0643504  82.4247932  66.5190554   9.7132754  81.5510654  66.6910362
  10.8158219  82.5009727  67.1070337  46.8324280   9.4677871  24.1896772
  46.4925766   9.5648271  25.0792360  47.1054125  10.3505921  23.9399409
  76.1175013  30.5521750  18.1937659  75.6219196  30.0307369  18.8252199
  76.7699099  31.0118127  18.7222815  34.0266228  30.7611203  24.7449207
  33.4590030  30.3338504  25.3863883  33.4253860  31.2400436  24.1745043
  47.1546221  16.7227864  55.1554251  47.3550081  15.8098984  55.3620911
  47.6503515  16.9018543  54.3564129  82.6435280  35.1351428  24.5011210
  83.3075905  35.8179545  24.5960689  82.9748917  34.4045138  25.0232434
  61.6203070  24.3508720  31.5681362  62.0308590  23.4868097  31.6009259
  62.2273684  24.9224806  32.0382118  84.2742729  74.4438601  17.1108174
  83.7036037  74.2380238  16.3704109  84.5147800  73.5907745  17.4722457
  30.4092956  86.0545349  52.6387739  29.7558737  85.3584957  52.5694704
  31.1993623  85.6811142  52.2481537  14.7644746  12.1634114  44.2957687
  14.8247027  11.5788472  45.0513411  15.3747237  11.7937207  43.6576796
  69.7806168   1.3307649  55.7304001  69.6410704   0.6411260  56.3793659
  69.2884111   2.0795432  56.0669994  90.9143829  26.4317870  65.4683590
  90.2565098  26.4471436  66.1634827  91.6177750  25.8837152  65.8163452
   0.3947131   3.0965653  24.2586756   0.6808740   3.3350027  25.1404309
   0.3200153   3.9317694  23.7970638  33.7182665  70.1285696  17.9528844
  34.6005726  69.8759127  17.6809740  33.6620784  71.0616159  17.7467453
  84.9453068  14.3638456  63.1327343  85.2442265  13.5572934  62.7127886
  84.0266609  14.4416583  62.8753138  37.5283337  80.1573849  16.6135275
  38.1865335  79.5281601  16.9086194  37.1906734  79.7862434  15.7983756
  83.2103252  10.5317760  12.7587140  83.0755901  11.4756751  12.6742649
  84.1124535  10.3919148  12.4708986  72.1997547  11.5705550  47.4470425
  73.0419350  11.9024706  47.7581644  71.5560627  11.9558430  48.0415535
  88.1568050  75.5409718  44.5149231  88.9690399  75.1047993  44.2575264
  88.3525944  75.9274912  45.3684473  65.4728174  21.4256048  69.0056801
  65.7405996  21.3918066  69.9240398  65.2290821  22.3398399  68.8607550
  82.9553509  12.5633025  37.0196533  83.3670998  13.3738327  36.7200851
  82.5992775  12.7798212  37.8813744  73.2951117   2.7878907  74.7141933
  72.4077415   2.4291782  74.7255039  73.6763573   2.4582607  73.9004183
  26.7504597  28.9662719  20.0745344  26.3662410  29.7696972  19.7236586
  27.6705194  29.1853118  20.2219915   6.3228297  11.9971561  55.8110142
   6.6154134  12.8026295  56.2374401   6.2525022  12.2284055  54.8848295
  74.5464563  20.6116128  30.3175068  73.7634420  20.0772619  30.1848793
  74.3445492  21.4430475  29.8883414  16.0388041  40.0594711  31.4206624
  16.2664115  39.3150067  30.8637071  16.8275154  40.6017685  31.4297414
   0.4403529   6.0285628  34.0246320   0.1548599   5.2087682  33.6213183
   0.7084929   5.7796794  34.9091601  17.9631221  15.3891063  17.8284001
  17.2007108  15.9471190  17.9819643  18.2880557  15.6586254  16.9693255
  65.7277632  41.5590620  16.1821437  65.2419710  41.0523987  15.5313528
  66.4460850  41.9558001  15.6893468  73.5420084  71.9500303  72.5504875
  73.4918499  72.7915525  72.0971060  73.1355619  72.1120405  73.4018326
  75.0360680  23.8088298  42.3391819  75.0554514  24.6231914  42.8418493
  74.5736217  23.1896758  42.9040051  24.5493150  72.1891260   3.5731596
  24.9441147  71.6816282   2.8640679  25.1714325  72.8982878   3.7353036
   0.2818728  13.6591446  56.9438696   0.3897111  12.8977752  56.3738489
   1.1425830  14.0779257  56.9495344  35.7504058  82.9579639  52.8653097
  35.8120251  83.8767242  53.1266737  36.6117311  82.7543736  52.5007486
  81.9545841   2.2397888  27.5994349  82.3765850   2.7749056  26.9272709
  82.0375061   1.3420421  27.2778654  57.3804331  26.2098789  28.7767816
  57.5422764  27.0881867  28.4323764  58.0917645  26.0621643  29.4000173
  62.4953222  27.7998519  56.2768078  61.6798973  27.5420237  55.8468819
  63.1266499  27.8838992  55.5622530  16.1116135  85.6693649  73.8423920
  15.5086017  86.3770866  74.0698528  15.5730999  85.0413227  73.3609390
  69.5493460  25.4959083  46.4842367  70.2349710  26.0638165  46.1326361
  69.4956446  25.7306099  47.4106598   5.3074914  13.3088112  40.3902769
   5.1014251  13.4757197  41.3100100   4.4788954  13.4446657  39.9307060
   2.5116906  11.7856240  41.1479807   1.5910196  11.5700185  41.2966776
   2.9902878  11.0137355  41.4502430  30.0762868  48.2964039  52.9930687
  31.0069990  48.5199499  52.9990387  29.6633053  48.9760256  53.5257912
  31.4525604  65.1424789  13.1222653  31.9312692  65.1400232  13.9511585
  32.1301270  65.2495813  12.4546838  91.7216110  31.8742347  20.4934168
  92.2461700  31.1101961  20.2540159  90.9599304  31.5100288  20.9444571
  62.3460484  84.2883492   8.6684060  62.1088123  84.5331860   9.5628357
  62.9136229  83.5245323   8.7717128  85.8391571   4.0506259  28.3436465
  85.1257324   3.7474084  28.9051843  85.8171844   5.0043249  28.4224296
  65.7692289  20.1598334   1.7430313  64.9519205  19.6619868   1.7234656
  65.6904221  20.7193518   2.5156635  73.9239693   7.3749328  53.6613369
  74.3144035   8.1337929  54.0948391  73.2696104   7.0547861  54.2822647
  68.6697340  18.2077801  13.4965563  69.2839766  18.4012830  14.2047167
  69.1944695  18.2762992  12.6989436  78.9192247  49.1297674  43.3108664
  78.6210489  49.5988941  44.0901279  79.6583700  49.6457338  42.9888725
  33.9320827  77.4958372  29.9152613  33.2026744  76.8884134  29.7918415
  33.7343645  78.2290840  29.3326044  67.1816921  20.1394892  29.3141246
  66.8095016  21.0027289  29.1337776  67.2800875  19.7361457  28.4516501
  69.6294069  12.4334908  70.4614687  70.3034878  12.8347635  71.0099506
  69.1338778  11.8753827  71.0607958  64.1849852  17.7755845   1.8120962
  63.3432007  18.2304525   1.8389852  64.0905571  17.0596731   2.4404168
  13.1614780  26.6356826  21.7911172  12.7974379  26.0188174  22.4260855
  14.0965557  26.4323235  21.7685938  71.3500309  43.0329132  19.7781646
  70.9355402  42.2763538  20.1929498  71.8419218  42.6641989  19.0444577
  62.6638690  86.7098904  42.4232960  62.9408202  85.7936993  42.4121714
  61.8385995  86.7165452  41.9384098  70.7344532  29.4357586  57.2339058
  70.3398275  30.2997875  57.1157789  71.5693474  29.4881344  56.7686749
  82.7655888   9.5166117  36.1148858  83.5965157   9.5166582  35.6397128
  82.9806900   9.8808223  36.9735551  75.5739689  40.6041813  36.1652565
  76.0265398  40.0871038  35.4988933  76.1440468  40.5574417  36.9327545
  26.1867499  74.7222185   7.8544086  27.0925307  74.8552704   8.1338549
  26.1114001  73.7763214   7.7285945  84.8390102  19.1223609  18.4880853
  85.1220226  19.4699264  19.3338573  84.5139980  18.2441962  18.6866522
  73.2488298  79.7232771  22.0473599  72.9051399  80.2874947  21.3547087
  74.1553068  80.0088882  22.1612072  11.5662456  65.6299333  -0.0501098
  11.8437935  64.9736861   0.5890570  10.6160332  65.5268339  -0.1020421
  86.6524315  67.9057026  51.4417744  85.7338619  67.7913284  51.1980915
  86.6663837  67.7773809  52.3902273  20.6727433  17.6225686  43.3459330
  19.9968290  17.5665903  44.0213871  21.1546111  16.7988670  43.4204483
   2.7015516  38.0394650  18.4602046   2.6238567  38.8602614  17.9739022
   3.5068056  38.1374311  18.9683390  84.4987488   8.3864838  41.3790655
  85.0988674   8.5127974  40.6441307  84.6834850   9.1183734  41.9676542
  27.2664833   7.9004598  53.0748320  27.8933787   7.4512011  53.6417532
  27.7415729   8.0399823  52.2556543  86.5835762  19.1412163  29.7929859
  85.8039188  19.1483009  30.3482461  87.2040653  18.5803819  30.2584934
  14.4413078  21.9687819  51.0323095  14.0830553  21.1338854  50.7309198
  15.2983427  22.0280194  50.6101513   7.4658638  48.0461693  15.1063144
   7.6785600  48.1360722  14.1773844   7.9585630  47.2766399  15.3914547
   1.6254392  26.7404485  19.7091663   0.9768081  26.0816622  19.4611526
   2.3036885  26.2470174  20.1704001  90.8286476  19.2308855  43.4737158
  90.6626129  19.5824015  42.5990152  91.2491703  18.3855414  43.3162737
  41.6976976  10.4358149  57.3189592  41.0156298  10.5819905  57.9744339
  41.9003153  11.3097405  56.9851446  65.3571749  17.9139161  51.7161417
  64.8383713  17.4799287  51.0388470  65.4310274  17.2636926  52.4147034
  87.6427555  40.5542850  64.6446753  87.5533009  39.6075082  64.5358372
  87.5101185  40.7013035  65.5811739  89.3867016  46.6464329  22.3002696
  90.0784206  46.9497776  21.7122698  89.8522758  46.3284588  23.0738163
  88.6257172  45.9900665  40.2472830  88.5088825  45.0456858  40.1436996
  88.7527561  46.3148832  39.3558860   0.8651218   5.2045554  36.4325762
   1.3209502   4.5230338  36.9265199   1.0481136   6.0117823  36.9133353
  14.6279120  66.4105129  28.3852410  15.1972067  66.3417053  29.1516614
  14.9802458  65.7703686  27.7669263  12.6835775  30.8741164  52.7274323
  13.5472953  30.7240009  53.1117344  12.1690130  30.1105833  52.9891014
  58.2853651  60.3830099  56.4519072  57.3593187  60.5706739  56.6050386
  58.6752081  61.2371397  56.2655830  85.9464836  28.6670709  41.2744665
  85.0216961  28.6888576  41.5204763  86.0155773  29.2858958  40.5474758
   4.9939495  25.3144932  18.4929609   5.1441103  24.8712778  19.3279719
   4.3372923  24.7763705  18.0508566  58.8683414  77.4427652   5.4926938
  58.0583048  77.8698158   5.7714415  58.6611557  76.5082836   5.4998046
  15.2458942   2.5584167   3.8153002  14.8023641   3.1926364   3.2520258
  15.9950066   3.0365863   4.1708487  19.5268059  37.4863076  18.7644327
  18.5794127  37.4843836  18.9010847  19.7737801  36.5617681  18.7859607
  78.4424257  43.0603218  36.0340595  79.3455410  42.9864407  35.7255864
  78.1738901  42.1580219  36.2071896  11.7436874  39.6131039  44.9430466
  11.4378595  39.5981216  44.0361404  12.6645434  39.8669147  44.8811197
  83.8486767  41.1249399  22.2706580  83.4727669  40.2588129  22.4279547
  83.7951660  41.5667629  23.1181026  68.4421110  25.6946206  53.0939293
  68.4529114  26.6378689  53.2563925  68.9695263  25.3236794  53.8013649
  24.1696692  38.6571789  54.9970484  24.2355657  39.1095853  54.1560888
  24.0535092  37.7358460  54.7649193  85.7940483  76.3038445   8.6508685
  85.8133602  76.5692234   9.5703429  86.4989567  75.6610727   8.5722423
  32.8752875  27.7150846  73.5560703  32.7199697  26.8237400  73.8685036
  33.8197374  27.8402066  73.6487484  46.5651226  31.0643196   8.6311769
  46.6588593  30.1283073   8.4541875  45.6194735  31.2067819   8.6722636
  72.2818613   2.3352493  29.1357279  73.1939745   2.1181661  28.9429665
  71.8297338   2.2355548  28.2979512  24.6880698  69.1509151   8.1451559
  23.7385631  69.0584517   8.2233840  24.8433685  69.2400789   7.2048563
  77.9055309  28.7190199  69.4485855  76.9625044  28.7665582  69.6056890
  78.2523060  28.2556963  70.2110195  33.6601853  22.4112749  73.9509630
  32.7931476  22.1768498  74.2819071  33.5567260  23.3030224  73.6188316
  75.0018883   3.9124116   0.8202280  74.9871922   2.9635376   0.9453438
  74.4566774   4.0605864   0.0475562  13.7706077  17.5834215  20.4500508
  13.8895285  18.5314381  20.5079627  13.0431569  17.3965931  21.0434675
  17.1148312  14.4759965  71.2499714  16.9536209  13.5560668  71.4596653
  18.0577409  14.5876086  71.3711977  46.8795204  75.8160400  26.4741898
  47.3378658  76.0388565  27.2844386  47.5535583  75.4269648  25.9169412
  58.4657907  61.9095898  32.8912139  58.4431362  61.0744905  32.4239612
  59.2079926  61.8288136  33.4902501  83.2990265  42.8204346  24.4213200
  83.2790565  42.8824663  25.3762984  83.0736732  43.7003708  24.1193819
  38.3564687  74.0039730  15.6774032  39.1403866  74.5101547  15.4641318
  38.5843444  73.1024551  15.4502988  14.8955512  60.4893017  39.3572855
  14.7982562  60.5911636  40.3040648  15.8171678  60.2618504  39.2343187
  44.7058773   9.7509211  65.0416327  43.7867355   9.9058342  64.8238754
  45.0673628  10.6246901  65.1902485  78.6507750  25.6050396  74.0607977
  77.7648783  25.2659011  74.1888762  78.9062071  25.9386253  74.9208593
   7.4736744  59.5999956  68.4981203   7.1187556  60.3854561  68.9144325
   6.8225765  58.9207315  68.6739159  43.4459925  61.9911718  10.5309260
  43.3695507  62.8207159  10.0594950  43.1503582  61.3311815   9.9038327
  27.6591897  51.1166811  62.6165867  27.1606612  50.4203939  62.1889353
  28.2727718  51.4181280  61.9466019  21.2042642  39.7916389  69.1866922
  22.1006799  40.0869131  69.3463326  21.1500049  38.9426804  69.6255112
  21.5822482  33.6907196  58.6655426  22.5308657  33.5813618  58.5992193
  21.4346528  33.9563894  59.5732117  30.8241725  35.8525085  69.9631548
  30.6461740  36.3067579  69.1396236  31.3367677  35.0855494  69.7077084
  19.7317135  75.0206137  73.5670042  18.9189446  74.9518204  73.0660963
  20.3723454  75.3549719  72.9392862  29.7899961  51.6203547  11.8046999
  29.0265632  51.5140486  11.2371635  30.3957915  52.1567345  11.2932885
  43.0989647  16.5372002  25.9473848  42.1511984  16.4077353  25.9126234
  43.2385778  17.0770693  26.7253828  39.2199850  23.3970308  36.0213161
  38.4210324  23.5836816  36.5143323  39.1739607  22.4588943  35.8368874
  91.4733505  12.2717679   8.9933068  91.9540024  12.7397144   8.3104908
  91.2504578  12.9465306   9.6345896  59.1010094   9.6681470  39.6195149
  59.5607901  10.4105926  40.0114393  58.6044312   9.2851388  40.3426647
  76.5300226   3.2398790  10.0951457  77.1617508   3.9581272  10.0594401
  76.8834019   2.5802058   9.4983327  88.8438320  15.7524741  57.9839325
  88.3133030  16.3854361  58.4677935  89.6737957  16.2037456  57.8298044
  65.3734016   4.0100688  35.3946710  64.8054504   4.6847835  35.7667208
  65.4935598   3.3797595  36.1049557  28.9982319   1.6396405  21.3464785
  28.3966017   0.9200464  21.1555386  28.6263728   2.3914999  20.8853269
  24.8606324  78.8872337  40.9757614  25.1974225  79.7825956  40.9420729
  25.3138280  78.4886694  41.7187214  45.1038742  64.4656324  15.7194185
  45.4466724  64.4517088  16.6130221  45.8694792  64.6396542  15.1718771
  53.6863899  84.4544506   9.2911637  54.6237183  84.5311165   9.4694167
  53.3218575  84.0687466  10.0877678  40.0005722  84.0751362  37.9617786
  39.3139553  83.4176254  38.0734348  40.4007816  84.1529560  38.8278103
  11.1451602  49.2893791  65.3048897  10.7062626  48.6809540  65.8993769
  11.6605151  49.8556805  65.8792973   9.8280513  38.2157493  61.1662054
  10.5545151  37.6927638  61.5052748  10.0845408  39.1217971  61.3380289
  24.0591168  60.2649593   2.0888801  24.1922164  61.1764669   1.8287557
  23.8113022  60.3131199   3.0121896  69.1217136  19.4874096  17.8735697
  68.4406519  20.0989771  18.1535268  68.7716103  18.6233485  18.0905008
  29.1028690  46.2976456  67.6238012  28.6108804  45.8823204  68.3320999
  29.8989725  46.6231108  68.0439472  51.5050697  48.4445572  20.1725292
  50.6467628  48.7192535  19.8499203  51.8757868  49.2332602  20.5684447
  36.0620689  51.1185503  73.3233261  35.9234595  50.8318472  74.2259979
  36.2341475  50.3109074  72.8392458  43.9510632  75.2920723  19.6066833
  44.0407419  74.4467878  20.0467706  43.7130356  75.9017134  20.3051925
  42.2246647  72.1220636  54.6021080  43.1333828  72.1079206  54.3016672
  41.7283916  72.4427748  53.8490534  83.8345337  38.8580728  55.5025816
  84.4701195  38.3842611  54.9661493  83.5425663  39.5801830  54.9462128
  21.7842031  63.9436960   5.4460305  22.4284601  64.5042372   5.8784163
  20.9477568  64.3871546   5.5872250  76.6557121   8.6129218  34.6460986
  77.1166134   8.0518407  35.2697849  76.5333080   9.4396698  35.1127195
  10.9981716  70.5936241  23.5983729  10.4421878  69.8952818  23.2527757
  10.3878069  71.2008810  24.0166092  79.1847372  80.7024574   4.1017789
  79.0192032  81.5797520   3.7565595  79.6323824  80.2454185   3.3897665
   5.6413186   3.6195493  34.7328901   6.1717021   3.4553283  33.9531732
   5.2782792   2.7635485  34.9602580  11.1778212  33.3398080  26.5082812
  11.9309223  32.7492738  26.5267563  11.4600492  34.0707541  25.9584665
  25.3309250  82.1784782  15.9484136  25.2449632  81.2335396  15.8221877
  25.5214763  82.2791767  16.8810344  40.9661865  73.5876560  30.9792638
  40.9146404  74.4012594  30.4776406  41.8896818  73.3392143  30.9384489
  54.7040844   7.3084074  11.0131025  55.1764727   7.0687598  10.2158260
  55.2641439   6.9996482  11.7253041  83.9321518  78.0378008  24.4527888
  84.7190380  78.4622288  24.7947025  83.4702969  77.7267265  25.2313447
  29.4511914   2.9936960  61.8076563  29.0400410   2.8480658  60.9556150
  29.7455716   3.9040568  61.7790794   5.9559858  53.5476065  55.0628996
   5.2592754  53.1998491  55.6195784   6.7600167  53.3863974  55.5566359
  23.6129761  29.3955541  66.6624022  23.7072992  30.1224566  66.0468149
  23.3262825  29.8075819  67.4774313  56.0977411  80.0710106  50.2241182
  56.9281816  80.4850197  49.9891949  56.2626314  79.6710062  51.0779572
  25.0651884  66.7129707   5.8037549  25.5709124  66.0065985   5.4018724
  24.6012759  66.2932301   6.5282077  40.2660036  54.5435905   5.8331692
  40.9414625  55.1486254   5.5267137  40.6733704  53.6794806   5.7731390
  15.0822628  74.6538687  37.3036957  15.4882336  73.9072800  36.8632126
  14.1443288  74.4640970  37.2813773  67.2076464  19.2841780   5.2136099
  67.9713583  19.6630430   5.6488532  66.5620279  19.9908113   5.2046156
  26.3444614  39.7742486  34.5250320  25.6297660  39.9779320  35.1283193
  26.8585110  39.1067362  34.9793553  89.2173290  66.1904335  39.0751481
  90.1459885  66.2548304  38.8522911  89.0665054  65.2541304  39.2048478
  25.8933353  66.9527149   0.5258875  25.6254363  67.4753714   1.2817255
  25.2033758  67.0969391  -0.1217143  67.7481413  50.3088236   0.6123828
  68.0405045  51.1887217   0.3746156  68.1225109  49.7417116  -0.0617551
  16.8101239  41.2031555  73.1558752  17.4268293  40.6311464  72.6990271
  17.1785629  41.2998390  74.0340185  22.9322672  63.7894535  14.1118741
  22.5009966  63.6984158  14.9615502  22.4923205  63.1511927  13.5503602
   5.9138989   7.5501829  15.3089023   5.1825958   7.6832741  15.9119892
   5.9402817   8.3503056  14.7841752  63.9522314   3.3773616   2.1846867
  64.7185135   3.5234794   2.7393892  63.5882330   4.2513978   2.0439863
   8.9497250  40.5537176  67.1674442   8.4823114  41.3075304  66.8075514
   9.7795475  40.5364895  66.6906548  32.0476961  41.3432074  57.8577423
  31.3924098  42.0002127  57.6228523  32.7276874  41.8365002  58.3165503
  41.1522055  65.8880949  20.8650756  41.4250946  65.7764721  19.9544144
  40.6780529  66.7195702  20.8728242  77.7415800  73.8305283   7.5646132
  78.1836367  74.2855215   8.2814091  77.7534628  72.9088020   7.8225183
  16.5320075  73.9978790  69.2377090  17.4881160  74.0004492  69.1920948
  16.3235343  73.2961798  69.8544741  53.8721943  82.2126007  26.3104272
  53.5092354  82.1491909  27.1938705  53.6599779  83.1020832  26.0275698
  56.3793373  79.6134949  11.6759384  55.7641172  79.1832066  11.0821450
  56.9151974  80.1657581  11.1066484  85.9349537  61.7173386  33.4379244
  85.7231712  61.9679403  34.3371344  85.1808834  62.0072842  32.9245615
  21.9258356  45.4841280  39.1100621  22.6807117  44.9132919  39.2533875
  22.1059108  46.2579298  39.6439505   6.6785449  10.5417478   3.3208123
   6.8238431  10.7371604   4.2465198   5.7512993  10.7320166   3.1785268
  51.9471550  15.1679540  70.9458256  51.5554285  15.8072209  71.5409088
  51.2079382  14.6445787  70.6362009  40.8164692  81.4997959  50.1846695
  40.4844379  82.3433113  49.8773289  40.0307751  80.9768105  50.3440762
  83.8267517   6.3366276   6.6334981  84.6486378   6.3550639   6.1431944
  83.5602474   7.2543097   6.6888505  27.8446579  65.0195265  27.6347685
  27.7130342  64.7867393  28.5538530  28.4671187  64.3690538  27.3097134
  36.8478155  26.4189601  12.6547110  36.2307739  27.0966148  12.9308867
  37.7026868  26.8488431  12.6797569   0.1411321  22.9675770  70.4117298
  -0.1232359  23.8497043  70.6728745   0.9590223  22.8128910  70.8843279
  57.5345802  36.9971919  49.2236423  58.1970835  36.5702915  49.7668552
  57.1690178  37.6810312  49.7848558  13.5161030  10.7581067   0.7757251
  14.0948367  11.3781559   0.3320612  14.1052806  10.2072084   1.2911010
  32.0886755  17.0174527  53.3824205  31.2503219  17.3753357  53.0903339
  32.6833534  17.1706545  52.6481771  44.3184900  23.9388919   9.4242781
  44.3221474  23.2350302  10.0729656  43.7012625  23.6442399   8.7546194
  34.5209670  15.7838309  30.3730655  34.8198557  16.6520262  30.6435013
  33.7146068  15.9495068  29.8846364  15.4456379  39.2122026  74.6386779
  16.0671617  38.6079164  75.0445993  15.9770729  39.9658628  74.3821503
  39.0016651  67.5118637  73.6090326  39.1632366  68.1557226  74.2986536
  38.6992884  68.0303288  72.8633785  45.2865171  57.0801497  20.4736137
  45.5645418  57.1866417  21.3833380  44.7601700  56.2806606  20.4760480
  86.6623402  63.5419273  36.4974070  87.2650433  63.0130911  37.0202017
  85.8319092  63.4975863  36.9713831  87.1952915  31.0009837   3.4868491
  86.7960167  30.5228043   4.2135906  87.0720959  30.4303789   2.7282548
   5.5657864  17.9876006  25.0599527   6.1691052  17.5185657  24.4835448
   5.3897351  18.8105047  24.6038079  21.7522883  15.3288674  34.8933220
  22.2445798  14.5252752  34.7256279  22.3222852  15.8442545  35.4640341
  74.6901941   3.7620100  12.0511723  75.4373264   3.4957755  11.5153146
  74.7132397   3.1717873  12.8043902  78.2135725  47.7416706  48.6394358
  78.0026627  47.0449066  49.2609358  79.1648579  47.6968288  48.5431051
  19.3284082  77.3975277  64.1465664  18.6508191  77.3387957  63.4730291
  19.6721745  78.2870054  64.0635538  86.5637493  41.0203600   7.0415229
  86.2147713  40.5274248   7.7841270  87.2434139  41.5769482   7.4216574
  56.0631943  10.2600288  41.1382389  56.9077730   9.9778217  41.4893436
  56.2879705  10.8352160  40.4068947  52.4438667  46.1727571  71.3394594
  52.3033619  47.0924425  71.5645647  52.8407145  46.1972284  70.4687405
  26.3353801  84.6269226  22.8125191  26.6867042  85.3288174  22.2646594
  26.9159245  83.8833046  22.6505780  83.0305386  16.5734780  62.3445129
  83.0159473  15.6540728  62.0785952  82.9323483  17.0609546  61.5266132
   3.2504371  48.8939095  55.7624817   2.8293213  49.2480326  54.9792242
   3.9265513  49.5350838  55.9815598  81.5602779  16.9060719  31.3048005
  81.9460487  17.4890590  31.9586635  80.6352997  17.1512330  31.2813163
  60.8295584  68.2185984  16.2400377  60.0926161  67.7108002  15.9004974
  60.6100416  69.1270161  16.0331082  27.3615885  64.0469170  54.7214031
  27.4984145  64.2919016  55.6365490  27.0440984  63.1447220  54.7598743
  21.1472392  62.5343370  22.5667548  21.3488269  62.1795416  23.4326172
  20.3886437  62.0304060  22.2721004  63.9999962  63.1282139  52.9805422
  63.3858585  62.8608227  53.6643267  64.1600180  64.0562582  53.1518888
  73.5438824  11.4246356  18.0938900  73.0777740  10.9963048  17.3758996
  73.4721136  10.8115959  18.8255072  34.5623684   5.9856898  25.7167745
  34.8377514   6.5753001  26.4187407  33.6227989   6.1442178  25.6256151
  43.5405970   2.5330234  69.1728067  43.0754757   2.9431465  68.4436274
  44.4614601   2.5556681  68.9125633  83.0661774  43.1256723  64.7434759
  82.6947498  43.9344168  64.3910456  82.5434589  42.9422998  65.5240965
  17.2277343  16.7077851  10.3142607  17.5966454  16.6084445  11.1919093
  17.9870856  16.8558180   9.7506088  88.1677628  20.6756997  12.3251081
  87.3717213  21.0943460  11.9975770  88.8747978  21.0774708  11.8202102
  20.0153494  54.3813515  56.8469858  19.6598577  54.8405266  57.6079178
  20.0749469  53.4673786  57.1250629  20.1421976  13.3329356  73.5872698
  19.9751246  14.0179968  72.9399633  20.7448554  13.7358618  74.2123222
  52.1132946  81.8496227  18.9031661  51.4249229  81.7547607  19.5614803
  52.9020357  82.0473671  19.4081593  44.9354506  47.0590496  66.5804863
  44.8020077  46.7947721  67.4907541  45.8560228  47.3179579  66.5387440
  70.0116730  27.1515226   0.9033306  69.5828199  26.7075324   1.6348998
  70.8544254  26.7065501   0.8139203  53.1579113  13.9203727  16.0430241
  53.4333611  14.6777642  16.5594697  52.4943686  13.4908652  16.5828979
  71.9154355   2.0577561   0.1735602  72.8175208   1.7811762   0.0123845
  71.9045993   2.9864012  -0.0582399  24.2594481  22.4728632  14.4217217
  23.7611079  23.1806350  14.8303115  25.1704454  22.7627373  14.4695950
  80.8553314   4.8086005  25.2362132  81.0857105   5.3870678  24.5092130
  81.6054535   4.2200792  25.3209949  79.8448753  10.5823636  14.3799925
  79.6336126   9.6797484  14.6185040  80.7989311  10.5927563  14.3031466
  70.8823395   6.5464878  44.3905449  70.7229519   7.4570799  44.1422510
  71.3376904   6.1691868  43.6378622  72.6687956  75.3180170  19.2166984
  71.8652630  75.6521368  18.8180327  72.9006433  75.9739161  19.8741734
  75.1037836  39.2454028   3.0364174  75.6410694  38.5104537   2.7407739
  74.8185921  38.9953279   3.9152563  70.9944344  83.4663868  18.6248767
  71.7575836  83.8249302  18.1718075  71.2874556  82.6155376  18.9511168
   4.4978714  30.4037189  61.0016918   3.6040175  30.7281208  61.1113310
   4.3918782  29.5388985  60.6053543  52.6589251  68.1614351  11.8360865
  52.9209805  69.0818834  11.8541098  53.1412697  67.7608681  12.5593567
  62.7710295  20.8730435   6.8865281  62.5682640  20.0656199   7.3589557
  63.6501789  21.1092949   7.1823531  26.9379044  23.8177586  17.5294805
  26.4740586  24.6460032  17.6523185  27.0420456  23.4680343  18.4143972
  29.8130250  30.7736325  11.7406476  29.3855906  30.0922251  11.2217855
  29.2960548  31.5616798  11.5734577   6.6598630  47.6228762  54.2122746
   7.2999126  48.3328724  54.1625786   6.7135429  47.3149061  55.1169872
  16.4829791  26.3629866  10.0529206  15.8630753  26.8638253  10.5831194
  15.9378898  25.7417512   9.5700377  87.4963951  19.3461859  16.9381654
  87.5143051  20.2736020  16.7019188  86.6946888  19.2451775  17.4512935
  20.4913974   4.4915330   4.9168855  20.9928036   4.4495174   5.7311696
  20.3731036   5.4277539   4.7564846  13.4440792  69.6745586  18.4629619
  14.0242136  69.2633533  19.1037333  13.7639427  69.3636417  17.6160550
  80.3333855   2.2296962  20.2440405  80.0677204   1.3293171  20.4310513
  80.1645660   2.3397794  19.3082976  70.7076216   8.1917602  33.9701843
  70.4151773   7.3122656  33.7310243  71.3128757   8.0530858  34.6986556
  22.9325056  74.0476942  73.4259939  22.4044275  73.3452034  73.0466890
  22.7564788  73.9990330  74.3656111   9.3026435  53.6096287  53.1855059
   8.5413444  54.1847992  53.2619190   9.6976173  53.6179972  54.0573740
  29.1981006  35.5773568  52.3811436  29.3927383  35.3390360  53.2875395
  29.6153879  36.4306664  52.2629642  50.4445887  70.1040936  55.0305128
  49.8019791  70.8113766  54.9753952  51.2076283  70.5056143  55.4461861
  50.6762648  80.8882141  21.5674353  50.2972412  81.6782475  21.9526863
  51.3780880  80.6410885  22.1696019  18.4552431  40.6627417  57.1730137
  19.0679824  40.2649117  57.7914953  18.0578876  41.3844967  57.6602602
  36.7795229  25.4099178  42.4368572  35.9074593  25.7868314  42.5537968
  37.3608375  25.9964871  42.9208422  36.6342473  24.4040895  55.3742123
  37.1849561  24.2598200  56.1437178  36.8693852  25.2815390  55.0725079
  91.0850048  50.6048250  45.6745911  91.9309521  50.1633930  45.5988312
  90.5494308  50.2165604  44.9827528  51.1646032  46.6010094   3.7972292
  50.4336166  46.0848331   3.4574503  50.7500505  47.2932339   4.3122137
  60.6312227  39.5482516  40.7888460  60.7704592  38.6128402  40.6410217
  61.5127707  39.9106002  40.8771992  21.0616374  45.6344557  65.4724360
  21.8113065  46.2261677  65.5364990  20.6070900  45.9091091  64.6760798
  75.6552505  21.6482830   5.8026999  74.8005486  21.7783928   5.3918654
  76.2779474  22.0369649   5.1883668  27.6388669  72.3670721  73.5612822
  28.3795810  72.9682398  73.6398602  27.7617741  71.7410088  74.2748404
  80.6580993   9.7946821  -0.0306215  81.4221045   9.2181955  -0.0169076
  81.0200879  10.6745897   0.0740729  24.7607946  55.6101131  22.2549105
  24.5872498  54.7190380  22.5583935  24.1826820  55.7230234  21.5004134
  28.2142568  18.9424372  57.5374079  28.7411642  19.7155404  57.7396774
  28.0630755  18.5268259  58.3863115  50.7206297  67.7091599  26.0082078
  49.8773575  67.9550743  25.6278777  50.5151033  67.4697495  26.9119072
  72.4065685  37.4063206  19.2928898  72.1441174  38.1513834  18.7523043
  71.8993998  36.6707611  18.9494276  81.7968941   3.8753515  17.6952827
  81.6027164   4.1706800  16.8057275  81.5580654   4.6169615  18.2513499
  65.3527069  76.0074472  33.0266261  65.3915596  76.6835213  33.7031245
  66.1965704  76.0678720  32.5788856  86.6336918  14.5227003  17.7259433
  87.2268486  13.8990188  17.3071063  86.6400337  15.2850366  17.1471190
  79.4912958  23.3786416  18.5603774  79.1005135  22.7374649  19.1540205
  80.2018738  23.7720585  19.0668643   0.9093060  49.9203062  53.6967993
   0.2169058  50.4657888  53.3236170   1.6826667  50.1210642  53.1696939
  59.3109894   4.7112980  37.4867105  59.1471720   5.6429714  37.6329350
  58.6521435   4.2657876  38.0193233  78.1249094  54.2360640  74.0467405
  78.8993883  54.5519161  73.5812807  78.3340216  53.3295774  74.2720985
  86.6117668   9.5597476  29.0599370  87.3141289  10.0055146  28.5864258
  86.8404102   9.6660542  29.9833298  37.2753382  63.1572485  47.5522280
  36.4651680  63.0212402  47.0609474  37.0064473  63.6545706  48.3246279
   9.7795475  42.6538849  53.8129520   9.8195171  42.7807045  52.8650331
   9.9610704  43.5197926  54.1783094   4.1172847   6.0463208  34.1820264
   3.2195774   5.7473725  34.3268824   4.6520251   5.2598029  34.2900729
  82.5718403   6.1686713  12.2047889  82.0566463   5.3745419  12.3467946
  83.4817410   5.8740729  12.2439587  88.4009266  41.8046904  59.7181940
  89.0553856  42.1016121  59.0859270  88.8007736  41.0422850  60.1366329
  27.9743505  13.0830693  12.0858693  28.3118439  12.1919978  12.1770883
  28.3362532  13.3924198  11.2554717  75.1714516  71.3884354  41.4047241
  74.8533869  70.6739902  40.8527899  75.9808159  71.0518980  41.7893171
  27.5621414  54.5214128  71.2392998  27.8565955  55.3637791  71.5856266
  26.8304849  54.7419882  70.6628799  26.5458679  29.2440248  63.7803936
  27.2788215  28.6300468  63.7351847  26.4993119  29.6263719  62.9041100
  78.8870668  83.2652760  32.1681881  79.0383959  82.3231220  32.2435045
  78.0428934  83.3374119  31.7227674  76.1585808   6.4853328  23.4111619
  77.0333433   6.3294959  23.7671661  75.6340694   6.7436218  24.1690588
  76.4178276  13.1040502   6.5355146  75.8841467  12.9989648   7.3231512
  75.7848358  13.1200171   5.8176714   2.8821427  73.4912586  53.5533333
   3.5427925  73.6388397  52.8765821   3.0778152  72.6178694  53.8926554
  80.8174419  30.5341196  70.4662514  81.5811157  31.0049081  70.1325083
  80.0741386  31.0940957  70.2422714  27.5313377  85.3819561  74.0136862
  26.8137121  85.8933926  73.6399603  28.3062577  85.9298229  73.8888931
  70.1005173   5.4109466  55.7139730  69.6054983   4.6312270  55.9654236
  70.3912497   5.2320164  54.8197222  65.3522301   5.9973508  72.6971722
  64.8092842   5.7844251  73.4561872  65.1963806   5.2803344  72.0824909
   3.4190881  14.9228406   7.4587041   3.9774767  15.5337834   6.9778889
   4.0101466  14.4948947   8.0781746  90.8043671  46.7731953  50.5895233
  90.0094891  46.4664936  50.1532364  91.1972618  45.9810400  50.9560633
  37.7281070  82.7932644   1.9451134  38.6220336  83.0697441   1.7434153
  37.1733332  83.4442997   1.5154521   7.7835608  83.8827038  66.2360334
   7.3470372  83.3990192  66.9372654   8.7173903  83.7484550  66.3978052
  89.0102005   1.2516220  21.4982414  88.5873318   1.4655158  22.3299026
  88.3051586   1.2969704  20.8524227  88.5938549  24.2020392  20.8104563
  88.5306931  24.9518704  21.4020634  89.2789841  24.4452500  20.1878214
  25.2817822  58.8491440  54.5732832  24.6761942  59.3222809  54.0026379
  26.0923409  58.7918806  54.0673685  43.6567640  25.9333158  23.2517433
  44.2420053  26.1235571  23.9849067  44.2026663  26.0470939  22.4737501
   5.8024049  69.3671513  27.7668309   5.3425676  70.1769114  27.9883456
   5.9526163  69.4274044  26.8234134  23.1377769  82.9128647  27.7363300
  23.4106135  83.0559158  26.8300605  22.5936198  82.1261597  27.7013016
  79.1300106   7.7652287  42.8169632  79.5561409   8.2847446  42.1352386
  79.3653250   8.2038224  43.6345816  40.1926374  83.8425541  25.6331539
  39.4942784  83.4549236  25.1056457  40.7572269  83.1044579  25.8626938
  79.6613646  14.6934175  37.6660585  79.5600414  15.0038040  36.7662668
  78.9935637  15.1690102  38.1601071  14.4792318  82.4385357   6.9086236
  14.2419946  83.3611679   6.8153620  15.0668311  82.4174881   7.6639491
  21.9020438  45.8960247  35.5880380  21.9617224  46.5705729  36.2645388
  22.2057033  45.0970840  36.0189915  28.8060164  77.0871687  69.0139580
  28.6225057  76.1479568  69.0348053  28.4892035  77.4118805  69.8568201
   9.5856428   4.6962604  19.4165802  10.2275681   5.1019830  19.9992919
   9.1336620   5.4341215  19.0073049  69.8815250  14.5879471   2.4975452
  70.2741909  13.9683580   3.1124896  69.5748138  15.3091013   3.0471778
  46.1519957  50.3260660   1.4936565  45.6685877  49.8902655   2.1955317
  45.7075262  51.1665249   1.3827375  62.8911066   8.0499417  31.4304185
  63.1617594   8.9257085  31.1547184  62.2250843   7.7932191  30.7926559
  58.6347342   6.0255247  20.2319026  58.8836288   6.9254160  20.0210071
  57.8411770   6.1139637  20.7598042  53.8088751   1.4945427  40.9133291
  53.3630896   1.6628042  41.7435074  53.1155682   1.5426795  40.2551222
  10.0363469  49.3991852  59.2888880  10.4823208  49.4390631  60.1349068
  10.7259011  49.1719007  58.6651182  12.9810512  74.2191219  69.0352058
  12.8829610  74.2881298  69.9848652  13.6422706  74.8750734  68.8144207
  37.5585103  22.9718161  30.9347916  36.7196679  22.5107670  30.9374452
  38.1924677  22.3139954  30.6491327  67.5344753  85.2406216  31.9015622
  68.2945061  85.0966263  31.3377786  66.9791079  85.8423328  31.4058399
  33.3156061  24.5429444  71.6716433  32.4655890  24.1742802  71.4312553
  33.1600308  24.9763465  72.5108051   3.6485013  16.7390060  35.2351165
   2.8141344  16.5085137  35.6436968   3.7189844  17.6863778  35.3523731
  41.2325573  72.1351099  12.3099780  40.3476620  72.4370384  12.1049690
  41.7057419  72.9298735  12.5563216  77.3850775  53.1669331   9.7032088
  76.8079996  52.4070358   9.7791487  78.2629585  52.8171921   9.8556465
  60.7731295  49.1725445  15.4538834  60.2522707  48.4546947  15.8139253
  60.4490089  49.9527597  15.9038174  74.5195007  24.5625567   7.5753385
  74.9883795  24.6511722   8.4051162  73.8506603  23.8998675   7.7477556
  72.0261002  30.2351236  11.3505924  71.6289186  31.0538268  11.0535991
  72.3125076  30.4186106  12.2453177  24.6976185  49.7255611  58.4377956
  25.4895306  49.6383572  57.9072285  24.5088744  50.6639576  58.4339571
  64.5599365   3.6322868  14.9377465  64.9665833   2.8788343  15.3657413
  65.1832628   3.8864079  14.2572141   7.8091067  42.9342365  65.9568119
   7.4181020  43.8066959  66.0032225   7.0971131  42.3682356  65.6585836
  16.7464614  73.6835861  20.7954812  15.8799052  73.2844877  20.7178116
  16.6559577  74.3157864  21.5084767  19.1834128  30.1019716  27.6662326
  18.9615417  30.8312845  28.2451153  20.0701380  29.8515534  27.9255438
  20.4458070  30.3375864  31.0193014  20.2574992  31.0529447  30.4118180
  19.9589038  29.5915699  30.6691337  84.3138695  35.9605122  47.2883892
  83.7812233  35.2749705  46.8852139  84.9319267  35.4871726  47.8453398
   0.4941633   8.6201978  40.1534033  -0.4508612   8.5046428  40.0544214
   0.8714273   8.1622547  39.4022751  76.8204546  84.8262119  39.0288591
  77.6201200  85.0474930  39.5061493  76.1663771  85.4423141  39.3587518
  73.0207491  66.4336300   7.8231692  72.1837091  66.4062548   7.3596585
  73.2417107  67.3640871   7.8638089  24.1541767  45.1530600  28.2333875
  24.1414666  44.2738962  28.6117315  23.8071489  45.7164860  28.9250159
  25.9787726  50.4417562  27.8737640  26.0802984  49.8674440  27.1147585
  25.5327106  49.9008465  28.5254383  88.6451626  12.4447739   6.1413062
  88.5062313  12.7423203   7.0404148  88.4919930  13.2228053   5.6051737
  35.8699369  79.9876261   7.7759260  35.7581592  79.1019869   7.4304128
  36.2602830  80.4791546   7.0532531  72.7497530  42.6918888  73.8506413
  73.3326817  43.2055521  73.2915545  72.0683098  42.3741436  73.2582712
  15.4831350  83.0453491  62.8809690  14.5614278  83.0365658  63.1390572
  15.8825970  82.3438835  63.3953762  13.6393511   6.3806933  34.7376823
  12.7825439   6.6596681  35.0606179  13.6310530   6.6093272  33.8082266
  71.8995047  22.8475666  37.9890370  72.3712969  23.0887008  38.7862206
  72.4927330  23.0884624  37.2774982  89.6825790   6.6689909   7.9214430
  90.3780842   6.5574664   8.5695678  89.2358017   5.8226883   7.9015219
  64.3642235  69.7241163   9.7055221  64.8930216  70.4728842   9.9811149
  63.5908556  70.1140881   9.2980170   5.5269396  19.4869995  18.9766610
   5.8365309  20.3281856  18.6408186   4.9204159  19.1704118  18.3072340
   1.8204953  27.6524969  74.4894540   2.1705629  28.4061428  74.9645374
   0.8706571  27.7636953  74.5303776  30.5780983  59.0369558  47.3906231
  31.3856006  58.7485933  47.8160858  30.0404096  58.2468796  47.3367882
  38.2279921  21.9453669  19.1772664  37.6601195  22.1951818  18.4483314
  37.7113867  21.3138604  19.6778154  38.3316255  35.4949522  70.2722073
  38.8244963  35.0845909  70.9827852  37.4138999  35.3496003  70.5021811
   7.7478051  31.8040013  11.8789792   8.2527792  31.9964552  12.6690388
   8.2756025  32.1607304  11.1645532  86.6135502  22.3897672  29.1861081
  86.2125397  22.4069548  30.0550890  87.0048428  21.5187001  29.1200829
  19.8846781  66.0712051  68.1906128  20.4729962  65.4765368  67.7253389
  19.0064573  65.7664204  67.9624319   3.4000859  54.5566416  57.5779724
   3.4346980  55.4130840  58.0040503   3.0228275  53.9755917  58.2384920
   3.5263065  36.3401031  35.5902243   3.0809668  35.8234978  36.2618089
   3.8539836  35.6914854  34.9672031  89.5960045  55.8174181  35.5868769
  88.8863087  55.1751423  35.5929136  90.2924156  55.4000950  35.0798368
  20.2704668  84.5429134  58.6856747  20.6145692  84.2181778  57.8535843
  20.6334233  85.4248810  58.7670994  80.5459595  25.8040619  41.6522312
  80.9872818  25.1118755  41.1599493  80.7716942  26.6097903  41.1873913
  16.9406819  64.3517447  73.9248466  17.8653407  64.1096926  73.9763117
  16.6899896  64.1495752  73.0234480  73.6846733  12.9657829  25.5478573
  73.9522219  12.0841002  25.2884626  74.4990349  13.3964491  25.8078122
  21.3364816  56.5954351  46.1061001  21.1938858  56.8834352  47.0077419
  21.1729050  57.3759222  45.5766582  10.1464117  14.3772030   1.2541758
   9.4861460  14.8372495   0.7358728   9.8491806  14.4718146   2.1591255
  70.4221678  50.7297230  22.8982377  69.8836088  51.4289570  22.5277495
  69.7920275  50.1195049  23.2813644  14.6640456  69.4385529  64.3793631
  15.1974344  69.9760485  64.9648809  13.7616754  69.6255255  64.6382093
  80.2401733  15.6105304  14.6345389  80.6830978  14.9911392  15.2145410
  80.3721714  16.4631820  15.0490189  30.3886652  50.6796741  22.2559381
  30.6002688  49.9990273  22.8948259  30.8560395  51.4545918  22.5678658
  91.1225510  55.1053143  49.3685293  91.2469387  54.1806889  49.1544628
  90.3401375  55.3611040  48.8800383  73.9254713  61.4974928  29.0776873
  73.5234451  61.6568995  28.2237577  73.6042452  60.6336308  29.3361354
  10.7480979   5.7131511  14.4586623  10.2112865   6.4982474  14.3505478
  10.8432591   5.6166887  15.4062235  16.8843794  50.8375883   7.2300839
  17.6204896  50.2990341   6.9396901  16.3800144  51.0033703   6.4336139
  81.5751743  55.7535982  11.2589121  81.6245651  55.6199169  10.3123808
  80.7090378  55.4266548  11.5021074   7.1044672  39.6547127  20.2663255
   6.6683811  39.4829941  19.4317162   7.8191030  40.2517414  20.0447822
   9.1134989  11.4817691  24.3584371   9.9293786  11.1011922  24.0332699
   9.2697805  11.6211879  25.2924442  53.1751251  15.6063223  13.4437084
  52.2246504  15.4975915  13.4753788  53.4745550  15.3515911  14.3164563
  70.6506681  39.8640656  12.1223557  70.8540821  39.0405846  11.6788089
  69.8595858  39.6751976  12.6270866  56.3702059  65.5761909  15.8204031
  56.2102842  66.3824844  16.3108540  56.9827461  65.8326769  15.1310241
  78.7585592   5.4544461  67.3048782  78.2605934   5.4497594  66.4874172
  79.0775967   6.3532758  67.3858356  23.5799861  52.7024174  58.5271120
  23.1819892  53.1104183  57.7581072  22.9842329  52.9139996  59.2458248
  13.9663815  47.0156908  18.0226755  14.5173573  46.2495947  18.1831574
  13.3800495  46.7452383  17.3160625  17.5562131  86.2207699  57.8882790
  16.7059255  85.7817078  57.9100132  18.1901538  85.5235481  58.0563068
  68.3992004  47.6744938  73.2025480  68.2284641  47.1458864  73.9820719
  68.4839582  47.0362806  72.4942207   4.3503767  71.6335583  28.2916474
   4.2303577  72.5662661  28.1130910   3.5627383  71.3783598  28.7719941
  38.0816657  61.7626943  73.9464845  37.6535685  61.5479506  73.1177201
  38.0298776  62.7168418  74.0026336  87.4562645  33.5751748   3.6241895
  86.5228558  33.7563682   3.5140061  87.5015545  32.6296806   3.7663999
  48.1408691  84.1480637  42.7249813  47.2112846  84.3138790  42.5680923
  48.2208157  84.1156292  43.6782837   2.9524538  12.7215266  15.4997015
   3.9094102  12.7035093  15.5116045   2.7321512  13.6391318  15.3393888
  82.7102184   0.7354584  45.6917238  81.9969845   0.2846599  46.1437321
  83.4796429   0.1898083  45.8544302  10.0196648  36.7723656  31.6294289
  10.2493477  35.8869743  31.9114947  10.3223383  37.3365164  32.3410153
   7.8452909  53.0572128  50.9262514   6.9814390  53.2102776  51.3090849
   8.4575772  53.2208347  51.6435814   4.0560952  37.3292542  69.3024826
   4.3222505  38.1746006  69.6641207   3.9287668  37.4975514  68.3688354
  64.2559481  82.4018288   1.3731152  63.5991907  82.8492260   0.8395125
  63.7467575  81.9133186   2.0198876  91.0751057  35.6102204  26.9990134
  91.7645073  35.7543945  27.6472187  90.8287811  36.4894462  26.7117476
  84.7018623  23.0958486  15.8349693  83.9116859  22.8291368  15.3651643
  84.3815422  23.6479640  16.5482688  12.1518493  36.5264606  45.4336119
  11.5578592  36.6929054  46.1655283  12.0072353  37.2601962  44.8361588
   7.4424833  66.0954714  70.1635790   8.3724332  66.3204288  70.1349831
   7.4239945  65.1421261  70.0797319  69.7315025   7.2499633   4.4521379
  70.6336355   7.0411354   4.2096990  69.8072672   8.0184293   5.0177801
   9.8045713  12.8664684  58.6031103  10.4808295  12.1944964  58.6889076
  10.0962734  13.4075224  57.8693533  60.3230381  25.1614165  38.3334136
  61.0689878  24.8907542  38.8687062  59.5698452  24.7294307  38.7362981
   3.0040589  65.6884098  44.5549011   2.3165059  65.0588846  44.7721624
   2.6895791  66.1223364  43.7617779   0.6575438   2.9974449  32.9642463
   1.1877431   2.2224018  33.1497955  -0.1851673   2.8164223  33.3805394
  67.8224707  70.0824976  26.9328618  67.5215626  70.1609278  27.8381443
  68.1551456  70.9531212  26.7147660  19.1210032  18.6766016  23.7728190
  19.2584538  18.0910647  23.0281806  19.8759258  18.5229254  24.3408918
  22.8395724  51.6732979  10.5487931  23.3334303  51.2642193  11.2594187
  22.8968954  52.6120615  10.7267463  25.3842664  85.1597881  55.5121660
  24.4862390  85.2150631  55.8388519  25.3036547  84.7275162  54.6619415
  81.6641903   0.2241415   4.8197651  82.3029709  -0.1369839   4.2051262
  81.7075062   1.1703618   4.6818438   6.2659574   0.7747156   4.4776300
   6.5649725   0.6461126   3.5774726   5.3855348   1.1394197   4.3877554
  11.5313995  65.7632017  71.2412024  11.6126573  66.1736345  70.3802872
  12.2896349  65.1821661  71.3020658   6.9806242   3.5909450  55.9649658
   7.2249836   2.6694050  55.8796120   6.4771301   3.7795630  55.1730347
  55.3679180  66.5573072  60.4518175  55.3981066  67.0633841  59.6399021
  55.7098961  67.1531773  61.1183167  48.5334539  65.3736925  49.7689009
  48.6004829  64.4615316  50.0512028  49.4411325  65.6619787  49.6727610
  75.8317137  74.2791653   5.5385202  76.6812372  74.2394543   5.9777945
  75.6935215  75.2108812   5.3681058  79.0077925   8.0553758  45.7318830
  78.3386803   7.3746103  45.8031225  78.6678648   8.7810433  46.2554169
   0.3654840  40.5395269   2.0618647  -0.3987048  40.2556372   1.5602197
   0.4269483  39.9108338   2.7810320  29.3780994  11.1518323  46.9885969
  28.4506464  11.3008296  47.1726131  29.3823814  10.4720962  46.3146734
  60.5764723  80.5058479  11.7452538  60.0063324  79.7964668  12.0418119
  60.6913805  80.3451347  10.8086658  73.2332420  85.8198357  24.9836373
  73.3066368  84.9656010  25.4092336  74.0850878  86.2324524  25.1262403
   7.5563246  80.6666470  64.3283749   6.9862896  81.4173031  64.1616297
   7.3149872  80.3731155  65.2069139  60.0753832  64.2210722  24.9519587
  59.7310495  65.1039982  25.0865269  59.7329092  63.9580488  24.0976977
  18.2056010  31.3238525   6.9513655  19.0809858  31.6973948   6.8493974
  18.2558644  30.8128285   7.7591771  11.6991496  46.5961123  15.7930970
  11.3629854  47.1978235  15.1288903  11.1613035  46.7678547  16.5660524
   4.9767038  36.5548992  11.9437587   4.2032582  36.1414027  11.5603101
   5.0908428  37.3616672  11.4414334  90.5723190  39.5901346   9.5280933
  90.8948421  40.1673508   8.8359720  89.9123383  39.0462303   9.0981823
   9.4470507  32.0159197  18.7123013   9.5601743  31.3196206  18.0653048
   9.7380161  32.8096366  18.2633209  87.3579025  77.2303581  27.4989080
  86.9869709  76.3537216  27.3981738  87.6326847  77.2703505  28.4149480
  80.9795856  35.7442904  58.3376265  80.9100437  36.6542816  58.0489874
  81.5922070  35.7722855  59.0725708  32.3917437  41.6241837  70.9799004
  31.8931746  41.0275173  70.4216433  31.7718387  42.3190451  71.2015295
  28.7673044  59.9755955  50.4010010  28.8259983  60.7163572  51.0043764
  29.6516442  59.6096802  50.3842449  11.2628305  12.0788169  51.8707609
  11.5645695  12.2785413  52.7569294  11.3787782  12.8972530  51.3881111
  37.2172236  72.1566963  39.1724634  37.5449634  72.5272369  39.9919271
  37.4013782  72.8280354  38.5154819  21.3729262  26.7684793  26.2038302
  21.4087820  26.7626882  27.1603417  22.1556473  27.2509408  25.9377265
   9.2995173  21.2920260  32.5024199  10.0055838  21.8902230  32.7470875
   9.7391427  20.4584503  32.3347473  81.0608006  45.7251692  32.8294182
  80.3967476  46.2193537  32.3487449  81.8941021  46.0824060  32.5224447
   5.0430632  24.8625755  28.8300920   5.7339263  24.2368007  28.6124992
   5.3894264  25.3518486  29.5763350  42.2667265   5.1176006  44.6547747
  41.6143942   4.7104639  45.2248049  42.2955227   6.0314173  44.9382210
   6.3769126  74.7026014   4.2463917   6.3988191  74.1340542   3.4766451
   5.4513323  74.9198771   4.3574065  44.5983076  64.8194504  64.8794031
  43.8928604  65.4070520  64.6086550  45.3639460  65.1240492  64.3923187
  83.9725685  25.8260465  41.2011433  84.8448563  25.8482504  41.5946436
  84.1358566  25.7618666  40.2601624  17.4547935  35.7478428  61.4204645
  17.0357394  35.5817032  60.5760574  17.8936946  34.9249721  61.6360569
  40.1714563  75.5817080  61.0474443  41.0481453  75.3527164  61.3560104
  40.1687908  76.5385723  61.0221386  78.8506889  22.1816373  37.3484826
  79.2776775  21.9498682  38.1732225  78.1054974  22.7232170  37.6085043
   5.9471095  84.0869808  56.4096498   6.6846532  84.6760750  56.5684891
   6.3531429  83.2555294  56.1645651  69.0693378  25.0481558  12.9674530
  69.8836660  25.1011109  12.4671531  69.3122339  25.3264475  13.8505101
  47.6967907  78.2870150  54.1582251  48.1418371  78.3753109  55.0010586
  47.8408718  79.1268444  53.7221527  68.4946918  37.1892977  33.6883330
  69.0450764  37.6467514  33.0526900  69.0923309  36.9562745  34.3987942
  89.6383095  55.6893730  68.0174875  89.5919895  55.6127882  67.0644808
  90.5718040  55.7881165  68.2047510  67.8570557  28.7811947  30.3692341
  68.7424183  28.6166978  30.6937456  67.7923059  29.7350788  30.3229427
  65.3820992  33.9198446  34.4523048  66.0148144  34.1893935  33.7865376
  64.5285511  34.0625095  34.0432429  80.8901501  10.0035369  21.4699268
  81.3439751  10.6198919  20.8951402  80.4663563  10.5560791  22.1266794
  82.0301342  62.1044445  59.9650145  82.3530293  61.2381697  60.2130842
  81.5564537  61.9580650  59.1462183  45.2478647  56.7875242   2.9899183
  45.0020218  57.6875401   3.2038581  44.7415543  56.2497663   3.5987625
  20.6716537  43.0074978  47.9098845  19.7179222  42.9351759  47.8724766
  20.8467531  43.9386797  47.7739811  47.7749825  85.2293110  64.3533707
  47.1674538  84.8263359  64.9736452  48.4677219  84.5786285  64.2395258
  90.4693699  18.4541214  15.9201157  89.6841812  18.9552152  16.1405778
  90.1923752  17.5393915  15.9727502  26.2090707  25.3684521   3.9955175
  26.5206432  24.5170665   3.6884406  26.5097904  25.9876728   3.3304122
  12.9972529   9.3775064  12.0845938  13.8618696   9.7690082  11.9605136
  13.1784678   8.4868807  12.3848915  64.5191050  30.4801202   7.7821648
  64.6351194  31.4290977   7.8292078  65.2160931  30.1259494   8.3344352
  12.8155518  81.1993122   9.4838041  11.8950891  80.9471321   9.5572031
  12.8063798  82.1553516   9.5300001  42.4154951  25.8849235  74.8169412
  42.5401212  25.9160133  73.8683982  41.5138485  25.5842491  74.9303193
  47.6596546  52.2669935  74.2576504  48.1961012  51.4742470  74.2607403
  48.0730486  52.8384590  74.9047709  36.9930506   8.9157146  11.1216652
  36.1063862   9.1952008  11.3495862  37.5401378   9.6785921  11.3086033
  22.6168966  58.3866310  59.8607826  23.1250358  58.6410570  59.0905285
  22.4918771  57.4425697  59.7641134  63.8551235  78.7655544  21.5526700
  64.5693874  78.4554863  20.9959674  63.8030148  79.7045994  21.3746095
   0.9192058  10.9012556  14.1322231   1.5036571  11.6100657  14.4009948
   0.0419996  11.2804139  14.1868162  84.0794182   5.5189878  19.0128613
  83.1494427   5.7349193  19.0818155  84.5153332   6.3656282  18.9158463
  63.3423996  27.5881505  11.1753511  62.5946951  27.7699995  11.7446506
  63.0988836  27.9684162  10.3313541  62.5053263  20.1350427  29.1193533
  62.4896717  20.6053209  28.2857919  61.8066263  20.5379510  29.6348262
  34.7693348  54.1927099  64.3935394  34.3563843  53.3436966  64.5512915
  34.7880721  54.2764950  63.4401989  83.3067608  35.2731299  43.1770277
  82.9705048  35.2943826  44.0729713  83.8747120  36.0412097  43.1160736
  91.1036110   9.6261579  21.7802477  91.7798996  10.1873159  21.4008069
  91.0193253   9.9302447  22.6839399   6.5266609   9.9863088   8.9954317
   5.6597120  10.3773034   9.1038531   6.3644391   9.0430069   8.9855319
  12.8856051  75.9506655  44.8166895  13.2585859  75.0736237  44.9056673
  12.6632392  76.2082672  45.7113552  68.5889482  82.5186157   9.6030796
  67.9598522  82.4852753   8.8824129  69.2374849  81.8488884   9.3860602
  78.4036398  71.0264111   2.8919926  78.7313414  71.2178421   2.0132451
  77.6885462  71.6493034   3.0219087  78.1404924  19.5945704   7.4835563
  78.8464022  20.2036929   7.2670019  77.4740219  20.1393795   7.9021621
  26.1981130  29.4477701  36.4255404  26.4207530  29.3218660  37.3479366
  25.2945447  29.7634220  36.4381719  60.3533316  30.2108192  17.4408460
  59.8740482  29.8466969  16.6965795  61.0512781  30.7322359  17.0443296
  88.5239506  10.8994722   3.6158431  88.7822914  10.9093714   4.5374680
  87.6428986  11.2735724   3.6100373  35.9334660  70.0576544  40.7599926
  35.0254297  70.3581381  40.7224178  36.4042187  70.6430769  40.1667786
  27.9094625   4.4740829  49.5095396  27.2630405   5.1307505  49.7686911
  28.4308314   4.3267736  50.2986574  83.0010700  14.2199111  20.9681726
  83.7057018  14.3392730  21.6049480  82.3249435  14.8405600  21.2399769
  52.3655462  15.9249425   9.0478724  52.7470064  15.6880891   9.8932230
  51.4454556  15.6712651   9.1207814  69.6493864  84.8812580  25.5579352
  69.9908924  84.8229599  24.6656322  69.6135283  83.9738274  25.8604336
  60.2396297  22.8839850  60.4482937  59.4749928  23.3679700  60.7602692
  60.2676439  23.0606842  59.5079613  16.7977822  39.0606856  49.8812914
  17.4106491  39.4011402  50.5329990  15.9368825  39.3390894  50.1936626
  90.6437304  10.5997968  24.6567035  91.3107221  10.1027489  25.1303029
  90.7083078  11.4862561  25.0120234  34.5582676  18.5018206  72.8723907
  35.2139139  18.1768823  73.4894609  33.7217808  18.2142520  73.2382107
   9.1675633  41.3740444  20.0000167   9.8505014  40.9467697  20.5169916
   9.5484775  42.2154856  19.7487974  84.9120903  42.5538301  11.9788706
  85.8311558  42.8192139  12.0123267  84.8402596  41.8565273  12.6306665
  28.4545064  54.2305422   8.5060334  28.4754014  54.4323826   9.4414777
  29.0224457  54.8891592   8.1061572  64.7579241   2.6327470  52.7111578
  65.6607819   2.4118319  52.9397869  64.2246246   2.0462960  53.2477236
  87.4394608  25.8063745  45.0835466  87.7782917  25.0853300  45.6141329
  87.9699230  26.5612388  45.3385448  10.8622587  47.6113224  42.7816629
  10.6826353  47.1127319  41.9845629  11.6950548  47.2626925  43.0996847
  81.0454082  44.0082598  28.4628487  81.6819000  44.4587469  27.9077148
  80.1983452  44.3622303  28.1918859  12.5510943  19.8665500   9.7611356
  13.4622622  20.1214266   9.6160769  12.1417129  19.9399006   8.8990110
  28.7596631  45.3952694  72.9491472  28.7959957  45.4595423  73.9034939
  28.0621171  45.9993935  72.6947880  44.1483974  32.0593691  22.2611547
  43.6001062  32.2076893  23.0316138  44.6884966  31.3039827  22.4933648
  19.3172717   2.9500756  29.2620778  19.3100977   3.7303489  28.7076831
  18.6136699   3.0986491  29.8938227  19.3353009  80.8317757  74.0242672
  19.9732959  80.4826546  73.4019232  18.4973717  80.7760239  73.5649157
  29.4774580  32.9022288  24.3544102  29.6762371  31.9894552  24.1456914
  30.3254604  33.2876921  24.5747352  73.4773827  39.6435690   8.3216226
  73.5423565  38.9601326   8.9886475  74.0684319  40.3322411   8.6259651
  10.6456387  18.3784020   3.6758775  10.9676206  18.1264436   4.5413691
   9.7278345  18.1066275   3.6733133  82.4235439  13.3910310  13.1156683
  81.6034508  13.2620978  12.6391673  82.8015327  14.1823936  12.7321291
   5.5777383  29.7715425  25.1789737   6.1271024  29.0009356  25.3224802
   4.7827879  29.4266176  24.7723889  38.5592484  23.2347298   2.8989172
  39.2657042  23.0668068   2.2752556  37.8356767  23.5554099   2.3605484
  55.4966021  55.6617498  21.3689470  56.1693811  56.3012648  21.1352491
  55.8063555  55.2770233  22.1888685  20.4357147  47.4391031   1.2699355
  20.4271245  48.2331944   1.8043256  21.1816716  47.5545645   0.6813379
  55.6730938  54.2262936  73.9733315  55.3872442  53.3656693  73.6669779
  54.8657370  54.7355795  74.0442944  43.8981438  84.7279835   0.3975876
  44.4266701  84.6175957   1.1879709  44.4204569  84.3278599  -0.2976262
  31.4317369   8.3477372  13.1207037  31.5293860   9.2768359  13.3292043
  30.5622911   8.2809490  12.7259445  18.9948010  16.3297451  15.3947592
  19.2220795  16.9942832  16.0451174  18.8724661  16.8213904  14.5826316
  19.0102911  17.9566777  13.3787155  19.1190481  17.1505439  12.8741837
  19.1683233  18.6579597  12.7466857  87.5202084   3.7602982  13.8661015
  86.9165421   3.0971473  13.5313511  88.0670071   3.2904249  14.4957507
  73.9076757  14.4590950  13.1266212  73.3217955  14.5844018  12.3801136
  74.6448803  13.9622748  12.7717555   1.5339294   7.4284625   8.5488778
   1.9919457   7.7434283   7.7696157   0.7190347   7.9303104   8.5669595
  82.2971153  72.1622753  17.4982405  81.8891144  71.4098120  17.0697951
  82.0262146  72.9139614  16.9711602  74.8861790  57.4153423  19.0305173
  74.8699474  57.5086021  19.9830258  75.6103516  56.8127441  18.8611639
   1.3570738  30.7609200   4.3778297   1.0251789  30.9735489   3.5055533
   2.2755474  30.5321074   4.2354110  84.8263264  26.4184666  12.4248195
  85.4812908  27.0217848  12.7759123  85.1099110  25.5552983  12.7260709
  42.2603464  79.7077560   6.8435591  41.4404535  79.5330858   7.3056191
  42.9437113  79.4584036   7.4657059  37.6111579  78.2058001  43.8451481
  38.5187912  78.0999947  43.5601282  37.4617743  79.1510105  43.8229227
  29.5406604  77.8690147  63.7890673  29.3132567  77.3484039  64.5594501
  30.0775671  78.5831451  64.1325521   0.7953713  30.9290218   0.8898114
   0.9466450  30.1656771   0.3324481  -0.1568079  31.0243487   0.9121547
  88.5923290  38.1037855   8.1885886  88.3949661  38.1046987   7.2519577
  87.7424145  37.9841733   8.6123389   6.5242338  61.9105625  25.6804371
   6.6109991  62.3506260  24.8348331   6.5628099  62.6182461  26.3238049
  18.5762334  75.0297928  10.6231213  19.0121233  74.5164299  11.3033342
  18.1047940  75.7111597  11.1024141  44.2170620  52.7076292  64.8392773
  43.8732672  53.4367132  65.3554916  44.1500425  51.9500542  65.4204988
  25.4534388  54.1803360  69.2560148  24.8190975  54.3259382  69.9579000
  25.4797578  53.2293415  69.1504431  59.9645662  84.0608597  40.0565767
  59.3512678  84.0808392  39.3219352  60.6070948  84.7398376  39.8507214
  65.9864426  61.5845346  71.4808321  66.1448956  61.5476942  72.4241066
  66.4192438  62.3895693  71.1965227  25.3090620  21.0241103  17.6082385
  24.4486403  20.6906843  17.3538053  25.1261854  21.8672752  18.0227983
  22.3711300  60.6312799  71.3023281  21.8906236  59.8383093  71.0645294
  22.7347016  60.9480476  70.4754639  72.5415802   7.1068984  18.4264922
  73.0403519   6.7051417  19.1378665  71.9812155   7.7502537  18.8604474
   0.0205919  73.6853647  24.1077495  -0.0061123  73.1633711  23.3058500
   0.6702968  73.2470798  24.6573114  16.0877812  39.2703462   6.7921382
  15.7670844  39.4305444   5.9046012  16.7440248  38.5811973   6.6889369
  84.6669388  11.0122371  18.9813006  83.8571930  11.4106572  19.3003774
  84.5996284  11.0635924  18.0278516  10.2422762  36.5474200   2.9485130
   9.4888258  36.3259101   2.4012680  10.1116896  36.0429502   3.7514383
  80.0398636  15.0132024   3.1539354  79.2945194  15.4267013   3.5894954
  80.8060837  15.3529346   3.6162338  58.5093880   7.5702047  68.0722666
  59.1495609   7.0877326  67.5491667  58.2117796   8.2746530  67.4965811
  63.2798052  73.4722042  51.8376493  64.0935040  73.1255627  52.2036600
  62.8972483  73.9863300  52.5486755  88.5214710  23.8058996  15.0587130
  89.2049217  23.3019495  14.6169400  88.9993000  24.4331241  15.6013942
  72.4871254  18.3184350  12.9410291  72.3671341  19.2586362  13.0746543
  71.7984676  17.9119384  13.4670949  77.4147987   7.3227668  26.3336229
  77.8863096   7.7451086  25.6156135  78.0625582   6.7465723  26.7393780
  37.9555941  62.0788336  59.2614222  37.2012615  61.4939880  59.1895247
  38.3141065  61.9015217  60.1310539  23.9591503  34.6263075   2.7973691
  24.8715687  34.8160458   2.5789177  23.6673284  34.0287042   2.1089320
  29.8022151  52.5283384   0.5020472  30.7129383  52.8012419   0.3909609
  29.7900534  52.0711184   1.3428995   5.8622766  64.9334387  -0.0881280
   6.2235285  64.6585468   0.7545815   5.4589535  65.7830743   0.0898705
  32.7581978  83.2967377  55.2321339  32.7074766  84.1218376  55.7146931
  32.7653289  83.5578823  54.3112707  35.4359436  38.4655142  67.7287292
  36.3409948  38.6642003  67.9688120  35.0689793  39.3077874  67.4601316
  17.2755766  57.6277161  10.7406008  16.5547192  57.6209784  11.3703227
  17.4637020  56.7026854  10.5819821  69.7838402   0.7560015   8.8034916
  69.5760393   1.0180378   9.7003675  70.7402086   0.7687989   8.7657189
  31.2439632  46.6405725  17.6028681  30.9257865  45.7706022  17.8440130
  32.0330453  46.4727068  17.0876968  30.3286743  59.9350023  67.3965883
  30.8678102  59.1631556  67.5692558  30.8507514  60.6691074  67.7202511
  75.9590721  13.9388621  52.3587179  75.8649063  14.0464532  53.3051777
  75.3683376  13.2182622  52.1396303  76.7061424  14.4307792   1.2328023
  77.0036793  15.3225791   1.4127956  75.7850742  14.5296478   0.9917951
  35.4592800  75.1397800  61.3009644  35.9169006  75.1901150  62.1401787
  36.1332703  75.3311539  60.6487799  40.6132841  73.2911873  72.0700121
  40.4364824  73.4895086  71.1504269  41.3903999  72.7327013  72.0494699
  33.0642843  45.4727840  10.1998150  32.8587151  44.9910736  11.0010195
  34.0184832  45.5484056  10.2039611  78.3179188  21.6089988  28.1709218
  77.9839373  20.7405448  27.9462552  78.5929918  21.5308833  29.0844131
  38.0349374  26.2175870   8.6517072  38.4097362  25.9509468   9.4911486
  38.6062336  26.9227958   8.3475214  89.7373676  17.3754811   4.8457935
  88.8772392  17.0109916   4.6370906  90.0683784  16.8194807   5.5511534
  32.6278067  42.3910666  29.2396426  32.1576262  41.5580225  29.2742968
  33.4696960  42.2084570  29.6569014  63.9738798  37.1722412  37.3208022
  64.1533422  37.1660209  36.3805962  63.0381632  37.3634863  37.3847771
  70.3361416  62.2210503  65.9553671  71.1209297  62.7010345  66.2198639
  69.6834469  62.9014921  65.7903910  31.6345143  29.7156191  13.8379824
  32.1165514  29.0251279  13.3829021  31.1869836  30.1948261  13.1406248
  49.0918779  66.4212656  70.2326870  48.2675838  66.2388182  70.6837845
  49.0353203  67.3468828  69.9954844  52.1724319  11.9079351  57.9891205
  51.8620539  11.0909486  57.5987005  53.1081676  11.9288647  57.7886391
  55.0115633  13.1436718  62.6116991  55.8020306  12.9706788  63.1230402
  55.0400066  12.5017607  61.9022083  66.1639261  65.9949541  74.1624117
  66.7136145  65.2322912  73.9823580  65.7420063  65.7942295  74.9978304
  88.9318752   1.1390087  58.2141781  88.9462662   1.4344457  59.1245317
  88.7067795   1.9220528  57.7117777  44.9848986  21.5807581  17.9475307
  45.2507019  22.1032262  17.1908200  45.3354883  20.7077646  17.7708924
  82.6086140  15.0191629  17.4434876  83.0877876  14.3372333  17.9142213
  82.7398586  15.8093381  17.9675376  35.8680606  44.8381567  53.5355330
  35.1822615  44.3290806  53.1033850  35.8136296  44.5806026  54.4558239
  75.7936144  46.0860682   1.8336776  75.7846832  46.9417000   2.2626820
  75.1388216  45.5735588   2.3078191  39.8914409  46.3138056  20.6561041
  40.5549574  46.9857168  20.4995513  39.7030830  46.3767719  21.5924740
  25.2665019  33.2178855  13.3981812  24.4506502  32.7803898  13.6415219
  25.9361935  32.5389671  13.4807169  90.5373573  52.5446415   1.8863939
  90.4748535  51.9949961   1.1052292  91.2955189  53.1060028   1.7242330
  28.9757109  85.2369213  42.1319580  28.4094715  84.8422050  41.4687729
  29.6472001  84.5753098  42.2980976  32.0030189  24.9789977   8.7951845
  32.4255776  24.9536753   9.6536922  32.7215457  24.8748279   8.1714064
  34.3940425  49.6030664  61.8675852  35.2212834  50.0350142  62.0804787
  33.9752507  49.4563341  62.7157068  81.5742588  55.4476690  40.0424194
  81.8226814  55.5787659  40.9574795  81.3754082  56.3266945  39.7199273
  87.6819992  58.5337925   2.7413091  87.4414158  57.6306105   2.5348866
  87.1142387  59.0662050   2.1841511  18.5994303  51.5091944  20.0609374
  18.5104537  52.2129059  20.7036710  19.3983936  51.7240763  19.5795727
  25.9240890  28.8108635  15.4951906  26.1429143  28.3926797  16.3279390
  25.1667738  28.3218741  15.1733303  69.5887852   1.0357933  62.0996904
  69.2483664   0.1663907  62.3106050  69.5212126   1.5248886  62.9197216
  23.2280159  54.2093039  62.2076797  22.5443029  53.9284372  61.5994978
  23.8343000  53.4695148  62.2447014   1.1574416  42.4603462  30.4628921
   1.7900717  41.9384289  30.9564686   1.6740495  42.8690243  29.7683930
   1.6928975  38.1947017   9.0074873   2.0287751  39.0655923   9.2195386
   2.0220286  37.6335526   9.7096384  29.7983432  15.7176840   2.7431595
  29.0793228  15.1327586   2.9821226  30.5813861  15.2873397   3.0864954
  80.3553963  20.8342314  21.7841649  80.8115578  21.6384530  22.0318937
  81.0559559  20.2082634  21.6008377  67.4522924  76.4497709   9.4691569
  67.3952818  76.6799355   8.5417914  67.6209497  75.5075502   9.4721568
  12.0343900  84.5622921  52.3932505  11.7382371  84.9394417  53.2216692
  11.9044590  85.2609539  51.7519808  38.7112951  84.4815063  69.1398048
  37.7874875  84.2532063  69.2432117  39.0345597  84.5831108  70.0350189
   0.7410478  22.2050142   0.5360575   1.4786401  22.0363450   1.1223505
   0.6443993  21.3959002   0.0338381  39.3550277  69.0697145  58.9381170
  38.4771705  69.1203070  59.3163204  39.3733120  68.2255173  58.4873056
  38.5417247  45.4498816  62.5624371  38.3784628  46.2870216  62.1279573
  37.8475928  44.8741388  62.2416115  85.2308273  57.3822832  70.5014944
  85.9217262  57.2773457  71.1556244  84.4794846  57.7083206  70.9968853
  45.5278587  10.5505133  11.5788376  44.6347761  10.3229308  11.8373704
  45.4218960  11.2799072  10.9681082   6.4670128  40.0063324  50.3572083
   5.9775555  39.3424034  50.8428669   7.3451465  39.6367478  50.2649021
  45.0185347  84.3287277  47.5165367  44.2988777  84.7063351  47.0108318
  44.7155809  83.4498978  47.7447939   2.2669658   2.9858676  21.8837547
   1.4251706   2.8141135  22.3057914   2.8362796   3.2788053  22.5953031
  31.1953640  58.6824703  12.4900734  31.2204933  59.6092892  12.2521555
  31.8652606  58.2758427  11.9404161  67.1353722  72.3430395  71.5105867
  68.0606222  72.3929977  71.2704945  66.8238115  71.5378475  71.0972691
  82.1250725  72.8397989  61.6900253  81.3358593  72.5738764  61.2181568
  82.2395325  72.1685314  62.3627281  66.0611057  60.0282812  11.7186081
  66.1218405  59.2747450  11.1314714  65.3688765  60.5709410  11.3410246
  47.2077131  67.3816967  66.2985992  46.9851303  66.7125988  66.9459057
  47.9957724  67.7988958  66.6466427  50.8965445  73.0102158  56.7457914
  50.1347685  72.5258970  56.4274120  50.7778072  73.0464220  57.6949072
  19.6054161  26.4293218  63.5206079  20.3182197  25.9913421  63.9857054
  18.8169003  25.9615183  63.7956238  38.4371257  71.0850668  22.2026443
  39.2554116  71.1408567  22.6961279  38.2868910  71.9759607  21.8864632
  23.3877659  44.3790150  63.6509085  23.4677935  43.7550640  64.3723726
  22.9460454  43.8883734  62.9578066  12.8726304   1.9978288  68.1410742
  12.4194455   1.3955544  67.5510597  13.1283987   1.4552653  68.8870239
  -0.1924155  50.2678585  17.7601326   0.7138994  49.9734831  17.6696730
  -0.1436446  51.0126781  18.3593774  45.8559608  49.4961882  11.0412741
  46.5496302  50.0449705  11.4071834  45.5169868  50.0001764  10.3014612
  38.4667587  35.6254506  23.7270927  38.2567048  35.5294418  22.7981734
  39.1181850  36.3262653  23.7541580  78.7213326  12.3443949   5.4002202
  77.8444147  12.4799478   5.7592130  78.5758352  12.1786690   4.4687712
  62.7538729  76.9915247  19.6742797  61.8958855  77.2872257  19.3698990
  63.0372858  77.6697111  20.2874470  41.5340519  64.8168516  -0.1469249
  42.1556187  64.1997623   0.2391887  40.8659506  64.9376154   0.5278273
  64.0835094  15.6436169   3.6626580  64.7425318  15.0868785   4.0773407
  63.2942057  15.5124128   4.1880313  10.8030128   2.6771325  32.0004821
  10.1178551   2.2597007  31.4784265  11.6156793   2.2733055  31.6959667
  72.5116968  58.3968544  23.8316512  73.2278061  58.7609434  24.3520951
  72.6360893  57.4491596  23.8829565  13.9492440  52.5762606  69.0936947
  14.1923153  51.6826439  69.3357611  13.3386064  52.8519058  69.7773457
  18.1531143  20.4826927  33.0040646  18.1387711  19.7970009  33.6717868
  18.5550714  20.0662351  32.2416830  87.8544807   0.6704588  61.0560083
  88.6479950   0.8350544  61.5653992  87.3732948   1.4972918  61.0883427
  85.2276230  41.7006779  19.7036183  86.1318684  41.9393349  19.9076116
  84.8799515  41.3547325  20.5256176  39.5564055  28.2726216   7.5299013
  38.8260674  28.7769628   7.1714628  40.2191257  28.9294744   7.7434069
  37.9594159  83.7951183  34.2034221  37.0668840  84.1307545  34.2868710
  38.2626581  84.1284084  33.3589149   2.8596249  25.3256202  52.8041744
   2.9766193  26.0405707  53.4297895   1.9312468  25.3587914  52.5734234
  29.7039557  62.7565908  25.1741815  30.0439286  62.4869919  24.3209720
  28.7965012  63.0077696  25.0019312  89.2965126  46.0450792  53.5298777
  89.6467209  46.4526939  54.3219852  89.2070770  45.1193666  53.7563515
   0.5747325   5.9701788  45.3842497   1.2706013   6.2359416  45.9853888
   0.0363457   5.3646129  45.8938169  58.5872698  22.5049305  48.5434675
  57.6841879  22.2098255  48.4268999  59.0693712  22.0887399  47.8289080
  77.6726246  18.7611532  71.1607504  78.3360863  18.5724306  70.4970980
  77.5505877  17.9304683  71.6204262   7.8550082  45.9917545   3.4892914
   8.4322411  45.2521467   3.2995170   8.2815647  46.7412281   3.0738783
  34.8810697  26.4098883   9.9211055  35.5298924  25.8423305   9.5050031
  34.2410803  25.8059883  10.2978647  75.8883715   6.0160184  17.3413384
  76.0764742   6.1522740  18.2699311  75.3450632   5.2282369  17.3200977
  13.9281785  31.6943717  66.1971378  14.1761303  32.4644470  66.7087364
  14.4299412  30.9774184  66.5850067  32.3154664  14.1676617  53.4086180
  32.2033238  15.0967097  53.6099291  33.2629824  14.0499413  53.3408833
  87.6646519  78.8683939  39.7968626  87.9956627  78.0493546  40.1654196
  88.1706619  79.5510769  40.2374649  89.9205399  76.2502193  59.6375465
  90.7611370  75.8224964  59.4741631  89.8780727  76.9512129  58.9871359
  81.7214489  21.9832778   1.3182639  82.6192856  21.7180538   1.1188468
  81.1927319  21.2122107   1.1129659  89.4397545  18.9807737  23.7787604
  89.9983501  19.6679235  23.4154081  89.3726158  18.3315003  23.0786395
  18.5041904  42.8738594  64.4929934  17.9589748  42.1050549  64.6600723
  19.3683648  42.6315212  64.8257208  22.4403787  33.3856845  47.0188141
  21.7656827  33.8694715  47.4952269  22.8302646  32.8087544  47.6756048
  37.5506353  59.1683960   9.9634272  38.1670308  58.4842205  10.2245617
  38.0519605  59.7292137   9.3714875  32.6952100  78.5436630  57.3909760
  32.1757102  79.1158390  57.9557514  32.5667739  77.6675463  57.7545023
  82.1551418  32.2060680  55.9930086  82.9024124  31.8854070  55.4880428
  81.3914776  31.8278813  55.5570793  18.5967278  23.0086160  42.4851131
  18.8183796  22.1567822  42.1089792  17.6753366  22.9290056  42.7319574
  13.7555671  60.8275127  42.1232080  13.7850296  61.7785168  42.2278929
  13.8195837  60.4862690  43.0152178  19.3861985  31.3486242  73.9396238
  19.4449365  31.9890690  74.6485758  20.2928829  31.2111974  73.6652708
  13.2060516  63.6304951   1.5482822  13.2108569  62.9684544   2.2395928
  13.9131796  63.3670092   0.9594052  33.9966822  22.0036602  52.2860003
  34.5657229  22.7630329  52.4116087  33.7196922  21.7630744  53.1700945
  17.2330248  48.0550480  70.9303713  17.3587489  47.8036451  70.0153732
  17.3403394  49.0062046  70.9343386  89.0173817   0.6431456   9.4750613
  89.5108318   1.4523065   9.3409121  89.4546795   0.0005250   8.9164567
  52.4478340  60.7988453  21.5398622  51.9509840  61.5965700  21.7215252
  52.8931189  60.9774160  20.7115698  16.3485944  17.5086081  18.0002511
  16.2347543  17.1648407  17.1141946  15.9690344  18.3867109  17.9670775
   8.5931188  82.0410347  32.9707646   9.5492089  81.9957447  32.9792786
   8.3308667  81.7296982  33.8370919  17.1345294  27.9410625   7.8111571
  17.0680571  27.1722412   8.3774871  17.8677499  28.4405589   8.1704909
   8.1884128  23.0864072  70.4304314   9.0400958  22.6584172  70.3427267
   8.3666086  24.0114427  70.2607775  20.9521699  61.7689085  45.4969454
  20.0665331  61.4979124  45.2552032  21.4369798  61.7667437  44.6716070
  81.1263561  72.5804567  69.2938232  81.6058922  73.4046841  69.3770266
  81.7029858  71.9268799  69.6895123   8.9560896  12.4656880  66.1942387
   9.6676725  13.0975389  66.2974119   8.2327670  12.9767394  65.8311081
  28.9391375  60.6986332  10.1497710  29.4891477  61.3176012  10.6299770
  28.2379222  60.4762125  10.7621896  44.5186281  31.4712667  12.2842038
  44.0165758  32.1686053  11.8624318  44.5496035  31.7230463  13.2071781
  46.9166660  65.3714514   0.3146769  46.1813784  65.8991623   0.0030575
  46.7558384  64.4996834  -0.0464228  55.1359844  82.9947376   6.2528181
  54.3663979  82.6657867   6.7173135  55.0761986  83.9465904   6.3342875
  41.6965294  73.0796003   3.4034297  41.2595606  73.4277201   4.1806698
  41.1260843  72.3712349   3.1050250   9.0005457  29.3544149  71.6190577
   9.6950024  28.9403534  71.1066961   8.4983683  28.6225128  71.9773436
   1.6889974  27.1768141  37.3552132   1.8935807  27.1881127  38.2902265
   1.4571941  26.2664080  37.1717381  62.4263525  73.6447668  21.3051701
  62.0008755  73.2538509  22.0683098  62.3079872  72.9994392  20.6081939
  66.8915367  83.1728554  60.4679537  67.4049377  83.1241894  61.2743568
  67.5201797  83.4463024  59.7999239  78.3882999  72.4430704  68.9376497
  79.2124701  72.8694630  69.1725063  78.6282015  71.5305805  68.7762594
  24.2620254  14.1668534  60.3912592  25.0427127  14.0268099  60.9271193
  23.5352278  13.8929605  60.9507036  50.0758648  76.0643578  58.0930662
  50.6711769  75.6950665  57.4407911  50.3327036  76.9841528  58.1582069
   5.6981891   4.0054673  37.6459169   5.6730264   3.8433173  36.7028880
   5.5122674   4.9403685  37.7332377  46.5957785  29.5393181  11.7140698
  46.0076380  30.2578831  11.9464290  47.4698639  29.9288797  11.7351604
   7.7504176  19.5969725  72.3044395   8.3103836  19.7917390  71.5529537
   7.0043755  19.1270709  71.9318199  60.2888203  46.4774179   6.3479704
  60.1606607  46.2212467   7.2613066  61.1648560  46.8626356   6.3279283
  24.8430681  30.3394771  52.3236799  25.0112200  29.4840527  51.9284487
  25.5852556  30.4819632  52.9111195  30.7695723  33.6965775  46.7367363
  31.5864968  33.9588761  47.1610785  30.3884149  34.5167565  46.4232731
  43.6506224  76.7488718  73.2804871  44.5643806  77.0185852  73.3728600
  43.6231899  76.2768126  72.4482393  57.5369167  86.5048599  69.2531729
  57.4921274  86.5229321  70.2091503  56.9028997  85.8353329  68.9963055
  79.8010254  12.5165951  18.5442483  79.7800112  12.1660233  17.6538050
  78.8951111  12.4553072  18.8472259  65.6621599  86.1271286  29.4817877
  66.1228371  85.7347775  28.7401247  64.7396040  86.1094666  29.2272139
  87.7963829  56.4419365  56.3725615  88.4356976  57.1010685  56.1022902
  87.9067993  55.7290411  55.7434225  29.2201948  50.4753733  64.5800257
  29.6382809  49.6949911  64.2160988  28.5881519  50.7418823  63.9124012
   7.5643760  15.7320404  55.0318050   8.3062631  15.6183720  54.4377422
   6.8572223  15.2262425  54.6313906  34.1603065  37.4357653  51.3793039
  34.6962738  37.4893045  50.5880404  33.3903027  37.9696465  51.1836004
  16.4094257  54.1986084  45.7503223  16.2955320  53.2891083  45.4745197
  17.3519230  54.3524551  45.6850433  31.3746834  67.5619602   6.0761327
  30.4534674  67.5282717   5.8183384  31.3625789  67.9266834   6.9610411
  86.4432049  57.7375650  49.2244768  86.0073090  56.8993664  49.3782616
  85.7854843  58.2713413  48.7787056  73.1009150  34.4464779  73.7864256
  73.8519812  34.9856448  73.5385704  72.6516151  34.2674303  72.9604053
  25.3794146  36.1626959  33.0828023  26.1947823  36.0777640  33.5769629
  24.7075510  35.8112693  33.6670399   3.8363937  16.3428938  17.7832246
   3.2589671  15.9234500  18.4210932   3.4226036  17.1873283  17.6045024
  41.8935776  28.2849264  69.7841644  41.8612814  27.3295784  69.8341370
  41.1456156  28.5774255  70.3049612  47.6713037  31.6045284  70.4453564
  48.1167984  31.8275571  69.6280241  48.2901001  31.0404730  70.9092188
  10.3386521  36.1947346  57.4243546  10.2136767  35.3852129  56.9290924
  10.3585231  35.9149623  58.3395386  21.4216566   2.4963918  54.8604822
  20.5331516   2.1439932  54.9115086  21.3439345   3.2601446  54.2887545
  24.8702741  33.7463260  39.9515986  24.7677875  33.0611014  39.2911458
  25.2782083  33.3029675  40.6954098  31.2783003  20.1494265  67.4532843
  30.6394506  20.8461761  67.6037598  32.1133947  20.5261946  67.7305841
  57.7265739  27.7515602  36.5062332  58.5940599  27.9264331  36.8710828
  57.2649145  28.5872483  36.5749884  19.2692816  22.3947120  74.4890165
  18.4604537  22.5758767  74.9677753  19.4999015  21.4998078  74.7384024
  49.7116947  81.8397713   4.9104840  49.5455694  82.7710533   4.7644117
  49.1010475  81.3927364   4.3243921  57.2581100  82.4825764  46.2891912
  57.1158743  83.2849216  45.7869530  56.4261293  82.0128536  46.2308884
  13.5509551  36.6841221  50.8856726  13.7764895  37.6088715  50.7846594
  14.0811515  36.2349868  50.2273417  80.6954002  10.0430322  30.9596872
  80.5119324   9.4379383  30.2410555  80.3528214  10.8843076  30.6578135
  39.6621799  21.7032814  68.5006046  38.9274287  22.0484900  69.0077543
  39.3873596  21.7945600  67.5882578  32.2272015  17.8763580  74.1868067
  32.5891614  18.5650384  74.7444248  31.3907576  18.2289934  73.8830948
  35.0534940  62.9097509  72.8851223  34.3022490  62.6827240  72.3371077
  34.9505401  62.3693848  73.6684704  18.8105941  17.3252666  69.2997169
  19.6942759  16.9943047  69.1390800  18.7073874  18.0447209  68.6768484
  75.5922365   0.4541104  44.6425724  75.3680038   0.9080879  45.4548883
  76.1551619   1.0689460  44.1721201  11.2920582  32.9035974  61.3790226
  11.5964174  32.9015040  62.2865438  12.0509672  32.6165080  60.8712149
   4.2446762  21.0124874  74.4111967   4.4159213  21.8000174  74.9276304
   5.0764519  20.8260679  73.9757347  42.2953892  12.2114015  60.2817202
  41.8335152  12.2116923  61.1201143  42.1606445  13.0928659  59.9337292
  12.4639153  11.8415916  59.3220949  12.7580559  11.4141381  58.5177326
  13.1365561  12.4977577  59.5043850  56.1968088  80.3671169  19.9806225
  56.0397530  81.0089588  19.2880893  55.4642200  80.4834270  20.5856156
  87.5027084  64.7568893   9.7445756  87.8060246  64.2263985  10.4813361
  86.5567875  64.6126413   9.7189575   7.4824166   6.8250036  56.5022945
   7.7555215   7.7339029  56.6269875   6.5260595   6.8622041  56.4871693
  22.5275612   0.3807537  22.3625207  22.7654982  -0.1654762  21.6133547
  22.4839354   1.2685591  22.0073724   2.0831871  41.7224407  59.5020866
   2.9118505  42.1846581  59.3759775   1.4868005  42.3887825  59.8434687
  81.9135284  48.8806105  11.3572228  82.4623680  48.3490181  10.7806647
  81.3103390  49.3306446  10.7657325  84.9886894   0.2682081  19.6724927
  84.6386242   0.9587234  19.1095757  85.1521492  -0.4647721  19.0789843
  65.7650423  65.3949738  12.7489054  64.9841738  65.3023005  13.2946968
  65.8774042  64.5351219  12.3436117  89.4965363  53.9107990  41.1287498
  89.2840099  53.1255865  40.6242704  89.9201488  53.5794020  41.9205570
  18.0189645  42.3371315  47.8253317  17.5990629  42.1048880  46.9970942
  17.6826429  41.6967201  48.4522200  50.6623173  69.3342161   1.4935657
  51.3831615  68.7331533   1.6815650  50.7566166  70.0316620   2.1423385
  44.4966985  86.2221507  24.0389419  43.5747148  85.9670939  24.0724015
  44.4989826  87.0496447  23.5578179  83.2687950  24.3874073  69.1096306
  84.2179394  24.3663430  69.2317772  82.9162979  24.5038581  69.9919081
  52.1899748  79.6210670  29.1998696  53.1369066  79.5002508  29.2702603
  52.0085764  80.4017830  29.7231436  88.2228947   9.1517395  11.7554545
  87.5880909   8.6438078  11.2502253  89.0751076   8.8254327  11.4665020
  74.9289703   2.1287492  14.0236187  75.0210714   2.1603951  14.9758518
  74.3874502   1.3564074  13.8609016  25.4578900  78.0336714  21.9126534
  25.2853012  77.7752686  22.8180122  25.8377433  78.9095449  21.9818258
  24.7250962  31.0943317  64.8370075  24.3409801  31.5422535  64.0833139
  25.3641653  30.4913902  64.4571638  62.5333309  70.8466005  34.7435522
  63.3047628  71.3707781  34.9588728  62.8883171  70.0084305  34.4474339
  37.4855280  79.9668169  59.3809223  37.5480962  79.4954538  60.2116632
  36.6169095  80.3686047  59.3983459  11.5970409  21.9994497  40.6471205
  11.8821681  22.4418736  39.8476243  10.7131433  22.3322034  40.8027887
   1.2648587  12.6619434   1.2059315   0.9642416  11.9863713   1.8137664
   1.4179365  13.4292698   1.7573014  43.7047529  55.0327682   5.5032820
  43.2378674  54.1973639   5.4846609  44.5847225  54.8086548   5.8060378
   2.0842530  18.1132758   2.0463976   1.1492616  18.1745470   1.8507735
   2.1968418  18.6322594   2.8427717  76.8347216  83.5196972  70.6551218
  76.7471457  83.4150028  71.6025400  77.6147223  83.0129337  70.4292345
  51.9059420  49.7274160  69.4767666  52.7829504  49.3709135  69.6181822
  51.3694620  49.3206358  70.1571703  37.1408963  24.0408850  67.5024557
  36.7720747  23.2955956  67.9765320  36.9930005  23.8346124  66.5795231
  64.0664482  67.0155048  10.5656374  63.9263105  67.8805065  10.1804566
  63.4924936  66.9985056  11.3314855  78.9813566   9.4258922  11.7413652
  79.1163111   9.0958536  12.6296747  79.7359371   9.1031575  11.2487328
   5.7056874  85.9410191   0.9609009   5.5692106  85.4958725   0.1245718
   5.0571722  86.6450310   0.9661335  68.0460501  66.3809347  35.8003354
  67.3507929  67.0381975  35.8294225  68.0164385  65.9627151  36.6608262
  25.0087738  41.2792921  49.2606068  25.3284669  41.2399244  50.1619816
  25.4777575  40.5774546  48.8092661  15.5678475  41.6423845  55.2088308
  15.4235470  40.9249020  54.5918798  15.4100847  42.4348736  54.6957016
  65.9458971  14.5293462   5.1022792  66.3749027  13.9035797   5.6858909
  66.2682819  15.3838897   5.3887337  89.9788952  13.2188869  25.2118611
  89.2875385  13.4974337  25.8124232  89.5701885  13.2466686  24.3467474
  76.0935068   4.8194250  14.4682980  75.6600189   5.6728327  14.4722927
  75.4855728   4.2441574  14.0038478  83.6428833  39.7598624  70.4158831
  82.9034233  39.6621561  69.8159742  83.2891846  40.2577877  71.1529064
  57.1618605  14.4888687  59.3105173  56.3032055  14.0890932  59.1722441
  57.7224255  14.0881336  58.6461306   3.1083691  29.4570398  66.7779875
   3.6420920  29.4030523  65.9852362   2.2061947  29.3964195  66.4639235
  14.8695672  33.4031296  54.6018600  14.3023705  34.0828323  54.2378235
  14.2682850  32.7923083  55.0279903  82.2537422   8.0237812  27.0735455
  82.0942879   8.2326770  26.1531281  83.1831074   8.2119620  27.2043324
  45.0663185  21.5745687  54.6916056  45.0313902  22.3035574  55.3109455
  45.7317781  21.8335319  54.0541553  32.6568723  24.4004273  67.9821730
  32.9707074  25.1945448  68.4147406  31.8078375  24.6470666  67.6153755
  25.1383448  48.4880829  45.8844757  25.1101041  48.0060720  45.0579786
  26.0413980  48.3921003  46.1869860  84.0736580  18.4615600   7.7514035
  83.2571888  17.9861379   7.9049706  83.8545609  19.3766963   7.9267764
  36.8257833  40.8000469   7.2819370  37.4729800  41.1449575   7.8970814
  37.0903039  39.8910427   7.1406168  13.2152355  13.0884624  70.9371805
  13.3487892  13.7612939  71.6047812  12.9792094  13.5770118  70.1486111
  17.5689697  23.3715916  39.7305250  17.5628352  22.4492455  39.9864030
  18.2312083  23.4245777  39.0414214  77.0670843  36.1747670  56.6920710
  77.2281075  35.2549958  56.4815378  76.1354351  36.3019276  56.5129137
  19.4064808  86.1025620  14.0140140  18.6442888  85.5336380  13.9062190
  20.0894499  85.6908703  13.4845853  30.9843159  53.8745975  57.4639845
  31.1078715  54.1740894  56.5632820  31.7291880  54.2392302  57.9419422
  15.3551149  23.0374670  37.8108931  15.3896511  22.3298836  37.1671796
  15.9918714  22.7844787  38.4793019  34.0655255   6.4223450  44.2087936
  34.7041440   7.0495886  43.8697290  34.0979195   6.5372431  45.1585197
  86.6001892  62.9702806  58.0593586  85.8764553  63.5494232  58.2981730
  86.3229942  62.5673056  57.2365522  21.2959123  47.6328278  72.1016121
  21.9429398  46.9485426  72.2729063  21.1087608  48.0064726  72.9627752
  12.2543144  54.4462156  22.1872234  11.3204205  54.2405605  22.2294307
  12.3165023  55.3449774  22.5106239  78.3896208  53.7777853  63.5915327
  78.9359379  53.6743402  64.3706799  78.0846500  54.6842241  63.6314726
  62.4446869  57.4495125  35.0195837  61.7761660  57.2604799  34.3611169
  62.8783035  58.2408905  34.7003317  42.3972368  71.0395670  72.4328613
  42.5268221  70.6393814  71.5730381  43.2707071  71.3291359  72.6963615
  80.6042671  30.2315402  42.9254484  81.0253525  29.3819928  42.7943468
  79.8404837  30.0388980  43.4692860  24.4565058  45.5685568  56.2187624
  24.3586516  46.4495802  55.8575821  25.3004766  45.2650023  55.8843994
   2.4827367  21.1677146  61.3669062   2.6491883  20.3814721  60.8469582
   1.7878662  21.6252327  60.8935547  25.8444524  24.8182321  70.9304523
  25.6665492  24.4728899  71.8052769  26.7954612  24.9234962  70.9033394
  60.8441067  40.3793335  33.4604216  60.7854986  40.4144621  32.5056624
  59.9841356  40.6700325  33.7640285  38.8716650  49.6734953  72.8239727
  38.3531451  48.9072752  73.0694771  39.2024994  50.0150061  73.6547279
   6.4775479  49.0141249  49.7626781   5.6701887  49.0807343  50.2725458
   6.5725422  49.8731470  49.3512297   2.8523517  41.6449022  72.2782373
   3.6522636  42.1050072  72.5325441   2.1434826  42.2219372  72.5624228
  85.9331799  19.0799844  27.1570396  85.9648037  19.1503763  28.1111240
  86.8321514  19.2481422  26.8745446  24.5469928  12.1308875  67.9701424
  23.6905479  12.0165777  67.5582361  24.5727301  13.0554485  68.2166338
  76.0995054  24.7557712  73.5658026  75.1949739  25.0664520  73.5266256
  76.2916374  24.4648194  72.6743603   4.0289187  61.5507221  69.5408964
   3.2936203  61.2057257  70.0474024   4.5998031  61.9564390  70.1933670
  69.9128580  81.7877865   2.5838166  70.6604719  82.3552418   2.3959276
  70.2492476  81.1485195   3.2118315  15.6656158  36.1634111   5.8862925
  15.1006162  36.2614608   6.6527081  15.4474533  35.2993870   5.5368680
  49.5493126  29.4467854  71.2863541  49.0162182  28.7799096  71.7191601
  50.2834940  28.9603400  70.9114218  52.9321575  78.8817120  18.6235631
  52.6223707  79.7867727  18.6571801  52.9407072  78.6659670  17.6910341
   1.3156259  10.9429646  20.0913048   1.8688592  11.3418055  19.4196725
   1.4292078  11.5033293  20.8589792  44.4871998  42.0975256   3.9709434
  45.2716446  42.5848579   4.2227146  43.8129568  42.7682924   3.8627556
  69.0707922  40.7651138  19.1229880  68.1538105  41.0322523  19.0596330
  69.1750431  40.4800558  20.0307918  32.3080540  12.2841060  56.8958712
  32.7068472  11.6878664  57.5296640  32.8685236  12.2213578  56.1224604
   7.5125617  64.0574408  45.9357882   6.7501044  64.4056368  45.4735661
   7.8929549  64.8171759  46.3766193  -0.1039992  29.5697856  68.7218189
   0.0641024  30.3248763  69.2855692   0.4579563  28.8789797  69.0728521
  36.4756632  31.6514635  47.4358797  37.1510267  31.9574571  48.0412626
  36.7446518  31.9944930  46.5837049  26.8387532  40.8696365  65.4825258
  26.4521289  41.7073822  65.2276945  26.4657736  40.6861210  66.3447571
  47.9238033  25.2546954   5.8804393  48.2126617  24.3545032   6.0302687
  47.3214483  25.4361677   6.6018713  19.7779953  78.9077616  25.8883071
  20.7341123  78.9515734  25.9007502  19.5119762  79.6387386  25.3305054
  29.6849585  40.4282951  62.1326733  29.3619633  41.2503767  62.5015736
  29.2936659  39.7491312  62.6820898  13.9142847  35.7454371  53.3045387
  13.6356115  36.0629773  52.4456215  13.7301242  36.4720368  53.8998318
  55.3911354  86.1703628  65.7615900  56.0257675  86.8720297  65.9070015
  55.4685451  85.9667784  64.8295021  30.2437568  20.5104327  51.5038633
  30.8332777  21.2173271  51.2411880  29.4255066  20.9525824  51.7301369
  86.9546032  16.9091737  16.2509465  86.5677071  17.0381510  15.3849745
  87.2301674  17.7845621  16.5229511  65.1085615  68.3867550  50.0252342
  64.5448017  67.6190615  50.1204014  64.6674347  68.9281893  49.3706417
   6.9989103   3.2341632   6.0256648   6.7916203   2.4915498   5.4584008
   6.2174678   3.3477601   6.5666604  12.2268057  14.9951518  53.4943104
  13.1234777  14.7001612  53.6530256  12.3212266  15.9012043  53.2003927
  77.1133947  78.7114191  28.4182143  77.9279137  78.6825466  28.9201641
  77.3963404  78.7539959  27.5047827  91.2612724  62.4251223  48.4408855
  90.6141567  62.9201794  48.9432716  90.7581806  61.7230177  48.0283689
   4.2605790  17.2985399   5.9194779   4.2435491  16.8091965   5.0969911
   5.0933892  17.7700233   5.9004629  52.5027323  78.4460306  26.4126849
  53.2785273  78.0230331  26.0446548  52.7594137  78.6835384  27.3037171
  71.2293625  29.3023944   3.0029434  71.8998623  29.9459767   3.2320076
  71.7080355  28.6093092   2.5482586  79.6681929  17.1412766  51.3903809
  79.5812464  17.1667433  52.3432875  78.8376045  16.7775249  51.0837269
  67.2994995  78.5831213   4.3034193  67.1977186  79.1940308   3.5735834
  67.7481794  79.0905714   4.9797407  90.6434727  47.9760027  25.5061126
  90.5209637  48.9116859  25.3457499  90.9497452  47.6275873  24.6688366
  86.3102341  83.5680103  46.3959217  86.0575008  84.4891167  46.4584494
  86.0554123  83.3093166  45.5102730  18.5061610   4.2836267  26.8182588
  18.2424080   4.9576676  26.1918926  18.5636377   3.4823442  26.2978029
  18.4738708   6.0109574  42.1650076  18.4591770   5.8329254  41.2246227
  19.3952513   5.9267169  42.4103546  83.5599232  20.9651136  49.0595722
  83.9002991  21.7795944  49.4297028  84.1326237  20.2840328  49.4122458
  21.1186171  56.1380196  52.6533556  20.9837699  55.2948141  53.0858517
  21.4567852  56.7094612  53.3427954  68.9994478  22.0684528  38.6287928
  69.9511051  21.9746590  38.5866165  68.7262774  21.4404011  39.2974949
   6.4707851  36.6013074  54.0870094   7.0949268  37.0579863  54.6510315
   6.9810408  35.8981371  53.6852360  82.2637844  35.7455516  55.0200939
  83.0530930  35.8922553  54.4988346  81.5420055  35.9164667  54.4150734
  20.7766700  21.0373044  63.5382271  21.0184455  20.5471992  62.7523661
  21.5992212  21.4186215  63.8452101  28.6371398  31.2776446  65.8856344
  29.5588732  31.4665747  66.0615444  28.6049891  30.3278971  65.7708502
  70.2419996  77.8558969  71.9352674  70.0484657  78.7035370  71.5349150
  69.7082567  77.2314787  71.4438915  74.1514301  18.0035019  19.5731807
  75.0704384  18.2023633  19.3939900  74.1680527  17.5158608  20.3966856
  15.0769460   6.2010831   0.6217370  14.3067157   6.2303430   0.0541794
  14.7198844   6.1182636   1.5059766  22.1876216  36.4556336   2.1215320
  22.8538013  35.9368110   2.5723764  21.4861917  35.8324075   1.9322741
  35.5417085  66.4500380  67.6088285  35.4757643  66.9921350  66.8226910
  34.6339750  66.2980509  67.8717947   1.9592571   7.3631954  50.5220079
   2.4548088   7.1289629  51.3067341   2.5492400   7.9315776  50.0269365
  75.8280897  61.6014719  33.6186528  75.9199476  60.8202267  33.0732632
  74.9251747  61.8866396  33.4784555  67.6098728  12.1765625   4.6942270
  66.8746519  11.6106987   4.9297601  67.2527885  12.7710438   4.0344420
  77.1496344   2.3538631  18.4584141  77.2699451   3.0338356  17.7955461
  76.5439129   1.7315044  18.0559182  58.5323524  72.6008892   9.4067889
  58.7561035  72.4244022  10.3205836  57.7765512  72.0399427   9.2326277
  44.2518377   5.3085697  59.4361019  44.9037027   5.5603057  60.0902653
  43.6628771   6.0612458  59.3828821  76.5228367  63.1538820  27.3068738
  77.4093199  62.8548622  27.1044660  76.2983370  62.7037716  28.1212616
  57.7391338  54.8774672  13.2856524  56.8887234  55.3079796  13.3733749
  58.1280136  55.2721548  12.5051260  27.4240541   6.3201630  61.9499397
  26.7004848   6.8817502  61.6719103  27.8416014   6.8030268  62.6631927
  87.5510693  38.4662795  60.1369762  86.8615627  39.1217017  60.2429533
  88.3173561  38.8543296  60.5594015  16.0714233  13.5585296  57.2857571
  15.9907293  12.9466701  56.5540838  16.7332649  14.1880822  56.9996452
  31.2871790   7.1305126  56.7830515  31.2140918   6.5154344  56.0532761
  31.7449617   7.8860724  56.4145422  32.3783875   5.0027108  63.7506533
  32.3281503   4.0929216  63.4574127  31.6791415   5.4476607  63.2717943
   9.3687642  60.5413818  38.0746937   9.1701692  59.6781397  37.7119184
   8.7207937  61.1230755  37.6772046  18.3227611  -0.1191729  65.6551504
  18.1936909   0.8174784  65.8043814  19.2427183  -0.1968973  65.4024363
  29.5677376  45.5059433  57.4923229  28.8573146  44.8712921  57.3987913
  29.1245985  46.3415766  57.6392031   2.5923741  15.0496101  56.5758324
   3.4936962  14.7607613  56.4329433   2.5353286  15.8901167  56.1213779
  16.7344356   7.4986297  44.7189569  17.6900363   7.5129789  44.7723770
  16.4610553   6.9607633  45.4620504  24.8585415  51.9474840  72.6220036
  24.4945335  51.0698605  72.7382326  24.0930438  52.5119066  72.5139666
  17.9344869   3.3928588  58.7410736  17.3685730   2.6947349  58.4115314
  18.8226950   3.0912560  58.5504055  24.3358970  72.4637651  70.4356623
  23.4040308  72.2453356  70.4478407  24.3714309  73.3775282  70.7185030
   9.4590843  28.6725020  67.0849800   9.9552244  29.2665696  66.5218115
   8.6678511  29.1615367  67.3108768  62.3448181  78.5289478  12.7633822
  61.8179226  78.0118036  13.3726239  61.7101955  79.0818882  12.3075914
  84.0094185  83.8238811  53.1381845  84.0283108  83.7771606  52.1823120
  83.7184620  84.7156715  53.3286953  78.8059902   5.7954198  18.5716152
  77.9467583   6.1651391  18.7747407  78.6463451   5.2118278  17.8298831
  22.5194430  63.9398003   9.6045083  22.0477629  63.3491468  10.1917708
  22.8958344  64.6028137  10.1832759  28.8159919  85.0671959  44.7991180
  28.8849640  85.3983498  43.9036798  27.9213095  85.2797222  45.0648308
   3.3400109  52.0849133  68.4219217   4.1627175  51.9227934  68.8835526
   2.8506249  51.2670279  68.5102272  62.7144384  53.1355190   4.9699599
  62.4127436  53.2213020   5.8743113  62.3937321  52.2779322   4.6908116
  51.2835264  68.2485914   5.2862072  50.3908062  67.9788589   5.0704926
  51.6928482  68.4218121   4.4384566   7.6779056  62.4658966  69.0577221
   7.8896409  62.8992367  68.2309103   8.5261619  62.2008944  69.4133377
   1.7662609  11.6677094  38.2972622   2.2610369  10.8780479  38.0784845
   2.3718175  12.1923649  38.8209701  21.9748187  27.4545336  57.3845339
  22.4972987  27.7687502  58.1224442  22.4662066  27.7273846  56.6097307
  61.2355947  68.4876633   3.6059549  61.9978905  68.0396175   3.2393596
  61.5935183  69.2788553   4.0086180  65.0799847  70.1371670  28.4424090
  65.0244284  69.3559408  27.8921032  64.2624140  70.6062174  28.2756805
  77.1608543  11.5542519  25.4631972  76.6269827  12.2228706  25.8923388
  76.6464567  11.2902594  24.7003484   0.6990793  36.4406323  59.5689821
   1.1534002  37.1175694  60.0705528   0.1985529  35.9531188  60.2232265
   3.6845407  25.7088566  64.5441484   4.3588585  25.5388761  65.2018976
   2.8719828  25.7750964  65.0457430  46.1693382  18.6681414  51.1963224
  45.3204489  18.3869338  50.8549356  46.3980722  19.4333792  50.6687593
  22.9552317  32.3482227  72.1598291  22.5598574  31.7333174  72.7777290
  22.7293730  33.2123089  72.5041723  43.4195185  64.6081161   4.2813706
  43.5129118  65.1891518   5.0362921  43.4720898  65.1901007   3.5232425
  58.8476610  71.6686058   4.5657909  58.1311560  71.8606663   3.9608413
  58.8081932  70.7203817   4.6904695  11.2175190  36.1218786  67.4530315
  10.9184659  36.7555213  68.1051779  11.1400175  36.5830588  66.6178465
  25.2372313  19.4310212  68.5936737  25.2059007  19.3660128  69.5481491
  24.7375631  20.2218843  68.3909416  62.0799017  45.1794577  19.8484445
  62.0796776  45.7738304  19.0981424  63.0013371  44.9527693  19.9741471
  80.3206253  22.4856949  41.0484028  79.4919491  22.8588152  41.3489199
  80.6548786  22.0041537  41.8051195  75.0436020  45.2870321   9.8734367
  74.6234989  45.3609085   9.0165299  74.3265057  45.3802776  10.5005789
  39.9405622  67.8865480   5.7526875  39.5810866  68.3371210   6.5168834
  40.3330469  68.5832262   5.2265441  77.5678205  23.4927607  41.5393972
  76.6115379  23.5245872  41.5667009  77.8465223  24.3114543  41.9496346
  89.3628883  46.9438314   7.2277677  88.6394501  46.3480520   7.0330602
  89.0685368  47.7933884   6.8993926  25.8117199  31.7147923  61.6526651
  26.2356591  32.4981308  62.0032215  24.8756886  31.9110703  61.6920567
  76.2421703  51.8380547  62.6099157  76.7389345  52.5644016  62.9865837
  75.5043030  51.7171478  63.2075453  22.7713180  32.2695184  42.1974516
  22.7049851  31.8998098  43.0778742  23.5967159  31.9263411  41.8551350
  34.1073346  37.4000001  60.8396959  33.9499736  36.4558935  60.8283663
  34.9387431  37.5097966  60.3782463  29.4683528  36.3289618  64.4691181
  30.2810764  36.7367768  64.1701221  28.8959551  36.3451552  63.7020922
  90.7261276  45.0098324  42.5682306  90.5904484  45.6778193  43.2402563
  91.4662552  44.4944143  42.8888369  64.1276741  80.5085659  11.6815865
  63.6411095  79.8018026  12.1058226  64.9159241  80.0857353  11.3408315
  10.5626178  62.2504282  70.0866270  10.6995726  62.7619362  69.2892361
  10.9346211  61.3913727  69.8869658  26.0112953  35.8521938  57.3613739
  25.2828884  35.3764272  56.9622469  26.4195943  35.2161932  57.9487610
  54.2303705  82.2085476  46.6448832  53.3035755  82.4334431  46.5629816
  54.5796967  82.8529167  47.2605085  16.6356671  47.5053740  52.0037270
  16.0718691  46.8299866  51.6266108  17.4877286  47.3639059  51.5911627
  28.4609437  74.2407513  68.8009691  27.8625822  74.1137457  68.0647230
  27.9598045  73.9626551  69.5676184  43.6762762  19.7635353  11.6531754
  42.7902508  19.4020557  11.6760290  43.6807299  20.4302669  12.3399651
  90.7825756  17.6868379  61.1460257  90.1996040  18.1575894  60.5504084
  90.9693718  18.3144784  61.8441725  52.8513718  82.0457745  10.7346523
  52.7907276  81.2759686  10.1690030  51.9449663  82.3319244  10.8476985
  50.9096050  36.1597514  59.2452812  51.6503382  36.4171505  58.6963844
  50.7198811  36.9366622  59.7712517  88.1699562  14.2424428  27.3007059
  88.2010555  14.9510002  27.9435229  87.3380184  13.8007820  27.4711347
   0.8055359  72.5712872  12.4539733  -0.0692723  72.3578119  12.1293664
   1.2362630  73.0024719  11.7158759  83.9538479   9.0478063   6.7247319
  84.7942734   9.4975406   6.8122959  83.4838390   9.5464748   6.0564154
  28.0930187  41.4779611  74.0690041  29.0374281  41.6273638  74.1137962
  27.7181675  42.1381803  74.6519541   4.1818479  57.7059937  70.6675577
   3.5550058  56.9850683  70.7272863   3.7730113  58.4200096  71.1567068
   5.6226391   7.7024257   1.2761307   4.7882462   7.5342399   1.7140052
   5.8417910   8.6027986   1.5159893  34.8509097  83.5879326  58.6909056
  34.3729877  83.9918900  59.4152260  34.7758913  84.2174816  57.9737806
  39.8146152  50.4986000  70.5515528  39.9666476  51.4429808  70.5160666
  39.5568967  50.3313971  71.4581156  29.9589300  62.3973131   0.2960581
  29.3522501  61.7498827  -0.0631068  30.5755353  61.8840122   0.8181220
  10.2475274  23.3646727  11.7631936   9.3535221  23.2469869  12.0843410
  10.5173564  22.4909544  11.4802814  20.9562492  18.4461987   0.5051916
  20.2037597  19.0204465   0.6474267  21.7086625  18.9604056   0.7979342
   6.0726494   7.2292262   9.8814523   5.4448050   6.6010946  10.2385151
   6.6958690   7.3757821  10.5930352   7.5100034  40.7775497  62.1458387
   7.0426267  39.9425268  62.1227837   6.8241483  41.4323902  62.2762918
   1.2640052  81.9758797   2.7347946   1.9946054  81.8192482   3.3330613
   0.5978020  81.3413811   2.9990381  15.2302766  15.8724856  26.4174676
  15.5526268  15.7361078  25.5265546  15.9605205  16.2888849  26.8752742
  83.5570335  58.2106113  21.9528317  83.0131149  58.9597368  21.7095280
  83.2388878  57.4948788  21.4026165   5.0977361  32.8874779  58.2782173
   5.3195137  32.3195338  59.0161133   5.7509428  33.5864735  58.3092022
  25.3629708  48.8660431  64.5571566  26.0351562  48.4803200  65.1189518
  25.5115986  49.8096037  64.6190739   9.5376903  82.6908779  12.4881423
  10.1718497  83.2161903  12.0001650  10.0720060  82.1471977  13.0670679
  46.9327450  75.7636452  53.1081963  47.2687292  76.3672352  53.7707853
  47.4762201  75.9273911  52.3374462  45.3614473  71.1594534   3.4100738
  46.2800169  71.2343502   3.1515124  44.9043036  70.9209538   2.6036179
  58.2330561   8.5832274  26.0785294  58.6702681   8.9042568  26.8672109
  58.9041758   8.6282033  25.3974962  68.4230900  65.5025721   7.4729127
  67.8477669  64.8364973   7.0966399  68.2014894  66.3050413   7.0005089
  10.3622711  58.1226492  65.6670189  10.3052437  57.4412966  66.3368988
   9.9350208  57.7409792  64.9001980  79.1876650  76.5275097  17.9972184
  78.5449553  75.9514141  17.5833690  80.0259781  76.0845566  17.8658879
  27.3035049  33.3017755  64.3619823  27.7104783  32.5800157  64.8412132
  26.3647079  33.1888795  64.5108032  50.7540607  59.1146898  74.5794630
  50.1728630  59.2899132  73.8393688  50.9220934  59.9762201  74.9612570
  75.0540352  79.5986271  12.8836346  74.2337561  79.3603754  13.3156109
  75.3385162  80.3948784  13.3322752  28.2933331  84.2207527  10.8993208
  27.7538371  84.6747780  11.5466475  29.1271591  84.0712070  11.3449705
  88.8324833  19.8488379   4.0401962  89.6579552  20.2385259   3.7521324
  89.0951252  19.1094577   4.5884398  81.4990425  19.7143221   9.2599952
  80.7848167  19.9799144   9.8392832  81.4518642  20.3262854   8.5254848
  33.7905765  59.5561504  70.9452152  34.3034220  58.7619638  70.7952595
  32.8874183  59.2477226  71.0187626  43.9226818  78.7638140   8.9155763
  44.6992016  79.3191767   8.8460821  43.5971642  78.9171410   9.8025715
  90.2957153  71.8797112  56.4378834  91.1079311  72.3843193  56.3943434
  89.9197292  72.1040106  57.2890949   6.1089379   0.9503108  34.3991756
   5.5875927   0.4216493  33.7950659   6.9191593   1.1299910  33.9222193
  41.1193514  45.5293894  64.0274286  41.2046242  44.6343470  64.3558502
  40.4308510  45.4767036  63.3645391  20.0969434  14.9223828  28.2560396
  20.4234171  15.7544303  27.9134846  19.4254839  14.6523869  27.6295590
  48.1613255  28.9945292  27.0637393  47.3441744  29.0539455  27.5586796
  48.4876537  28.1131411  27.2451138  73.0153656  14.1503239  21.6884446
  72.5208139  13.8419592  20.9291267  72.4333429  13.9953315  22.4323940
  22.7421641  14.0461946  18.4545636  21.9055080  14.3768919  18.7814856
  22.6934719  14.1671908  17.5062907  79.0933657   6.8771231   0.5291929
  78.4872627   6.4282507   1.1185843  78.9026499   7.8070194   0.6522858
  38.2109618  16.0347402  73.6708021  37.7595735  15.1932144  73.6051178
  37.7670360  16.4894199  74.3866396  63.0450249  20.6866121  75.0133181
  63.3798933  21.5134859  74.6663666  63.0188465  20.1020908  74.2557669
  80.4115200  18.5017300  12.9601550  80.8079147  18.2962012  13.8068295
  79.9558067  19.3310976  13.1040597  55.0810289  53.7259245  38.3963180
  55.4967928  53.5158539  39.2325258  54.8334503  52.8761911  38.0317760
  54.6932364  44.6375990  73.0025721  54.0338230  44.0717411  73.4040880
  55.4822540  44.4940996  73.5251570  73.2606030  82.5077343  24.9918723
  73.6521292  81.6374779  24.9171638  72.6871061  82.5786686  24.2287850
  26.6848278  57.0550346  67.9172611  26.9375777  56.7417431  67.0488167
  26.6019988  56.2600565  68.4439325  24.4465566  36.9312716  48.7121153
  25.2861285  37.0416021  49.1584063  24.0524507  37.8034902  48.7241888
  29.7573304  79.8853397  43.0976725  28.9727330  80.4301643  43.1593466
  30.2748060  80.2886581  42.4006844  88.8693619  13.5117006  22.7676678
  87.9587078  13.6630595  23.0207014  88.8191891  12.8527009  22.0752573
  21.7631984  68.3077002   8.8014930  21.6404557  67.8904152   9.6541578
  21.8224311  69.2425060   8.9986318  35.4339862  32.5268722  53.7058592
  35.7255077  31.9051790  54.3727541  35.6650519  32.1123028  52.8746128
  23.9142823  19.3437171  47.5877047  23.2442141  18.9677477  48.1585693
  23.9634967  20.2631330  47.8493929  21.6609216  48.9023542  62.8430176
  20.9450507  48.2884979  63.0071497  22.1943164  48.4746695  62.1730852
   1.2790865  26.1927533  45.2217674   1.4213294  26.6072392  46.0727644
   0.4405214  26.5434742  44.9217081  30.5513930  40.3562832   7.9218292
  30.8423662  40.9689522   8.5972571  29.5959854  40.4098558   7.9453909
   5.6074351  62.0627069  59.8847294   6.1521554  62.8060675  59.6260214
   4.7174898  62.3241758  59.6483707  36.2874079  17.5701499  22.5889397
  35.5431461  17.2611201  22.0724058  35.8972454  18.1307387  23.2595706
   4.9654582  57.1790981  46.0525036   4.1797644  57.5620556  45.6623030
   5.2006489  57.7817822  46.7579746  39.9699497  14.9368930  68.1198883
  40.1893234  14.9285769  69.0515757  39.3112206  14.2492318  68.0227804
  49.5690393  27.7831745  13.3470738  49.7851992  28.4657145  12.7117431
  49.4949389  26.9845080  12.8247023  87.8785706  45.1466322   0.8709950
  88.0423450  44.3055534   1.2976022  88.7504005  45.5087280   0.7127713
  45.0980759  51.2165070  14.9682212  44.2911434  51.2699461  14.4561303
  45.1739264  50.2908468  15.1997995   6.2280750   9.1895366  61.4235163
   5.4380977   9.1077894  61.9578218   6.8878937   9.5376694  62.0232439
  11.9336474  49.7144938  71.2582779  12.1137536  50.2564144  70.4900837
  12.7440000  49.2256784  71.4018774  68.0177021  54.8709679  25.3590417
  67.7590942  53.9968204  25.0671101  68.6537027  54.7121429  26.0565448
  26.8919182  47.3592997  51.0408211  27.6186347  47.9069281  50.7438040
  27.2659445  46.8238211  51.7405367  90.2309513  25.4538298   5.0823605
  90.5269432  24.7537017   4.5006055  90.3550911  26.2556934   4.5745844
  76.8887997   9.2316383  17.4022329  76.4248133   8.7882417  18.1124079
  76.6446829   8.7440807  16.6155136  64.3424940  59.1505241  55.3396559
  64.3036270  58.8506699  54.4314671  64.9871922  59.8580027  55.3309155
  85.4532719  42.0199490  47.7792454  84.9932766  42.8591585  47.7983427
  85.8247185  41.9303894  48.6568785  54.9842167  80.9390354  39.6227479
  54.7827530  80.6271839  38.7404823  55.0056267  80.1458263  40.1580906
  83.9909554  21.1066246  21.2985945  84.6142864  21.4968610  20.6858850
  83.8504124  21.7833543  21.9607973  78.5970306  50.3258705   6.6564196
  79.4533253  50.7525110   6.6875452  77.9700184  51.0375690   6.7851341
  13.5758996  32.2079396  60.1967096  13.8118303  32.8721523  59.5491076
  13.3326352  31.4420819  59.6765947  19.4318664  29.3094921  46.4781666
  19.7564113  29.4193459  45.5843925  19.8304152  28.4928703  46.7790270
  26.8516803   7.1226251  40.6679773  27.4010587   7.6149976  40.0580692
  27.4071431   6.4002687  40.9610558  68.0641222   1.1137473  70.2159309
  67.5061512   0.9527703  70.9768391  67.4647284   1.0897284  69.4700193
  63.0907583   4.4965252  36.6870999  62.3327637   4.8436052  36.2167692
  63.1737804   3.5952321  36.3756347  73.2095861  83.3429813   3.2400164
  73.1921864  82.7552509   2.4846971  74.0255976  83.1281376   3.6919114
  87.2263908  10.5758250  35.6930947  86.8778419   9.7250986  35.4266071
  87.3882389  10.4848564  36.6321158   9.9716717  69.1121292   8.5560703
   9.5030117  69.2580032   9.3778425   9.7465837  68.2154846   8.3078843
  34.1794062  67.9027605  73.0739832  33.4815192  67.2506523  73.0112219
  34.4584274  68.0428076  72.1691275  26.3247323   8.7157875  18.1030369
  26.9319439   8.0083609  17.8860688  26.7310572   9.5010829  17.7363718
  82.9087543  59.6358824   2.4601296  82.2340870  59.2510843   3.0195785
  82.4504948  59.8560238   1.6491042  19.0901506  76.0709095  67.1226168
  18.4613717  75.6496286  66.5366220  19.2131901  76.9453335  66.7531967
  64.7133875  61.1817360  51.1204481  64.5741987  61.8811989  51.7588902
  64.1782236  61.4342260  50.3680658  32.2552896  45.1507282  63.7786198
  31.9802046  44.2409277  63.6653852  32.1533275  45.5415535  62.9108143
  78.0867228   9.5318972   0.4902373  77.5707873   9.7307478  -0.2911081
  78.9895746   9.7229849   0.2361213  13.7225699  23.5134697  58.3820724
  12.8370380  23.1644154  58.2809544  14.0523040  23.1022882  59.1810942
  35.7227731   4.8386085  71.3180590  34.8329306   5.1077068  71.5460873
  36.0177875   5.4960686  70.6880236  78.2810402  38.4409714  54.5953846
  78.2606268  37.8818321  55.3720284  78.5027838  37.8469181  53.8783360
  76.0468531  48.7617207  62.8645992  75.9300327  49.7102594  62.9180288
  76.9695807  48.6464453  62.6376343  75.5155087  73.2550526  55.4158449
  76.2520647  73.4346533  54.8314953  75.4932308  74.0047789  56.0105276
  34.8926449  36.0887599  64.0285873  34.5909071  36.5159297  64.8302794
  34.2167592  35.4394293  63.8342190  29.3328929  77.3307848  57.0398426
  29.8327208  77.5725031  56.2601137  28.6562586  78.0043030  57.1089220
  76.7955732  85.4041672   1.4622429  76.7029285  86.1632252   0.8864938
  76.0865688  84.8168850   1.2002569   5.8107311  79.1064692  20.9350324
   6.6730839  79.4872570  21.1011100   5.8075577  78.9211607  19.9959469
  41.4181471  61.5752172  62.8687572  41.7874718  61.8176079  63.7179184
  40.5593586  61.9976139  62.8517103   3.0488586  49.4077015  69.7503281
   3.4160730  48.5612583  69.4955397   2.7050936  49.2640162  70.6320381
  66.7274714  70.2495623  23.8229942  66.6008091  70.5944395  24.7068787
  67.2367668  69.4489479  23.9489865  56.2858534  28.9007926  62.7454281
  56.4568138  28.0367231  62.3707438  57.1471310  29.3156600  62.7935505
  89.8140335   2.0473202   4.1783255  90.2418137   1.4539009   3.5610014
  90.3303432   2.8521064   4.1338623  81.1026478   8.6241114  71.9346380
  80.6309032   8.1237936  72.6004934  81.7161465   9.1652846  72.4316168
  12.5287795   4.8162669  48.7324429  13.3808351   4.3956086  48.8476801
  12.3891950   4.8191309  47.7854824  12.1874380  38.6052752  29.8910213
  12.0778763  38.1418920  30.7213855  12.8505373  38.1001377  29.4205236
  84.3523788   4.3646005  21.9534731  84.0195560   4.5334011  21.0720134
  84.4859695   3.4171885  21.9816923  53.6298180  77.0260668  46.9384623
  52.7377415  76.7109728  47.0838881  53.7089205  77.7920866  47.5069571
  69.9616718  22.0193815  60.7012463  69.7277784  21.1191702  60.9273958
  69.3732309  22.2460365  59.9811077  18.5900927  36.1329079  41.9601679
  17.9704177  35.5934548  42.4513149  19.3351340  35.5542850  41.7978621
  75.3396034   1.7623833   4.3053722  75.6283617   1.0255813   4.8438647
  76.0229397   2.4232392   4.4174299  33.7970996  30.1638746  37.3815012
  34.4958234  29.5609236  37.1275973  34.0498376  30.4702425  38.2524157
  11.4697659  36.9900584  64.6581316  12.3830259  37.2649074  64.5766020
  11.2290275  36.6953135  63.7798357  50.0778818  74.3607473  28.2527161
  49.2005968  74.7335148  28.3401704  50.2266502  73.9018774  29.0794802
  63.3036661   2.0027386  23.0354953  62.3534441   1.8968412  23.0813384
  63.6035872   1.2535813  22.5206733  68.9239454  83.8485241  23.0811882
  69.3691921  84.6740913  22.8903389  69.5874166  83.1766891  22.9240942
  85.8357239  38.3024144  53.3682251  86.4625549  38.3285403  54.0911531
  86.3777065  38.3357191  52.5799513   0.4904869   5.8132684  23.8620472
  -0.2948819   6.3269734  24.0505552   1.2167944   6.3979805  24.0784287
  68.0573225  58.7040234   5.6733525  68.4557581  58.0255604   5.1282227
  67.2985363  59.0002537   5.1706350  49.6862268  81.6314602  69.7750092
  50.4512978  81.2666988  69.3302107  49.0809727  80.8941364  69.8540211
  35.2311802  44.6491385  13.0509937  34.8587203  45.5218792  12.9251862
  35.9870958  44.7911882  13.6207724  27.6405168  69.1556072  70.5499697
  26.7215347  68.9236927  70.4161119  27.7710128  69.0814161  71.4953279
  14.2486238  56.5614128  59.8558617  14.9602365  56.1265421  60.3256750
  14.2296505  56.1330223  59.0000868  13.2933211  47.3113728  65.7816076
  13.3476639  47.2320604  64.8292494  13.2175899  48.2523918  65.9396505
  91.4578915  41.5933132   7.8375965  92.2512531  41.9801760   7.4672753
  90.7412338  42.0272064   7.3745978   8.6084437  41.7860699  69.6527386
   9.3888587  41.4827967  70.1166439   8.6081350  41.2894917  68.8344240
  68.2423878  31.4442229  15.5474734  69.1831303  31.5089226  15.3829968
  68.0097198  30.5604148  15.2629054  71.4573622  59.0149593  53.5742855
  72.0074034  58.2396173  53.6862373  72.0781660  59.7349405  53.4626675
  60.6396675  47.5834608   2.6426890  59.7133112  47.6271963   2.8797242
  60.8764219  48.4871340   2.4340017  41.3961315  42.7233744  64.2325449
  41.9111013  41.9166088  64.2452240  40.6423187  42.5351667  64.7916269
  13.9934850  18.8336992  52.1527052  13.7200713  19.6217072  52.6223040
  13.2279730  18.2597864  52.1818495  22.8494835  76.2644100  13.5551715
  22.8482080  76.0073519  14.4772077  21.9575572  76.5703773  13.3905935
  91.7184925  14.2296350  10.9791446  90.9581661  14.6431589  10.5703211
  91.6758633  14.5028293  11.8955398  86.7190647  18.7167752   6.7506135
  86.6969204  19.4244540   6.1064613  85.9404850  18.8585711   7.2890729
  73.8035393  63.4723806  73.2288742  73.3987474  62.8244591  73.8055658
  73.9623737  64.2291498  73.7930536   7.7194023  84.6135902  31.5544319
   7.6216567  83.6614037  31.5502262   8.4937954  84.7724819  32.0941520
  69.2486763  76.4666176   4.4980490  68.5667992  77.1220398   4.3507555
  68.8422394  75.8248663   5.0804520  41.9214201  77.5533915  52.0254278
  42.6419926  77.2879219  52.5968599  42.3232508  77.6490068  51.1619329
  20.0389695  13.6667955  66.1436319  20.1284957  14.5969987  66.3508463
  20.9185076  13.3088446  66.2641096  20.5443287  57.3761654  67.1471643
  19.8661017  57.7207565  66.5662146  20.1177263  57.3117447  68.0016184
  23.6264920  25.3105211   4.7266802  24.5456147  25.4497027   4.4984797
  23.5891891  24.4025087   5.0272727  58.9026451  65.4795980  68.8036299
  58.7285948  66.3335943  69.1993952  59.3260956  64.9754524  69.4984388
  53.1895828  36.7778778  71.3086128  53.8741827  37.0160270  70.6834412
  53.6554241  36.3303709  72.0149851   5.0903153  38.7858963  73.9075136
   4.4504699  39.2355275  74.4594765   5.7691818  39.4409704  73.7454891
  30.1375890  33.6002183  42.3383856  29.5707059  33.2743168  43.0374336
  30.9437037  33.8591862  42.7848673  87.7128506  15.1663971  35.2363014
  87.5714111  15.1335573  36.1824250  87.5796986  16.0858870  35.0059962
  64.8868132  55.3143930  29.3238711  65.6376553  55.8254385  29.0217185
  64.3452549  55.9433556  29.8006821  39.4317198  43.3104610  17.2837830
  39.2914176  43.2596636  16.3382840  38.5502410  43.3134413  17.6569009
   2.3636806  40.3607035  22.9431462   2.2464301  41.2787914  22.6990271
   1.5542680  39.9331999  22.6632810  75.5563831  12.8593957  73.9251518
  74.6337032  12.7168119  74.1362572  75.6630659  13.8103640  73.9477301
  39.2510295  13.7833524  36.0261965  40.0720263  13.7555456  35.5348468
  38.6404943  14.2392445  35.4468513  32.2290874   3.8162413  50.7469511
  31.3862801   3.9933315  51.1647463  32.2274303   2.8711036  50.5954838
   0.2055147  22.5354838   5.5001831   0.3875806  21.6151190   5.3104079
   0.2943590  22.9763818   4.6552292  80.1587486   2.6996323   9.7054839
  79.4267464   3.2754529   9.9264693  80.4087162   2.9595339   8.8188040
  29.6007538  33.0271745  51.1949921  30.5155516  32.8308892  51.3971090
  29.4314981  33.8599563  51.6355133  84.3256855  82.9602623   9.6189827
  84.7874832  82.1734715   9.9086821  83.8449097  82.6823997   8.8393176
  72.4796629   1.0659701   8.0571640  73.1772995   1.5803079   8.4633553
  72.5403118   1.2742336   7.1248662  58.8780260  71.2958288  63.4661579
  58.4314728  70.5245256  63.8153172  58.9425707  71.8930626  64.2113972
  71.2497377  59.5908594  47.1722269  71.1588955  60.5085230  47.4288893
  70.7440519  59.1081047  47.8260374  75.2459335   2.5258955  32.2246242
  75.1818800   2.4546424  33.1770182  75.2668715   1.6195455  31.9175029
  72.4891329  63.5946655  67.2424889  72.2069883  63.2677937  68.0967617
  73.2906914  64.0845203  67.4262905  14.3089998  23.5773563  45.1417208
  14.1898763  24.5202899  45.2553797  14.1357744  23.2079649  46.0076189
  53.1021070  76.2273550   5.0095493  53.3384752  75.9579182   5.8971101
  52.2729492  75.7814312   4.8366904  70.6811857  21.1451626  68.5326767
  69.7619915  21.3907599  68.4278393  71.0790205  21.3382936  67.6837587
  32.9730844  53.1132364  52.1079159  33.2957673  52.4040222  52.6639032
  33.5587358  53.8475561  52.2923613  58.5074091  65.8915901   9.4574237
  58.2634020  65.1916504  10.0630414  57.7981806  65.9104204   8.8148719
  11.2216210   9.0651053  16.6730797  10.4183495   8.5549664  16.5694165
  11.6800678   8.6447859  17.4006724   9.7482204  33.1102395  73.7448168
  10.0266755  32.6791668  74.5528221   9.1651666  33.8112950  74.0360260
   1.7604956   0.5911849   7.6604086   2.6055628   0.6393933   8.1073642
   1.5558310  -0.3435405   7.6352519   2.1887287  -0.0993285  28.0793238
   2.0079692   0.8253086  28.2484508   2.3185639  -0.1486634  27.1322536
   9.2465508  20.0603986  70.1150656   8.8776362  20.3572798  69.2831993
   9.9490863  19.4603050  69.8649406  30.7398701  36.6394424  67.4126625
  30.3359199  37.4970627  67.2802019  30.1162672  36.0198879  67.0338440
  38.6766005  55.0450039  15.9526598  38.4577322  55.5271530  16.7500687
  38.8794565  55.7246494  15.3098845  86.0137367  29.6520638  52.8520918
  86.2453938  29.4657516  53.7619543  85.2120304  30.1717472  52.9106522
  10.3934336   0.2161670  16.6962218  10.9448802   0.9931693  16.6045427
   9.5224124   0.5622224  16.8906438  11.9198728  10.9454846   6.7842883
  11.7898285  11.6324937   7.4379998  11.8775260  10.1294303   7.2827786
  40.6652212  41.5726614  73.8783312  39.8756099  41.0713625  74.0819120
  40.5821705  41.7831039  72.9482508  87.3250294  52.7269030  70.7998800
  87.1999931  53.6454725  70.5615044  87.7640152  52.3404360  70.0421429
  16.5886557  47.6866436  66.2477541  15.9633934  46.9689703  66.1466646
  17.4337816  47.2531033  66.3662338  20.7168078  35.0991464  48.8684988
  20.1107836  34.7826505  49.5384216  20.6791902  36.0527205  48.9427567
  83.8431072  81.0455227  29.7655344  84.7688293  81.2229633  29.9322248
  83.5728264  81.7341709  29.1581297  51.0875082  81.8714809  30.7364631
  51.4119434  81.4412880  31.5276027  50.6737518  82.6745033  31.0530114
  47.7303171  72.4426556  50.4804754  48.2586002  72.6353073  49.7058535
  47.0000076  71.9204664  50.1485062  88.5109615  70.0600624   7.5085223
  89.1203403  69.5575571   8.0492324  87.9008102  70.4500008   8.1345463
  10.6456983  36.7814660   9.3571293  10.8186829  36.0366392   9.9329275
  10.7918322  37.5498128   9.9089617  36.9611907  22.0726776  74.0347910
  36.7150307  22.9089403  73.6394358  36.3438725  21.4417648  73.6645222
  32.9725766  66.2937260  47.2448826  33.6638474  66.3285351  47.9060698
  32.1860576  66.0505867  47.7332497   1.9702075  22.1508288  45.4067039
   1.8519850  23.0677700  45.1587677   2.4510381  22.1863866  46.2336111
  31.9245887  53.8918638  66.4277983  32.4374986  54.0704966  65.6396055
  31.9613457  52.9405260  66.5269804  52.9840136  40.2902174  72.8326654
  53.2356215  40.5303097  71.9408798  52.0304489  40.2135086  72.8000546
  27.8562140  25.2113605  65.5472565  27.6731277  24.4475579  66.0943556
  27.7844477  24.8859763  64.6499252  25.3883648  28.3044529  71.7689991
  25.8358717  27.7811670  71.1040592  25.5555415  29.2113853  71.5125656
  25.0912166  55.8001184  60.5821753  25.6587458  56.4198446  61.0405254
  24.4016695  55.5947208  61.2134981  28.0636120  30.8426619  69.9636030
  28.4937644  31.6968489  69.9240446  27.5736666  30.7830119  69.1434622
  30.0482988  44.0745640  54.6566963  30.2236366  43.2725096  54.1645670
  29.7955608  43.7703180  55.5283546  67.7961445  73.8742638  16.1771142
  67.2744751  73.3944035  15.5338144  68.7026262  73.6537075  15.9629273
   1.3908291  63.0002975  24.2814112   1.7517787  63.8477659  24.0211248
   2.1313885  62.3965931  24.2235780  21.1428285  79.9889231  54.2997265
  20.1952195  80.0637531  54.4122839  21.5094161  80.5849361  54.9528790
  17.5175500  36.4680791  53.8929462  17.0686769  36.4141941  53.0492401
  18.2665360  37.0412850  53.7295914  66.4802504  37.6329088  35.6144428
  67.0194960  37.3868608  34.8628378  66.3230324  36.8093634  36.0762739
  10.0972939  82.8187656  61.0562849   9.9058199  82.5378227  61.9510698
  11.0517716  82.7836132  60.9932756   9.2760086   5.1111948  10.3158700
   8.9826059   4.4657290   9.6728140   9.7049201   4.5929849  10.9968436
  63.2941675  74.1063499  46.9645882  64.2261839  74.1007376  47.1826220
  62.8516960  74.2090797  47.8071404   3.0863664  71.6873789  69.6535254
   2.6077342  71.0158300  69.1675520   3.1133741  71.3591337  70.5522776
   9.7698343   9.6496665  47.2571278   8.9397722   9.7233725  47.7280807
   9.7933346   8.7421095  46.9537830  26.7378235  19.0040278  13.6196172
  27.1170664  19.7307098  14.1139233  25.8289361  18.9607608  13.9167392
  12.0857048  63.2009983  40.8636284  11.3398063  62.6276398  41.0400629
  11.8942761  64.0006733  41.3536358  19.8877943  60.0556421  73.5724688
  19.4118059  59.3059015  73.9296246  19.2077053  60.6130600  73.1943226
  42.3760797  85.9969401  55.6451273  42.7152588  85.3111304  55.0699282
  43.0627443  86.6637630  55.6535578  32.1863413  50.5386496  19.8230278
  31.4267874  50.5107403  20.4048634  32.7360177  51.2362432  20.1800299
  70.7770061  17.8012919  49.2893648  69.9379778  17.6233172  49.7143221
  70.7561636  18.7396896  49.1017294  55.8947039  12.1517372  47.0581007
  56.0917282  11.4941168  47.7251482  56.5325308  11.9870377  46.3636398
  27.5339770  47.4209929  65.8780384  28.0028272  47.0369673  66.6189384
  28.1880403  47.4717379  65.1810026  51.5097523  30.9455609   9.4895655
  51.1888599  31.8471050   9.5114201  50.7455206  30.4252577   9.2416394
  59.9071884  62.7971792  53.3898067  60.3337908  63.3872128  52.7684355
  60.5874586  62.5923347  54.0312910  89.9958134  39.1528678   0.6433338
  89.3030834  38.8538694   1.2323610  89.5309830  39.5850062  -0.0731985
  91.4477634  15.6077158  13.4708631  90.7053471  15.6953979  14.0686572
  91.7233086  16.5078628  13.2975328   2.2588067  31.0017848  14.5615387
   2.0143487  30.2868223  13.9739144   1.4414048  31.2444115  14.9965298
  46.9519281  52.5759697  62.2475481  47.1598244  52.6510525  61.3162184
  46.8020582  51.6405964  62.3848486  25.0485802  70.9145880   0.9282540
  25.2283621  70.0998068   1.3973397  24.5200562  70.6465721   0.1765474
  29.0568376  48.4951973  49.5370245  29.9938893  48.3154249  49.4605589
  29.0029907  49.4450808  49.6421957  32.6244164  15.6704128   0.2538944
  32.2140765  16.5123403   0.4514043  32.5222230  15.5703318  -0.6925582
   2.8492776  16.5342546  10.6020260   3.6219168  16.3149297  10.0812984
   2.1643075  16.7027533   9.9549901  59.6012259  74.2260456   5.0859123
  59.4011068  73.2907104   5.1223600  59.5345974  74.5208025   5.9941578
  57.1340466  75.3810549  40.8380842  57.7507973  75.9157181  41.3380766
  57.4484348  74.4840336  40.9509754  57.8964567  60.0465918  70.6922388
  58.4168577  60.0451231  69.8888636  58.3961821  60.5913258  71.3003206
  85.3563690   9.2754561  61.1115408  84.4220543   9.1517866  61.2788391
  85.7899857   8.6793345  61.7221546  23.6462617  56.6197109  63.3508158
  23.4357953  56.6066599  64.2844963  23.5939813  55.7029104  63.0806684
   8.3884448  29.6967530   4.6332687   9.0511417  29.9621105   3.9955783
   8.3371806  30.4311085   5.2450925  90.1843548  18.4792042   8.7893569
  90.8508778  19.1514242   8.6475801  89.4406033  18.7635648   8.2581341
  89.4282913  15.8855593  15.7914901  88.5077858  16.1431432  15.7409966
  89.4044876  14.9458671  15.9721661  41.0040951  32.8389430  74.4218826
  41.8176365  33.1488037  74.8198318  40.4652023  32.5621557  75.1629734
   0.5982337  14.4567060  30.6076765   1.3038392  14.8567796  31.1159015
  -0.1977178  14.6672785  31.0958910  14.6700084  14.4457245   6.4914155
  14.6162760  13.4920549   6.5535414  14.2304516  14.7622991   7.2805941
  14.8635221  11.7067301  26.8361163  15.7515419  12.0482385  26.7311168
  14.8014796  10.9993792  26.1942172  79.2547703  81.0702419  48.3966494
  79.5957518  81.8807411  48.7748623  80.0236034  80.5078697  48.3024788
  48.4380245  69.2936134   0.0053219  48.3051682  70.1951075  -0.2877521
  49.2537165  69.3220806   0.5053910  26.6715169  65.6861353  63.2127762
  26.7194247  66.6086578  62.9619837  27.0888257  65.6499338  64.0734577
  47.8843117  78.7976408  62.4671936  48.1198215  78.8651228  61.5418768
  48.2316494  79.5976114  62.8617001  37.8703809  33.7840366   8.8225609
  37.6447535  32.8885818   9.0745199  38.0043340  33.7399173   7.8758073
  86.1529160   7.6150638  10.5989754  85.4112244   8.1862789  10.3993666
  85.8744144   6.7485428  10.3026450  27.7000022  40.5282259   9.0036565
  26.7796040  40.4499245   8.7527257  27.7664518  40.0417805   9.8253536
  20.4325366  45.9178305  60.4857302  21.0670471  46.4691782  60.9435987
  19.9445677  45.4828930  61.1849785  62.9109669   6.6469276   8.7568092
  62.8876686   7.5503850   9.0721720  62.5773001   6.6972363   7.8610587
  14.4803047  42.9065084  63.6537170  14.6975899  42.5880289  64.5298386
  14.9783230  43.7189960  63.5638714  51.5355539  73.4332943  61.4814997
  51.6486979  72.5995016  61.0251904  52.4082708  73.6455441  61.8124771
   4.9870020  11.3597226  74.4334078   4.7017711  12.2605741  74.5861864
   5.8489490  11.3080907  74.8464584  78.6096859  83.2276440  11.1367631
  78.3006430  83.3473015  12.0347655  78.1566429  82.4421406  10.8302188
  57.8921509  81.2092972  10.1352084  58.8389492  81.1096287  10.0358391
  57.5619650  81.2668514   9.2386067  88.6666298  79.4004250   6.6020465
  88.0008507  79.6887541   5.9776735  88.8325882  80.1693916   7.1473688
  54.5697832  10.4336190  69.3911839  54.6404696   9.7037929  68.7758875
  54.1514730  11.1318707  68.8875055  75.0565529  83.6010170   9.3952793
  74.3064356  83.7075901   8.8103008  75.0443268  82.6741505   9.6340168
  53.0659343  85.9109324   3.3501285  53.0956699  86.3148892   2.4828532
  53.9807178  85.8764836   3.6297947  86.4125156   4.2853481  64.0882635
  86.9168568   3.4718019  64.0915823  85.7761765   4.1697872  63.3826065
   4.2450067   5.2435809  10.7649839   4.6727374   4.5137548  10.3170633
   4.3561769   5.0514168  11.6960824  89.1319561  81.0532093   0.2275966
  89.1800499  80.1126480   0.0565281  88.5774422  81.1273479   1.0042854
  40.3987980  62.4603987  53.1102133  40.1413107  63.3616924  52.9162788
  41.3154125  62.5255537  53.3781672  80.0277805  34.2073059  32.3820782
  79.7505665  34.6299052  33.1949735  80.2358150  34.9330783  31.7936873
  79.7540236  15.3223300  17.4632609  80.5570793  15.5214357  17.9446006
  79.4567108  14.4887066  17.8278244  78.7699175  56.0495710  31.7688918
  79.6328449  55.6511116  31.8821049  78.4867716  55.7648611  30.8999848
  33.2911849  27.8138423  12.4490774  34.1600418  28.1934571  12.5802732
  33.2725859  27.5725460  11.5229774  51.3339949  57.6103163  63.9109564
  51.6806459  56.9469738  63.3142710  50.8050728  57.1161461  64.5372725
  51.1967278  52.8250360  64.9653196  51.0662174  51.9003963  65.1756430
  50.3538132  53.2357407  65.1578045  80.7625389  75.7415533  52.9161358
  81.4684963  76.1509323  52.4158716  81.0409737  75.8167171  53.8288498
  32.7075100  48.6709118  58.2408810  33.2393384  47.8773212  58.1808472
  31.9206738  48.4708595  57.7338314  64.4519234  63.5132647  68.0459642
  64.9564791  64.0546417  68.6530638  63.5537863  63.5592222  68.3737850
  75.5804873  25.3458333   1.4542028  75.9538794  25.6471848   0.6259537
  76.3315439  25.2731419   2.0431495  84.3317413  38.2193637  22.9627466
  84.3783379  37.6026607  23.6933208  83.8470936  37.7500653  22.2836995
  42.6146126  52.9911137  62.6191854  43.3480072  53.2919168  63.1557322
  41.9505215  52.7186108  63.2523966  23.9577579   7.1555281  12.2375751
  24.5262504   6.5566051  11.7534900  23.9423251   6.8041295  13.1278074
  48.3222485  75.4508972  66.1310291  48.8599443  74.9530602  65.5151749
  47.9158020  76.1332750  65.5968094  41.1172962  85.2851391  32.9900193
  40.3899527  84.8914146  32.5081682  41.1170197  86.2024784  32.7166653
  22.1187449  16.6301358  22.5927353  21.7842531  16.9709134  23.4223247
  21.4168477  16.7987239  21.9641256  70.6031895  12.2761595  15.5035436
  70.2152967  13.1510317  15.4843354  71.4790678  12.4103975  15.8655488
  40.3455114  78.1782198  61.3752985  39.7735357  78.3371687  62.1261692
  41.1882114  78.5521364  61.6327429  84.5411205  10.2579188  15.9407520
  85.3482533   9.7436148  15.9570050  83.8501072   9.6142983  15.7842588
  16.0859072  35.0550842  51.8872118  15.2515268  35.2113819  52.3294878
  15.9132075  35.2640390  50.9692001  49.9241447   7.9104066  57.2071028
  49.4994307   7.3397809  57.8476000  49.2431307   8.5328585  56.9521332
  30.6363177  31.2439537   1.6392909  30.1979160  32.0923185   1.7049703
  31.0359573  31.2475705   0.7695172  25.8101010  52.2618008  54.7837400
  24.9937868  51.7994308  54.9736786  26.4140224  51.9723654  55.4676533
  29.4635129  68.5885429  19.6757102  28.7647343  68.3507919  20.2851486
  29.9250698  67.7668762  19.5082009  31.4175582  80.1058483  59.4875956
  31.0255003  79.6514177  60.2332544  30.6769729  80.3156662  58.9186096
  90.7624245   6.2369859  11.7787981  90.9827328   7.0654094  11.3528752
  91.4434910   6.1196190  12.4410701  33.9876795  63.0945444  54.6528339
  34.3877172  63.6876297  55.2887964  33.3927035  63.6497259  54.1488409
  66.9218683  35.1257825  36.5476918  66.3601494  34.8098087  35.8399725
  67.5474691  34.4158411  36.6920590  70.5701685   3.1153268  50.5679464
  71.4857435   3.3875296  50.6300306  70.1998234   3.3231136  51.4257908
  13.6047208  23.9000845  20.6757212  12.8014576  23.4320498  20.9036326
  13.3046496  24.7561598  20.3702331  42.7796936  67.1146059  60.7578754
  42.8311872  66.1666679  60.8803225  43.6913919  67.3961687  60.6819391
  72.3040438  51.5264559  42.6804018  71.5250731  51.7279816  42.1619129
  72.5478029  50.6405735  42.4120283  79.2687464  10.6305373   7.6526290
  79.3653488  11.2024415   6.8911654  79.5079136  11.1815488   8.3978915
   7.9367161  67.2813225  56.3249207   8.5316634  66.5524721  56.1487341
   8.0879503  67.8934240  55.6047153  31.9442868  49.7222137  60.6373167
  32.7018094  49.6491623  61.2178802  32.2018576  49.2480946  59.8466873
  35.3006887  48.4326124  74.5922184  35.8961487  48.5972881  75.3233433
  35.3509903  47.4872875  74.4505930  11.4328539  19.8357332  42.1992493
  11.3599694  20.6214476  41.6574240  10.5785120  19.7574306  42.6237488
  10.3232014  27.1475673  29.3705940  10.8003557  27.3074055  28.5563421
  10.6948864  27.7729034  29.9927163  14.3761551  65.4521084  69.2635536
  14.0021467  64.6120071  69.5292234  13.6699724  66.0832310  69.4021893
  50.5458021  56.2476110  60.7926273  50.6762218  55.8572817  59.9284124
  51.1424303  55.7658768  61.3655186  66.5880013  52.8090572  72.7366400
  66.5709496  51.9172812  73.0840206  67.3699331  53.2021904  73.1242800
  73.5964489   3.9186981  43.2588863  74.4650221   4.1894788  43.5563564
  73.2710695   4.6664205  42.7576160  90.4484463  22.4035478   7.9522723
  89.8803520  23.1584001   7.7983105  90.7162571  22.1229029   7.0772028
  79.2183113  85.7382107  14.3636894  79.1252136  86.2855339  15.1434386
  79.5547199  86.3323402  13.6928105  47.4531412  63.4503937  36.0553265
  48.1939077  62.9357338  35.7349777  46.9349909  62.8305340  36.5686703
  -0.2291701  49.3090057  40.1943588   0.2891615  50.0095415  40.5903673
   0.3078916  48.5239172  40.3013086  81.1876297  77.6853228  41.2831068
  80.6662464  78.1098223  41.9644260  81.7171955  78.3911276  40.9121132
  14.3304169   6.1741859  10.4671872  13.9874542   6.3584095  11.3416409
  15.0527203   6.7927206  10.3579915  42.0243740   9.2186642  65.7620573
  41.0849142   9.0359360  65.7781267  42.1302319   9.9793166  66.3334036
  15.3517091  43.3765459  73.7583351  15.6810617  43.7085438  74.5935202
  15.8385277  42.5650454  73.6144400  17.6350236  80.7186508   4.9882084
  18.2409465  81.3933563   5.2945638  17.4708295  80.1760960   5.7595134
  17.8523362  42.8926086  58.8491631  17.2014105  43.4429598  59.2846394
  18.6906767  43.1837893  59.2078161  15.1764464  51.1785507  72.8829527
  15.5996168  51.8966389  72.4123049  15.8957505  50.5973959  73.1301212
  32.3622298  26.6090465  61.1171150  32.0515776  25.9086275  61.6908216
  32.3528695  27.3917627  61.6680241  88.7789059  68.4668970  45.8641720
  88.4048843  69.2711735  45.5043411  89.3642902  68.7654543  46.5601778
  81.1914253  10.3503263  16.9974363  81.1475945  11.0237086  16.3185644
  81.2151814  10.8401489  17.8194714  62.1403694  66.6163397  59.2738247
  61.4977169  66.0365391  59.6825600  62.5943232  67.0272541  60.0095558
  13.9007998  20.2323389  20.5731010  14.8466015  20.3168130  20.6937456
  13.5235250  20.6030965  21.3708687  25.4699922  78.2786465  64.8022270
  25.4839420  78.0069971  65.7199669  25.0788450  77.5378704  64.3390942
  12.0029378  39.9288058  57.5885630  11.8251204  39.9250269  56.6480350
  12.9356456  40.1333809  57.6551628  89.7682571  65.6166172  19.7114873
  90.6465912  65.8973789  19.4546926  89.5187473  66.2204409  20.4110408
  12.3752046  40.7449007   5.8538389  12.1172380  39.9263024   5.4300654
  13.1026745  41.0702276   5.3235722  72.8212500  76.8575001  71.9299984
  72.0794773  77.3230028  71.5435886  72.7072096  76.9669342  72.8740597
   0.3780910  13.1163418  50.8995485  -0.4799397  13.5176516  51.0372591
   0.2079118  12.3848605  50.3060770  24.1085458  62.6475000  52.2152948
  24.5041847  63.3474016  52.7347565  24.8252964  62.3164701  51.6740751
  91.6241264  11.0777998  73.2920790  90.7516479  10.7172942  73.4503078
  91.7052937  11.7938375  73.9221096  69.6675730  58.3857822  68.4185171
  70.2535582  58.7654829  67.7637815  69.1459036  59.1251755  68.7305832
  89.1159153  64.9785852  14.2709053  88.4777260  65.6467009  14.5210290
  89.1273499  64.3698454  15.0095129  32.6099181  36.4030170  58.6427927
  32.8866172  37.1345878  59.1945839  32.8239942  35.6228185  59.1543579
  57.0848799  83.0002689  24.3410254  57.1498299  82.9018116  25.2909303
  57.3036051  83.9180946  24.1798520  90.0941277  82.7179146  31.7527151
  90.4936695  81.8689823  31.9422102  90.6877136  83.3557892  32.1489668
   7.6573187  12.7369392   9.0105611   8.4543502  12.7667081   8.4813303
   7.3407340  11.8385255   8.9164382  66.6174936  39.1059899  65.1770926
  67.3028040  39.4955134  65.7200956  66.4728212  39.7448874  64.4791603
  68.9968252  22.9932952  48.8749504  68.9169741  22.0589757  49.0670443
  69.2118549  23.3935142  49.7174549  35.7946444  14.3638384  22.6578903
  36.3396215  15.1507521  22.6582909  34.9130774  14.6831250  22.4652028
  69.4221258  22.6717210  10.0763071  70.2311420  22.9926085  10.4747486
  68.8426018  22.4974704  10.8179414  78.5112715  31.9097424   8.5211194
  79.2176342  31.9872308   9.1624296  78.6413860  32.6518035   7.9306555
  35.6208491  24.8963380  47.4788427  35.2524590  25.6444764  47.9487467
  35.9552288  24.3219113  48.1676483  80.7089901  18.7558806  19.8019195
  80.2402306  18.6475992  18.9744103  80.0446892  18.6068904  20.4747748
  42.2144938  28.6870241  53.6959505  42.5797176  29.0390348  54.5076990
  41.3145113  28.4509921  53.9207935  34.9541521  47.6001549  56.4935732
  35.0368404  47.6125526  55.5400324  35.5113983  46.8737268  56.7728806
   9.9532050  38.4710169  14.6121788   9.5405638  37.7138543  15.0277102
   9.2320240  39.0803576  14.4545972  25.3529668   9.3146014   4.1636485
  26.1829734   9.0662533   4.5706415  25.5395174   9.3226969   3.2248384
  54.7938490  66.5324974  56.8806171  55.3781080  67.1125364  57.3689127
  54.0711212  67.0966816  56.6056776   0.9444735  39.2049026   4.3400717
   1.3006616  38.4990025   4.8795792   0.1493323  39.4781375   4.7975916
  38.3156300   8.0802268  52.2560835  37.3745131   8.1278908  52.4241877
  38.5426712   7.1653992  52.4227381  27.2556019  50.4843760  52.0527363
  27.5177813  50.5260706  52.9723835  26.3868928  50.8858490  52.0328951
  32.4267244  49.7386694  70.8264875  33.0682731  50.4430866  70.9183836
  31.6517258  50.0588131  71.2881374  59.8658657  71.9409895  35.7168245
  59.2505693  71.3414955  35.2946281  60.6330538  71.9391203  35.1444173
  13.6257207  75.9924984   4.5344621  13.3402181  75.5933905   5.3563094
  12.8168464  76.1308908   4.0417135   7.9388326  39.2501020   0.9353360
   7.0329517  38.9444947   0.9824052   8.2755542  39.1391134   1.8244550
  86.5057278  32.8071022  22.6090646  85.7578182  32.4759555  23.1062603
  86.4512444  33.7584496  22.6996136  12.1766031  34.3770623  32.0293450
  12.0927823  34.3866944  31.0758710  13.0664754  34.0623116  32.1883821
  29.0220809  78.0919075  71.7325497  29.5687127  77.7878380  72.4570990
  28.7014103  78.9476967  72.0172071  33.4061289  56.3205338  72.8959608
  33.1450176  56.8649912  72.1532488  32.7070141  55.6714725  72.9746246
  67.0714426  62.5509977  64.0711546  66.6642094  62.1920776  64.8595524
  66.3387108  62.8863335  63.5545444  26.4573768  67.6136245  74.2586820
  26.8566135  67.0055832  74.8808833  26.7494205  67.3047961  73.4010290
  71.1791754   1.6208819  11.1401176  71.9360447   1.0738887  10.9299397
  71.4282560   2.4973463  10.8468592  73.0855703   8.7114710  56.1093664
  72.7445078   9.3141747  55.4485655  73.2185602   9.2565888  56.8848610
  44.2022562  58.3287477  71.5341616  43.6824846  59.1323709  71.5500259
  43.9821148  57.9175806  70.6982708  77.1934462  19.0876675  10.5907023
  77.1435213  19.3150854  11.5191531  77.8083611  19.7215819  10.2215660
  29.5814085  84.1942692  15.5496049  30.0164747  83.3425903  15.5894864
  28.7110853  84.0025043  15.2003229   3.3614954  55.4076529  17.2555637
   3.8891217  56.2063026  17.2536719   3.3892071  55.1001406  16.3495290
  31.4493585  76.4538908  45.7343769  31.3559103  77.0930290  46.4407778
  31.5000534  75.6088543  46.1811066  37.6664281  68.9006376  71.6289759
  37.6372075  69.8280334  71.3937807  36.7622590  68.6009884  71.5345383
   1.3256255  34.2485380  39.8664522   2.0892072  33.6841154  39.7456098
   1.6265683  34.9341965  40.4627228  89.9741459   3.6158258   0.4372612
  90.5989361   3.9573678   1.0769665  89.6660709   4.3901435  -0.0336455
  32.0818472  45.9754324  54.5625734  31.3465905  45.3940535  54.7565413
  32.7959132  45.6494808  55.1103830   1.6828807  21.9333887   3.0933574
   2.5211036  21.4957571   3.2419914   1.9067866  22.8611183   3.0197564
  63.6057091  83.0397892  74.9513340  64.4203568  82.8762627  74.4761086
  63.2342196  83.8149452  74.5302057   4.9643645  48.8180447  31.5399289
   4.7794315  49.4222450  30.8209205   5.3428549  48.0484915  31.1147618
   8.6567211  23.5075808   5.4260057   9.5121592  23.6065435   5.8439332
   8.0700237  24.0539861   5.9489393  47.8077698  12.3339379   1.9359650
  47.5224590  13.2405543   2.0494379  47.5059652  12.0958006   1.0593612
  36.3493657  85.2875805  20.1680398  36.6268873  86.1461449  19.8485231
  35.8578753  84.9082851  19.4394767  77.2224426  47.8706694  73.5172415
  76.5671539  48.0238485  74.1979551  77.5117016  48.7466288  73.2617903
   9.2050761   9.3661517   2.3997261   8.4223723   9.6133053   2.8921908
   9.6273524  10.1985621   2.1875750  63.9661694  10.9498179  64.8660564
  64.4593191  10.9301126  65.6862068  64.6209002  11.1519253  64.1976929
  51.3051033  74.4602633  48.6149645  51.0261154  74.6302700  49.5146847
  51.0467958  75.2451277  48.1317472  31.2038469  68.1607103  74.3591070
  31.0422301  67.2655869  74.6572065  31.4296484  68.6412954  75.1555300
  22.8942871  62.1677780  63.9678001  23.7722588  62.5048590  64.1460419
  22.5727892  61.8742609  64.8202801  54.3407249  55.9387970  68.1789303
  54.3718529  55.5156374  69.0369511  53.9477730  56.7950392  68.3482742
  35.8062124  76.3048601  64.2819786  36.6082287  75.9441805  63.9039373
  35.6367278  75.7589149  65.0497341  79.0566301  34.8581147  60.6003380
  79.3441153  34.9540663  59.6923828  79.1551733  35.7327819  60.9764767
  71.7250156  17.0402193  41.6283321  71.3526344  16.2175393  41.9457674
  71.5353012  17.0427549  40.6901217  47.4223089  76.3104439  47.0863104
  47.8732157  77.1546650  47.0721626  47.8148651  75.8171415  46.3660431
  54.1291332  81.5098476   3.4057060  54.9592590  81.8167210   3.0410811
  54.2357016  81.5997028   4.3527022  37.0111537  51.1055756  68.6170769
  37.9578137  51.0602522  68.7512970  36.6868019  50.2536201  68.9089632
  75.9148693  75.1864100  57.4625301  76.1717749  74.5810747  58.1580877
  75.7416344  76.0118055  57.9152441  72.9917049  28.5253072   6.7957491
  72.5590181  29.3446541   6.5555757  72.5735140  28.2652545   7.6165527
  38.3044386  60.4531240  47.9032564  37.9896092  61.3570595  47.9065609
  38.2812953  60.1880741  48.8227367  64.1448164  78.8642216   7.7947557
  63.4980583  78.1857061   7.9885429  64.3413734  78.7492228   6.8650395
  89.8158836   8.0468392  15.4233217  89.3354416   8.0316710  16.2510800
  89.4018269   7.3655641  14.8935533  39.7228646  21.1675954  54.0778828
  40.4733324  21.0260963  54.6549511  39.9621916  21.9344330  53.5573912
  37.1152329  71.0038137  14.1807294  36.3053107  70.6696081  14.5661688
  36.8271184  71.5189409  13.4271646  46.7179263  61.4361287  74.8002934
  45.8776117  61.5171732  75.2514430  46.8478716  62.2869004  74.3813272
   5.0757748  28.4488487  37.6629376   4.5866510  27.7386832  38.0784559
   4.4061145  28.9828801  37.2356248  31.5479493  37.9045677   8.2045364
  32.4408150  38.1324339   7.9455060  31.0290027  38.6770010   7.9803216
  63.1235313  80.2720070   2.4872243  62.1788549  80.3333664   2.6288319
  63.4327698  79.6915722   3.1827131  89.5161819  77.6039886  21.6876364
  88.8661385  77.0446920  22.1129084  89.3015099  77.5550890  20.7561016
  42.4501944  67.1762085  70.7535982  42.1037674  67.0791721  71.6406155
  42.3448277  68.1068039  70.5557871   8.9351011   0.7237513   6.3392824
   9.8125530   1.0383207   6.1216545   8.8791347   0.8094770   7.2909921
  58.7889290  50.5611610  72.5537014  58.5283756  49.6764326  72.2975731
  58.0763245  51.1199427  72.2435617  37.7899885  75.6219006  41.7072201
  37.5465608  75.5673599  40.7831001  37.6798677  74.7300577  42.0369482
  38.3047986  21.9216251  58.4676600  39.1570854  21.5147209  58.3118773
  37.7953291  21.7182446  57.6832438  88.6222982  86.1127084  24.9871850
  88.7552761  85.4763957  25.6897926  87.6712751  86.1892892  24.9102330
   9.3719304  56.4514303  70.1923227   8.6620647  55.9787512  69.7577000
   9.1511011  56.4124584  71.1228848  37.8993773  70.4718304  53.6128855
  38.2591391  70.2171278  54.4625521  38.6680698  70.6483746  53.0705070
  91.0774040  76.2772608   2.7177757  90.4854488  76.1720800   1.9729486
  90.5130100  76.1920071   3.4861666  31.2597847  54.8058939  73.6490583
  31.4181209  55.4059649  74.3778086  30.5129194  54.2779827  73.9314270
  21.5896392  20.8245373   9.5581448  22.2350192  21.4543319   9.2370921
  21.2042117  20.4513669   8.7654155   6.5616935   1.4949095  70.3870249
   6.5998274   2.3508725  69.9602842   6.2828231   1.6859549  71.2825489
  68.6402225  68.2006979  54.6267700  68.2837248  68.0772734  53.7470484
  69.0036297  67.3464203  54.8599625  30.3199363  66.4406967  71.9132519
  30.5134034  67.3558331  72.1165609  29.7430563  66.4815855  71.1505127
  11.9109881   8.4984010   8.2972920  11.8137634   8.0581135   7.4529427
  11.4621997   7.9256147   8.9191735  27.6501679   6.4395773  17.4924040
  27.1733093   6.2922901  16.6756153  28.4790230   5.9759802  17.3727822
  42.7230310  54.5572662  72.4323034  42.0131111  55.0081730  72.8893948
  43.4287310  54.5063543  73.0769968  31.1746955  65.1301432  44.3164873
  30.5856085  65.8373165  44.0535975  30.6821728  64.3291330  44.1375017
  49.4388294  71.2089109  11.3519657  48.7784910  71.2272358  12.0446730
  49.0460110  71.7045164  10.6334269  86.1162376  29.0114903   5.6572121
  86.9505405  29.1870189   6.0923576  85.9381676  28.0896544   5.8436060
  86.2861156  28.0110121  15.7394958  85.3916264  28.3401895  15.6513751
  86.7623329  28.7229753  16.1667621  26.2826276  38.8486075   5.0729811
  25.3678608  39.1251469   5.1273566  26.3656712  38.4660196   4.1995037
  39.0022922  12.8651226   3.8583595  38.7424397  11.9739616   3.6248192
  39.2567110  13.2660091   3.0272192   3.9855066  61.3834047  17.7636373
   3.6626765  62.0290136  18.3922911   4.9385059  61.4606237  17.8090417
  90.3044987   6.0023719  58.1290960  89.9947166   6.0827339  57.2269773
  91.0913944   6.5464115  58.1614828  47.1893787  65.8685446  14.3032146
  46.5514660  66.5133190  13.9973354  48.0343294  66.2101221  14.0106142
  46.2783146  72.5277519  24.1658306  46.5782547  72.7624655  23.2876635
  47.0796919  72.3129416  24.6431971  85.5910969   6.9533283  38.0533218
  84.9274731   6.8180364  37.3769164  86.3872433   7.1695644  37.5679064
   6.9891745  59.3381786  18.8788402   7.8948343  59.3015718  19.1865277
   6.6023034  60.0699615  19.3595254  26.7167330  35.7124591  10.5806243
  25.8913541  35.4268122  10.1889789  26.4599156  36.3679957  11.2291217
  13.9684761   2.5551641  14.9576283  13.2525146   2.1511018  14.4673574
  14.5317662   2.9395008  14.2858982  50.6887770  53.3475447  47.9271126
  51.3770199  53.2748222  47.2658539  50.4534292  52.4418402  48.1284761
  74.5347023  45.7889986  41.1169291  74.8409653  46.0730886  41.9781685
  75.3342247  45.5677032  40.6394100  -0.1198695  14.0369248  70.0989771
   0.0706365  14.5690835  70.8714724   0.7033708  13.5869503  69.9091578
  35.5210686  74.2640400  46.9677687  35.1516914  74.6597385  46.1783266
  35.3637719  74.9105930  47.6558495  26.6280675  23.8258314  14.5973337
  26.9013143  23.8458204  15.5144870  26.5413857  24.7472835  14.3531072
  34.8611951  37.2645783  70.0291729  34.8795629  38.2198191  69.9707794
  35.0578427  36.9665074  69.1410780  80.3644943   0.4972613  50.9379101
  80.1542854   1.0901061  51.6594219  81.3166809   0.5491147  50.8549690
  13.5065961  44.9829865  39.0090084  13.9861166  45.8108139  38.9775157
  14.0128720  44.3915939  38.4520793  29.7881389  51.1669827   3.2400197
  30.2371693  50.6268501   3.8902977  28.8765836  51.1846066   3.5315481
  69.0215111  28.2624459  54.2530823  69.0154982  28.2099915  55.2088213
  68.2855844  28.8362694  54.0400696  44.6444750  40.1667833  27.0852089
  45.1704025  40.8953142  27.4151707  45.2785730  39.5827651  26.6691804
  37.9100704  47.1943712  73.1284666  38.1846786  46.3505459  73.4873199
  37.6677275  47.0019817  72.2226572   3.2250828  34.8368740   0.6072147
   2.9525346  33.9197659   0.6365468   2.8872910  35.1605344  -0.2278742
  60.6266928  64.7776842   3.9904866  61.0986900  64.9289942   4.8093614
  61.2894583  64.8862457   3.3084404  62.3560143  56.8122149  40.1714373
  61.6186094  56.7372084  39.5657682  63.0732822  57.1496868  39.6348977
  75.7799530   2.0978843  60.9627867  75.1372957   2.7143314  60.6117678
  76.2435055   1.7703512  60.1920271  36.0867214  24.3045878  14.8276830
  35.3809428  24.8384261  15.1925480  36.6356277  24.9269223  14.3505752
  25.3425932  83.2397842  58.2120037  24.6951389  82.5405121  58.1221962
  25.4813552  83.5539055  57.3185253  88.0344963   0.6716798  72.3481512
  88.3992290   0.7303359  73.2311916  87.4991226   1.4599329  72.2572947
  20.5843687  14.8864543   2.4791877  20.4269838  15.1575065   1.5747584
  19.7617328  15.0728500   2.9316884  52.6202393   8.3704478   3.0575484
  52.0930004   8.6588609   2.3125193  53.1728983   9.1237366   3.2657781
  79.1156435   7.4492496  53.6859941  79.3518448   8.0120075  52.9486084
  78.4853649   7.9651982  54.1887712  59.4899511  43.9120579   8.1810677
  60.1359177  43.9595079   7.4762905  59.9079895  43.3739090   8.8532841
  18.6375082   9.3787611  62.9961205  19.4215381   8.8298261  62.9819965
  18.8233888  10.0780177  62.3694468  39.2095590  71.3213873  44.0463972
  38.8744092  70.4451084  44.2362356  39.2479563  71.7532158  44.8997927
  36.0488200  35.2282166  19.8209119  36.2955213  35.4412103  20.7209134
  36.6215968  34.4995952  19.5816064  67.5596523  70.9065056  58.9844942
  67.2151470  70.3920078  58.2545376  68.2074070  70.3344440  59.3960667
  78.0802393  77.1061850  73.6127567  78.3416462  76.2128687  73.3894205
  78.3948946  77.6377201  72.8815269  17.8021872  80.2587700  71.4801359
  18.4413350  80.7008457  70.9213066  17.8977966  79.3308163  71.2656641
  23.8158965  33.7017512  26.0535645  24.2650890  33.5193682  26.8789077
  23.5229087  34.6092916  26.1357951  70.2010679  84.3879318  10.1045501
  70.9364748  83.9740181  10.5563056  69.5751715  83.6773109   9.9648684
  60.3639317   9.3038565  55.6730986  60.0731611   8.6263627  56.2835836
  59.6979618   9.9881566  55.7397747  34.0431118  67.4392939  59.1992283
  34.8328328  67.6101351  59.7124434  33.4260535  68.1164408  59.4766140
  79.7613335  12.4418330  58.2314062  79.7170925  11.5826428  57.8118038
  78.8545704  12.6418841  58.4637642  18.1304717   2.8249940  63.8981676
  17.5487721   3.1816927  63.2268858  19.0114534   3.0316916  63.5861158
  31.0453629  21.1039257   7.2983527  30.4668927  20.5177331   6.8105173
  30.5027914  21.8679380   7.4936306  41.0995626  64.2222977  43.4776449
  40.2452707  63.8232183  43.6424351  41.0356236  64.5656395  42.5864315
  19.1616690  78.9357662  42.0374632  19.0475476  78.8860846  42.9865360
  20.1085329  79.0007830  41.9131613   1.7051584  18.2581806  15.4086483
   0.8816380  18.4505153  15.8570385   1.4683461  18.2116592  14.4823730
  21.9961834  18.2987761  70.9167480  21.5142775  19.1249073  70.8779526
  21.8748379  17.9098046  70.0506020  71.2697124  55.7550621   4.0308180
  70.5964708  55.7389164   3.3505887  71.0302019  55.0412369   4.6218488
  34.9152279  79.0408945  55.9112644  34.8089147  79.8570681  55.4226017
  34.1821671  79.0330029  56.5267229  33.0632186  80.0659752  34.0650225
  32.3585844  79.4336128  33.9241767  32.6138806  80.8740425  34.3127441
   2.6552537  13.3056605  68.9138556   3.3358270  13.9787304  68.9084959
   3.1315309  12.4844289  69.0362072  32.6732159  84.0297413  52.3129272
  33.2909632  83.3224392  52.1276188  32.3578072  84.3040085  51.4518070
  45.1904917  50.2641869  63.1065464  44.5237541  50.3695726  62.4278831
  45.1559114  49.3350601  63.3340549  37.8836465  30.8656716   8.9916670
  37.2142148  30.2842712   9.3523145  37.8197360  30.7458305   8.0441511
  30.2369523  63.3050871  60.9596777  29.5733953  62.6777649  60.6726503
  31.0692477  62.8520966  60.8243465  44.3829155  59.8951578  52.6960039
  44.3482399  60.8418655  52.8330135  43.5343599  59.5772743  53.0044460
  78.9390945  50.1682520  52.3628235  78.3651066  49.4480848  52.6238441
  79.7153187  49.7379684  52.0042706  90.2244759   6.9024134  74.0747356
  90.6604576   7.5403190  74.6397400  90.9058094   6.6161704  73.4663963
  41.8232155  69.5622969  69.8524714  41.0352659  70.0373602  69.5885181
  42.5458622  70.0861788  69.5066929  48.5618067  80.8473015  66.7773294
  48.1404781  81.4247227  67.4139595  49.3237305  80.4972076  67.2389936
  22.0329070  26.4275408  45.0987625  21.1308098  26.1929464  44.8810005
  22.3341966  26.9416070  44.3496323  85.6100178  28.9820647   1.7408550
  86.1877632  28.2571363   1.5022795  84.7266483  28.6275744   1.6397427
  62.1737289  55.4444456  50.3431749  62.9976940  55.8640575  50.0957060
  61.5384674  55.7691336  49.7050095  43.4245968  69.6076727  10.1159048
  44.2596722  70.0476265  10.2750182  42.9925680  69.5977068  10.9700048
   6.1328113  30.9859824  66.4536381   6.9596058  31.4175653  66.6689968
   5.7264644  30.8097911  67.3022079  82.8572559   7.5641638  60.0913095
  82.6713181   8.3507121  60.6041479  82.0743656   7.0225418  60.1911211
  38.5637879  84.6806145  56.6034651  39.1174555  84.8489189  57.3659325
  39.1316247  84.8529434  55.8524036  75.6541300  82.8506088  52.3230314
  75.4335594  83.4129333  53.0655718  75.5210209  81.9604588  52.6488400
  81.2420845  67.0038509  62.3747683  80.8752346  66.1555624  62.6238871
  82.1764660  66.8346262  62.2542095  82.2151756  70.8626509  63.5804415
  81.7682743  70.2851677  64.1993332  83.0815411  70.4709053  63.4700632
  76.5153027   6.7146158  42.0880985  77.3882532   7.0885265  42.2080183
  76.0022831   7.4235791  41.7002630  49.9178076  68.9639759  69.9625731
  50.6305885  68.6793089  70.5345345  49.3520546  69.4894266  70.5283070
  37.2929525  67.7258396  64.3645763  38.1323767  67.3002815  64.5392179
  37.5263643  68.6135340  64.0930080  22.7992725   8.4092808  57.7747011
  22.3337603   9.2231321  57.5818920  22.9257178   7.9974067  56.9199467
  79.8468065  80.3295135  65.6885529  78.9128637  80.4020977  65.8853197
  79.9661779  80.8537674  64.8966265  12.1955729  40.8676195   2.5175130
  12.2078204  40.1998663   3.2032168  11.8204916  41.6394758   2.9415190
  55.0535488  81.9159985  67.6639652  55.2207232  81.1540127  67.1092844
  54.1924238  82.2293186  67.3873329  49.1270638  44.5179796   3.2710293
  48.4352398  45.1125288   2.9809922  49.0484667  44.5062542   4.2249250
  65.9492970  69.0812349  66.8886185  65.0582981  69.0838194  66.5388393
  66.1766481  70.0073147  66.9717789  79.9085569   5.9968597  64.6779537
  80.5245495   6.7126840  64.5218325  80.4164219   5.3448665  65.1608658
  36.9208527  42.0335054  17.6297176  36.5930200  41.2479162  17.1919835
  36.1347246  42.4720812  17.9551172  76.0537577   1.2584502  67.7701855
  76.8967867   1.1827968  67.3231888  75.4497814   0.7486000  67.2302818
  66.2601089  84.7549629  51.4839840  66.4124060  85.4528522  50.8468151
  66.0286713  83.9925957  50.9534550  88.6205769  21.4327979  46.7252970
  89.3970013  21.7725801  46.2803841  87.8993320  21.6190219  46.1241627
  79.5542908  62.6116943  54.3642187  79.8714542  63.2957268  53.7745285
  79.4322443  63.0562830  55.2030754  43.6354637  37.9163265  14.9247169
  44.3845272  37.3476553  15.1029146  43.9962673  38.8025689  14.9497306
  64.3886948  75.5735493  61.7749929  64.6630955  74.6641588  61.8930721
  64.8964548  76.0629082  62.4222517  30.9200311  26.6288352  32.1961832
  31.0609913  25.7203436  32.4626541  31.6774130  27.1004057  32.5429153
  79.6561909  53.6395407  35.5702496  80.6098843  53.5599470  35.5513597
  79.3842554  53.4759378  34.6671891  86.3121223  85.5441952  41.3882256
  86.3799286  85.2199650  42.2862864  86.5565777  86.4677238  41.4479113
  76.5833664  71.3842201  53.2436371  77.2757339  71.6049242  53.8666534
  75.7862091  71.3530111  53.7726021  26.7441535  30.8836126  11.4522696
  27.1419787  31.7001390  11.1501932  26.8811107  30.8865833  12.3996162
  25.5451345   9.4815952   7.7955431  25.8047891  10.1071334   8.4719408
  25.7266307   9.9318135   6.9705617  58.3136845  70.0736284  53.7507820
  58.0000544  70.8666611  54.1854811  57.5216818  69.5624018  53.5846043
   7.3163372  34.2801189  10.0530410   6.8395245  33.4908032  10.3096700
   8.1073594  33.9533639   9.6243852  12.7304459   5.3361720  64.1379213
  12.0345986   5.7715166  63.6454725  12.6034832   5.6278360  65.0407219
  39.6751809  70.5304623  68.1719065  40.2459812  71.1263657  67.6868153
  38.8699412  71.0292721  68.3097649  33.2151437  84.9200153  72.5270748
  32.4432182  85.4333591  72.7654886  33.7379718  84.8875237  73.3282185
  36.2953258  22.8239536   4.5617253  35.9642673  22.0465350   5.0114489
  35.9557486  23.5588837   5.0724107  32.5672913  71.7896318  67.2426844
  31.8808174  72.3391533  67.6208496  32.9891539  72.3485279  66.5900803
  33.3727121  29.4953346   1.6343397  33.5139394  29.0382409   2.4634080
  32.4258423  29.6293473   1.5929915  13.8624132  42.9095697  14.6679914
  14.0391088  43.7341881  14.2152047  14.6975625  42.4422359  14.6491218
  58.0888939  85.7694340  14.7051275  58.4684086  86.0593414  13.8755739
  57.1448326  85.8730793  14.5858181  50.5430746  11.1112356  70.4329348
  50.5638313  11.7591333  71.1372280  50.5519915  11.6308820  69.6291208
  29.4870257  53.4497213  15.7366347  29.8282027  54.3428946  15.7821441
  30.0519705  52.9473305  16.3237226   3.6973810  33.3836341   9.6035212
   3.2197854  33.2532001  10.4227412   3.0367500  33.2693720   8.9203358
  58.1709337  79.9274302  73.2468462  58.6816740  79.3117714  72.7211618
  57.2647285  79.6375370  73.1420374  75.4256344  80.3942966  39.1590786
  74.8003531  79.8822784  39.6720028  76.2831545  80.0673676  39.4311261
  86.2095737   5.3424466  60.3113985  85.3417587   5.7191813  60.1657724
  86.6385460   5.9535676  60.9103489  68.3762646  20.8636117  50.4573059
  67.8604221  20.8478665  51.2634611  68.4290361  19.9463689  50.1887703
  19.5270860  47.3951387  18.0047643  19.3082166  48.2315969  17.5940716
  18.6804569  47.0130110  18.2359087  20.4224944   9.7602594  12.6185036
  21.1954069  10.2104127  12.9593873  20.1554847   9.1735643  13.3261240
  10.7547987  48.3918142  22.1814299  11.5237308  47.9067087  21.8820143
  11.0397708  49.3054438  22.1987295  87.9946899   7.1307641  17.9203999
  88.4848785   7.5597465  18.6217725  87.7774429   6.2678570  18.2731414
   8.8192475  75.1653814  46.1525965   9.4701624  74.4660234  46.2112284
   9.1040272  75.8123541  46.7980146   1.1647177  79.0133905  13.4541309
   1.2907411  78.2453871  12.8968859   1.5465543  79.7360420  12.9559314
  60.2420664  79.4729996  55.4658699  59.9258423  79.9046135  54.6721792
  60.9609127  80.0272274  55.7697153  91.7883396  26.7370224   1.6455829
  91.0007668  26.8565130   1.1148453  91.5771580  27.1485853   2.4835864
  90.6554317  12.0280814  35.0846171  89.9378681  12.5111055  35.4945135
  91.2283802  12.7070224  34.7282457  35.0526309  27.6910162  21.3117170
  34.8236966  28.0692768  20.4627538  35.8801103  27.2358203  21.1558080
  68.9660883  19.4267392  61.1606026  68.2518482  19.3586838  61.7942095
  68.7318563  18.8085747  60.4683304  79.9190521  61.6677618  28.5532331
  79.6253538  60.7652521  28.4289360  80.6203365  61.7819118  27.9118204
  58.8368654  72.3818588  72.8734493  58.8285542  73.2215071  72.4139309
  57.9142046  72.1356916  72.9392433  14.5998609   9.6929538   8.9159840
  15.0854445   9.0533489   9.4368929  13.6922383   9.3909222   8.9510852
  89.8052883  47.7950525   3.8122910  88.9416504  47.4969530   3.5268110
  89.6237755  48.5345888   4.3922645  65.9946632  64.6556616  47.1704149
  66.7685747  64.1249657  46.9815922  66.3462877  65.4883623  47.4853897
  75.6051493   0.0247093  53.0739450  76.2705851  -0.4546415  53.5675526
  75.7710266   0.9447759  53.2793570  13.1896389  31.9960403  63.4988737
  13.5123146  31.8819499  64.3927956  13.7085700  32.7195239  63.1474304
  68.5795593  81.5474415  34.6680474  67.6264572  81.4958954  34.7399545
  68.7448120  82.4107742  34.2891169  17.2551870  66.5146303  33.3428454
  16.3120878  66.6766453  33.3194757  17.3767066  65.7298517  32.8084397
   1.4780481  29.4560289  20.3427815   1.2744714  28.5935497  19.9809515
   2.3956716  29.6017909  20.1126671  13.3052003  34.0520167   8.4625679
  14.1477418  34.2203188   8.0406308  13.0487347  34.8974180   8.8310134
  41.0906935  22.9582429  12.5061750  41.4947414  23.8259864  12.5060105
  41.6002893  22.4566340  11.8698347  70.4820442   5.8691847  39.7948790
  70.1951504   5.7272089  38.8927889  69.8564291   6.5014893  40.1484728
  66.6405964  41.1102200   8.4558785  66.8504143  42.0339203   8.3180887
  66.4270401  40.7803345   7.5830674  49.0751314  63.0112267  62.0307159
  49.2042589  63.9389277  61.8334103  48.9594698  62.9821920  62.9804564
  24.9685717  31.5028715  20.0948334  25.2114773  31.5947104  21.0161352
  24.3293595  32.1994448  19.9450839  21.1093950  10.8455479   8.1103206
  21.7300606  10.1289153   8.2423937  20.9466171  10.8506453   7.1670771
  85.7572269  82.1567917  74.3147802  86.6153717  82.0127487  73.9159536
  85.1463890  82.1497345  73.5778522  21.8738794  56.0288715  58.7158823
  21.0708833  56.2956524  58.2683849  22.3002887  55.4280138  58.1048346
  55.3508806  12.9055583  74.5793390  54.7832298  13.4905541  75.0811195
  55.0758553  13.0263519  73.6704922  46.7417097  84.8709393  54.7492933
  47.1955967  85.2190876  55.5167627  47.3339081  84.2033005  54.4031954
  36.8600965  44.2018938  74.3452406  35.9124088  44.3349171  74.3659639
  37.0957375  44.0156078  75.2540874  67.3047876  22.3355913  64.2958212
  67.8383303  22.9791927  63.8296223  67.1071434  21.6676593  63.6392927
  52.9802275  47.2179651  33.3839250  52.6989079  47.5767756  32.5422907
  53.9092350  47.4413872  33.4410477  64.7220993  63.8233805  58.3676672
  65.1794481  64.1842175  57.6081562  64.8056698  64.4988203  59.0407419
  35.1634145  85.5163479  53.6672306  35.7024527  85.9083939  52.9802322
  34.2792845  85.8378983  53.4907341  58.9402962  24.6377444  17.0191097
  58.1065464  25.0560021  16.8042922  59.2624235  24.3020892  16.1825681
  18.4345818  57.0587730   2.5029650  17.7910995  57.2557592   1.8222603
  19.1657674  56.6582537   2.0326588  45.2054071  31.9482732  71.5500259
  46.1287832  31.9961381  71.3024044  44.9399281  31.0594058  71.3140917
  63.3349943  83.6623573  44.0435743  64.0146542  84.3184185  43.8890505
  63.0066633  83.8596630  44.9207878  62.3696613   5.7567662  67.8196287
  61.6792631   6.4196956  67.8091431  61.9204092   4.9396509  67.6034641
  63.4877300  47.2370386  11.7880166  63.5430336  46.3749504  11.3757288
  64.1110849  47.7759218  11.3009095  23.6500669  37.1231103  36.8030739
  24.5104313  36.9222498  37.1713972  23.0427718  36.5754294  37.3005342
  91.1924553  66.1696339  42.4832296  92.1341705  66.0639858  42.3481655
  91.0951042  66.2599611  43.4311724  18.0966365  27.9053640  23.1564665
  17.8698659  27.8270221  24.0831113  19.0186512  27.6518822  23.1132650
   3.0311432  31.7364931  73.0667400   3.6485335  31.0721421  72.7606392
   2.6502028  32.0965886  72.2658348   7.1287657  83.3758740   0.0522242
   7.9337812  82.9757861   0.3810321   6.5123583  82.6473669  -0.0223054
  23.6070275   2.3263036  58.1108856  24.2186165   2.9540899  58.4956932
  23.9762592   2.1290524  57.2500753  74.0560579   4.2714468  39.3214488
  74.8232603   4.3746197  39.8844624  73.6935425   5.1541668  39.2464757
  43.1695509  77.7324343  56.8414116  42.7804422  78.5702610  57.0921659
  42.4204731  77.1689367  56.6475296   0.5249574  86.1794186  73.4773159
   0.8731821  85.3134346  73.2650852  -0.4044363  86.1249638  73.2548285
  87.4490547  63.9849806  53.4022284  88.0114460  64.7249317  53.1732750
  87.0098305  64.2581797  54.2076302   6.5378791  33.7395692   4.0434292
   5.7709169  33.1719661   4.1197625   6.3666773  34.4568801   4.6536660
  26.3028812  58.4863615   3.6153585  25.8563471  59.0585279   2.9912886
  27.2060323  58.8032389   3.6270255   6.2827682  64.5676661  58.8054609
   6.2832654  64.6375704  57.8508186   7.1753097  64.7985029  59.0629816
  89.8256588  16.0651481   9.7420794  89.9159622  15.5711997   8.9271611
  90.0604820  16.9624460   9.5055509  48.5900402   8.5771531   1.9953781
  48.7965775   7.6656181   2.2019625  47.9425335   8.5226607   1.2925264
  17.3142576  19.4000006  35.4145980  17.1428704  20.2495313  35.8209944
  17.9595733  18.9861345  35.9877610  20.2053499  49.0856028  60.0706148
  19.9032891  48.5015965  59.3749666  21.1603045  49.0490150  60.0162363
  88.6292839  22.4878383  69.8045635  88.0674934  22.4702859  70.5793571
  89.4926643  22.7290726  70.1401472  39.2473507  58.7237787  59.7842884
  38.7223959  59.5205927  59.8600721  38.7706280  58.1817722  59.1556501
  43.4598827  81.0653782  51.1583424  43.1752586  80.9346485  52.0628500
  42.6530170  81.2502289  50.6776953  69.7319794  47.7993774  43.9531422
  69.5011950  46.9289446  43.6286211  69.2848110  48.4026337  43.3595514
  69.3798161  25.7626915  30.2509022  68.7204170  25.0834441  30.3924990
  69.4480944  26.2097907  31.0945106  71.6262054  32.2623849   1.8488954
  71.4506054  33.2014441   1.9085783  72.0109844  32.0363784   2.6957130
   4.0023479  38.8301492   4.1655961   3.8915071  39.2501211   5.0185728
   3.1100434  38.6509252   3.8691103  41.7681980  58.9798307  63.2994890
  42.6290941  58.8789415  63.7055779  41.6509485  59.9263811  63.2186651
  43.5193062  12.9837155  24.7195745  43.3460808  12.1951556  25.2337718
  42.6916885  13.1660903  24.2745829  42.3705149  34.1239810  15.4326260
  43.0971670  34.1162801  14.8096108  42.4710226  34.9488974  15.9076428
  73.0157661  54.2980814  11.3128531  72.6903200  54.1296625  12.1971333
  72.2514963  54.6174526  10.8331394  81.2579536  27.6589704  39.4622397
  81.9932461  28.1947279  39.1646910  80.5099583  27.9767561  38.9565134
  76.2650537  74.4785929  52.8690052  75.6476116  75.1578045  52.5975800
  76.9749594  74.9573660  53.2968426   1.8846433  20.3869867  41.5773201
   0.9599411  20.2224159  41.3927269   2.0786668  19.8378479  42.3369455
  31.1258292  38.6651587  21.8482494  30.8201504  37.8583407  22.2627783
  31.3020062  38.4163809  20.9408879  42.9934502  36.0464740   9.9534243
  42.0489120  35.9903622   9.8087478  43.3720255  36.0258341   9.0745115
  27.0195937   2.5682586  72.9835129  27.6309323   2.7647948  73.6933517
  26.8552327   3.4146383  72.5677490  54.4168091  80.3433800  65.0523090
  54.8334360  79.7506809  64.4267225  53.4791660  80.1822281  64.9470139
  16.7717934  34.5153069   8.3999276  16.9238937  34.8714948   9.2752719
  17.6099193  34.6203279   7.9496515  16.6420233  32.0888853   1.4166394
  16.8246746  31.5555882   0.6430344  17.4631345  32.0864010   1.9085750
  89.7288799  74.6080971  53.2235050  89.2988682  74.3644238  54.0432262
  89.0498352  74.5046282  52.5568485  50.0002813  66.9957113  53.0528784
  50.7928371  67.5003004  53.2358360  49.3855286  67.6365089  52.6955462
   9.4504923  77.7433443  47.4602795   9.3302065  78.6157179  47.0851326
   9.1087902  77.8166389  48.3514023  44.9330378  38.5421538   0.8929035
  44.6887875  38.3922458   1.8061939  44.7957039  39.4799519   0.7590785
  21.5712738  53.7340593  60.1283884  20.7447791  53.8761330  60.5898619
  21.7139173  54.5435381  59.6378469  73.4080696  56.6968298  15.6239080
  73.5522175  57.6296663  15.4649615  74.1426134  56.2634993  15.1892793
  46.5142059  14.1867459   8.4970182  46.8855810  15.0643671   8.5869718
  47.1887398  13.6872399   8.0368817  39.0461302  28.7140155  12.1191633
  39.1143894  28.4149003  11.2124646  38.4850073  29.4882035  12.0743716
  28.4038091   8.1446016   4.3981418  28.5723901   8.2332861   3.4600869
  28.6812973   7.2528917   4.6081075  13.2154834  11.7514670  14.1412127
  13.0991220  10.9849334  13.5798597  14.1530097  11.7673218  14.3336320
  50.9745932  79.7566128  67.7958727  51.3518715  79.7548580  66.9161654
  51.0434151  78.8476181  68.0878115  69.0720558  36.0967517  75.0589228
  68.2328415  36.5560460  75.0905228  69.5316076  36.4883828  74.3161774
   8.9876467  44.3773890  70.3611374   9.1111958  43.6655807  69.7332096
   9.0856743  43.9610672  71.2174654  42.7966691  59.2261387  74.5399197
  42.3352886  59.5974113  73.7879116  42.1318413  58.7132467  74.9994590
  73.1163025  82.2874641  56.1521769  73.8130188  81.8889618  55.6306314
  72.3093987  81.9090080  55.8030176  27.8243208  72.9642868  13.7050831
  27.8679132  73.1049347  12.7592778  26.9214702  73.1806564  13.9380455
  29.8687220  44.6968937  13.9382279  28.9957714  44.4654369  14.2554319
  30.1256037  43.9596176  13.3844471  32.6931095  15.1495230   5.0405610
  32.7800465  16.0136509   5.4430008  33.5700059  14.9481380   4.7138715
  24.7948527  46.6426277  62.8320503  24.7341585  47.2590303  63.5618401
  24.1130614  45.9944153  63.0087042  70.7151699  49.0806580  73.3989429
  70.6213140  49.9224424  72.9530525  69.8396826  48.6948442  73.3690262
  81.1936283  41.5009165  56.7460823  82.1172714  41.3471889  56.9448137
  80.7229519  40.8733845  57.2946215  50.1714659   1.8186255  53.7569141
  50.1368618   2.4305680  54.4921446  49.4440699   2.0807976  53.1926489
  89.5863247   7.6239425  48.1992197  89.9390602   7.0085293  48.8419247
  88.7822437   7.9541707  48.6000156  21.2478948  55.2899408  23.2972455
  21.5783072  54.6825218  22.6353574  20.7838464  55.9607601  22.7963519
  58.0178165  60.7793713  39.4961715  57.8551435  60.6672192  40.4327583
  58.8299990  60.2991629  39.3349504   9.5893604  82.2105503   0.9590328
   9.9177951  81.4243507   0.5228544   9.0644008  81.8787479   1.6874257
  62.1084881  62.1080399  57.8783894  61.6770697  62.9465723  57.7141714
  63.0038357  62.3430061  58.1220675  58.5131168  31.0983133   0.7018752
  59.0613604  31.7855382   0.3232119  57.6168823  31.4090657   0.5737074
  71.6300583  69.4209623  73.3176041  71.0062885  68.7694359  72.9972029
  72.2226286  69.5680428  72.5804043  17.6133692  78.3650923  32.7278233
  17.1197033  79.1716146  32.8762865  17.2718561  78.0239534  31.9012499
  48.3350992  70.7728910  71.1461210  47.9837227  71.6179037  70.8655500
  48.0855417  70.7037783  72.0676279  57.9459620  76.3367558  60.2815056
  58.3316278  77.0800924  60.7451296  57.0223761  76.5684414  60.1838303
  45.7094479   3.9520589  12.0817649  45.1293612   4.4776750  11.5308917
  45.9524488   4.5365727  12.7997649  75.6204844  80.2355194  61.8096352
  75.2592802  81.1089802  61.6585064  75.5780172  80.1197243  62.7588558
  24.2393899  46.9097424  26.1928678  25.0232172  47.4502468  26.2913775
  24.3824863  46.1703777  26.7837119   1.7923790  38.0513024  51.1425638
   2.2709496  38.8645005  50.9815979   2.4669528  37.4237704  51.4021540
   5.7391816  13.0937934  50.1873541   5.1418793  13.7359345  50.5709124
   6.5660554  13.2295310  50.6500483   5.8141333  56.6013622   0.9753747
   5.2813929  56.9480753   1.6910633   5.2180892  56.0343218   0.4860590
  49.4440174  71.8889284  16.5910637  50.2057028  71.3577986  16.3587582
  49.5120144  72.6627302  16.0317409   3.8722739   9.3169868  37.9221082
   4.3681008   9.3930429  38.7373400   4.3645716   8.6830157  37.4006128
  80.1418304  63.0453157  42.9621410  79.6508169  63.7463665  42.5335884
  79.8658705  62.2483158  42.5095224  36.5270448  69.2064142  59.7920322
  36.0073400  69.3766403  59.0064383  36.5920496  70.0574827  60.2252674
  58.6274290   7.2641474  46.5338612  57.8121471   6.8167984  46.3070917
  59.1249561   7.2842968  45.7163715  80.4504776   0.8567747  60.7851171
  80.5588627   0.9651478  59.8402691  81.3161087   1.0435517  61.1484861
  57.1670198  34.6874619  26.4259076  58.0897570  34.5885324  26.1913705
  57.1299839  35.5126071  26.9096398  56.4349699  65.0910044  71.7393875
  55.7912779  65.7982588  71.7804766  56.9491243  65.1882315  72.5409031
  67.6815414  10.9252775  71.9594336  68.0052185  10.1014888  72.3239040
  67.0194197  11.2200475  72.5846863  49.2899609  14.2178512  22.8505158
  48.5884857  13.7677455  23.3212233  49.2918253  15.1036501  23.2132649
  37.6557088  65.7517052  24.8208976  37.6856709  66.5918827  24.3632579
  37.1120095  65.1947451  24.2637444  60.8959198  60.2557039  70.9124470
  61.2483120  59.6916294  70.2240658  61.6084909  60.8625364  71.1130190
  39.3506527  81.0384750  70.0168896  38.9634776  81.5171432  70.7498312
  38.9447904  81.4218044  69.2393541  58.2097483  37.4172401   2.4436425
  58.7433434  38.2037210   2.3298199  58.8105106  36.6928434   2.2688037
  77.5955868  62.5323153  68.7100744  76.8064308  62.9540443  69.0500879
  77.9525232  63.1617832  68.0834961  70.8985281  80.4020214  49.7321081
  70.2361202  80.9904099  50.0943804  70.7062244  80.3729343  48.7948751
  74.2434216  79.4426441  67.8761339  74.3498755  78.6578846  68.4137726
  73.3274889  79.4206476  67.5989676  61.6575956  67.6360798  71.4846468
  61.2743950  68.0273104  72.2697115  62.5518847  67.4110651  71.7412615
  81.3933659   8.7943465  66.5101004  82.2393894   8.7563157  66.0639715
  81.4418030   8.1069309  67.1744394  57.5991011  75.3018713  23.6527324
  57.6528263  74.7982740  24.4649744  58.5065222  75.5320787  23.4531832
  71.9574118  27.3152256  53.5786438  72.2303343  26.8660545  52.7786493
  71.3051462  27.9514861  53.2854557  78.5338163  29.5254493  25.0841784
  78.9475060  29.4483614  24.2244411  77.7401161  28.9947009  25.0165176
   6.5069437  11.1491847  37.1089101   5.7496864  11.4197600  37.6281238
   6.1376613  10.8859038  36.2659717  19.8413062  12.4132621  36.1008763
  19.5608068  13.1009054  36.7047787  19.0260065  12.0593762  35.7455134
  47.6201963  57.0879650  72.1342134  47.8633642  57.5991535  72.9060841
  46.6724777  57.2007370  72.0610714  78.5947371  26.6735268  51.6610622
  78.8496923  25.8458185  52.0686531  78.1447411  26.4157200  50.8565283
   0.5795648  66.8999243   2.1977350  -0.0985358  66.5684843   1.6090423
   0.8533647  66.1343241   2.7028346  82.4954128   4.1920912  65.6252480
  82.8100586   4.4058776  66.5036106  81.8872547   3.4651238  65.7590342
  25.9157324  66.8738413  19.2690277  26.4893007  67.1738052  19.9742055
  25.7821321  65.9431553  19.4484675  80.5148125  19.6289432  58.9260960
  80.5050468  19.7718537  57.9796743  81.0074711  20.3715825  59.2753887
  58.5383844  19.8985505  70.6065416  59.4337511  20.1459289  70.3755569
  58.5227489  18.9455950  70.5178785  67.8131533  84.6184349  53.8392830
  68.5653543  84.9372387  53.3404922  67.0671034  84.7411633  53.2522726
  11.0575962  29.6058583  12.9472566  10.8923614  28.6831427  12.7535439
  11.8621719  29.8102880  12.4707079  57.0816422  72.4862051  43.7198210
  57.3619080  71.5740061  43.6451387  56.1789131  72.4862337  43.4015369
  62.6582527  12.1003914  72.9933214  62.6947212  13.0536938  73.0715275
  61.7236233  11.8943655  73.0089760  45.7009745  35.1109028  14.0705371
  45.9650850  35.9608316  14.4228125  45.4349852  35.2970362  13.1700742
  11.0103619   1.2773989  45.9147453  10.9301138   1.8787792  46.6551065
  10.1785398   1.3594252  45.4482937  48.3566284  81.0060787  46.1695290
  48.7022209  81.8877888  46.3087463  48.3656311  80.8926010  45.2191210
   5.1730716  13.3304238  70.9125328   5.1232994  13.7470865  71.7728519
   4.9730536  12.4095428  71.0804701  10.4313290  16.4738929  62.3494577
  10.0864697  16.2235248  61.4923620  11.1971927  15.9130764  62.4726152
  17.9094553  61.3242435  72.0402813  18.2111025  61.6546154  71.1940575
  16.9662714  61.4874411  72.0387077  89.7668648   9.3603146  64.2686892
  90.7049465   9.4778597  64.4184208  89.4865227   8.7634349  64.9625015
   7.9114395  36.6386461  68.4280539   7.4274707  36.6624665  67.6025629
   7.3206639  36.1988592  69.0394497  38.6616015  11.7787516  71.4645433
  38.3751035  12.6847589  71.3492012  39.6094823  11.8089247  71.3347673
  74.4690228  12.7180302  64.9744129  74.5793915  13.5319471  64.4828939
  75.3523445  12.4929678  65.2665091  69.5693874  77.6091290  50.3140068
  70.2489662  78.2630730  50.1504230  68.7667084  78.1194830  50.4211140
  80.9302044  30.5109954   3.7130904  80.6608963  31.4200234   3.8449097
  80.8589554  30.3746843   2.7683285  18.1440008  22.5424170  71.6224289
  18.2250524  23.4933853  71.6953897  18.0418062  22.2407937  72.5251007
  18.5578549  52.3588276  59.7428322  19.2048991  52.1123886  59.0818977
  18.6497843  53.3079863  59.8257971  81.5482616  72.7846050  73.0099010
  81.3102245  71.9287443  72.6534367  80.8276749  73.3599043  72.7529716
  34.2894793  75.2902508   0.9222648  34.3124700  76.2452602   0.9827642
  34.1656256  75.1122332  -0.0100448  41.1657572   9.1300237  35.3811193
  40.9305763  10.0513601  35.2713037  40.5292034   8.7939042  36.0120392
  31.0936880  81.8732643  34.7476530  31.3717151  82.3309803  35.5410218
  30.9637046  82.5687790  34.1029811  68.2506371  13.5289299   0.1756236
  67.8865576  14.2605126  -0.3228405  68.9425755  13.9222193   0.7073861
  63.4722281  84.0474224  67.0830727  64.3662930  84.3890476  67.0961523
  63.4712362  83.4061337  66.3724470  53.1720781  64.0241957  21.0765314
  52.7563334  64.2813587  20.2535772  52.4847364  63.5645199  21.5587044
   7.2621554   5.0147170   1.6191390   7.6008713   4.2357486   1.1778779
   6.5860158   4.6810019   2.2088006   7.3088944  32.3534012  32.3949623
   7.2636467  31.8016887  31.6140676   8.2433027  32.4092579  32.5949430
  52.9831028  16.5500379  73.7725496  52.9237366  17.5052762  73.7875891
  52.1022224  16.2517262  73.9990282  85.4885483  39.4079661  39.3665910
  85.5136204  39.2275143  38.4268880  86.3638973  39.7371054  39.5707059
  74.4483614   3.4413511  68.2496691  74.5866299   4.1691172  67.6434755
  75.0444031   2.7578992  67.9432964  84.0643787  56.3160610  55.8957958
  84.7757244  56.9560003  55.8693838  83.6980247  56.3285446  55.0115681
  77.4111366  74.0545988  43.0267429  78.0655289  74.3062544  43.6784124
  76.9063091  73.3601856  43.4500313  61.5431976  45.2801180  15.1152396
  60.8490992  44.7914314  14.6729279  62.3366928  44.7704268  14.9514949
  35.6083393  26.6569281   4.7709391  36.0467076  27.4727535   5.0127935
  35.8456945  26.0424829   5.4654539  32.8141904  81.8055248  43.9729881
  32.9106092  81.8104458  44.9253082  33.3342028  81.0558605  43.6834717
  30.0903797  21.0061049  58.2595873  31.0341573  21.1403227  58.1729841
  29.9615717  20.8013010  59.1857100  73.3329487  38.6892676  46.8206453
  72.6609898  38.3492422  47.4114799  73.7462854  39.3995333  47.3114681
  10.7801127  21.9124746  68.4569263   9.9998093  21.4632583  68.1320190
  11.4072728  21.2098360  68.6278105  64.2494106  41.5371037  31.3591266
  63.6290073  41.6097021  32.0844245  64.4197702  40.5982876  31.2827229
  23.6734581   0.7464046  61.9126368  23.7314391   0.1871851  61.1379480
  24.5793414   0.8437226  62.2061300  56.7146254  80.3149891  62.2284889
  56.1836576  80.3245449  61.4321136  56.9315004  81.2344456  62.3827934
  37.0707750  29.8844433   2.9025245  36.5265059  30.6408453   3.1212905
  37.0864701  29.8694110   1.9455712  21.3096571   9.5930725  65.0797415
  21.2650204   9.3623537  64.1518402  21.8614435   8.9146394  65.4689598
  49.9910450  55.2051210   2.4670190  50.3718281  54.4974470   1.9469875
  49.2512369  54.7990704   2.9187283  13.9146316  38.6612678  72.3240757
  14.1301715  39.4096947  71.7676306  14.5258522  38.7245774  73.0579948
  20.7188916  65.0735140  60.2669573  20.6521440  64.6902609  61.1415386
  21.5477443  64.7410679  59.9223995  56.0322094   6.4355129  40.2585554
  55.2209806   6.0627383  40.6037807  55.7470226   7.1781677  39.7262359
  59.8678684   5.7270473  64.0131855  60.1376820   6.4380741  64.5944500
  60.3184175   4.9545768  64.3545437  51.3532686  50.0974751  27.0463276
  51.3541508  50.7217693  26.3207364  51.5029430  49.2479086  26.6315126
  17.5692439  28.3796549  69.8426294  18.1350589  29.1505408  69.7999239
  17.7909076  27.8761673  69.0593052   3.8099679  11.6385019  46.3662767
   3.1334531  12.2334886  46.0429335   4.3136105  11.4024842  45.5872536
   0.8705021  28.4812117  41.7819118   0.2191350  29.1777802  41.6997957
   1.6647491  28.8491249  41.3945580   3.4995887  27.3181438  50.8557987
   3.2735953  26.6681790  51.5211582   3.8671282  28.0501294  51.3511181
  29.6055984  24.7407675  73.9181900  29.1595578  25.3179407  74.5379925
  29.4341779  25.1312995  73.0612612  78.2484722  25.1796341  32.1563315
  77.5990963  25.7891822  32.5070333  78.0498171  25.1298451  31.2212992
   1.4137657  58.1791449  63.0396175   0.4700376  58.2436132  62.8931475
   1.5025070  57.5514936  63.7568378  26.7934752  17.6703346  42.3456335
  26.1994362  16.9449723  42.1527624  27.2340941  17.4104321  43.1546688
  83.2042885  26.0654712  30.9097862  83.8297749  26.5373135  30.3599072
  82.3472595  26.3788104  30.6207252  29.3775511  33.7923670  54.9798346
  29.3726325  34.4715905  55.6542730  29.1266418  32.9931355  55.4429817
  54.1680527  66.8941307  31.0201526  54.1077614  65.9645033  30.8001733
  53.3514166  67.0844746  31.4817858   9.6653473  18.9658475  50.7298660
   9.3223345  18.9401031  51.6231251   9.1040057  19.5942736  50.2757692
  38.9398336  17.5074244  59.8864841  38.6003304  17.2206855  59.0386915
  38.4529400  18.3082473  60.0810337  17.6473999  27.0093822  36.8195415
  18.4373260  27.5276566  36.9733024  17.0987511  27.1758509  37.5860310
  42.0133877  53.0795050  19.8531079  41.6450882  52.4279976  19.2563462
  41.2558317  53.4316587  20.3203607  38.2102656  75.0096083   7.7845597
  38.4203100  75.4463911   8.6099881  38.6741781  75.5183315   7.1195644
  33.0783796  29.8569632  51.5124607  32.9402471  30.6842637  51.9736767
  32.1976233  29.5610499  51.2823868  15.8136296  13.8159418  40.3964376
  16.6989374  14.1220796  40.1996040  15.6938708  14.0109730  41.3258743
  76.8009472  80.6384945  49.9367094  77.7016592  80.9594059  49.8923159
  76.6983700  80.1031590  49.1498709  33.8392210  38.5990477  46.9845390
  33.1348014  38.1427813  47.4448061  33.9178157  38.1378078  46.1494875
  73.8320208   4.2259574  36.5902877  73.8601160   4.0506616  37.5308800
  74.0237570   5.1607335  36.5150309  65.9549665  82.2341919  47.4257374
  66.6423416  82.9003334  47.4263096  66.4014101  81.4291286  47.6880455
  52.8149176  11.2333965  72.2118998  53.4536839  11.9334197  72.0770693
  52.4953890  11.0282230  71.3332415   1.7227066  37.7428770  38.1387019
   1.0995565  37.1117544  38.4987020   1.7362805  38.4565258  38.7764740
  16.1227357  33.5294890  40.1908731  16.6328931  32.7951145  39.8493147
  16.6707718  34.2974854  40.0294065  28.6594701   3.6402017  35.4490685
  29.2666483   2.9097542  35.3306913  28.2755613   3.7753472  34.5827079
  36.2409234  34.9789619  54.4617653  36.5930915  35.2480555  53.6133575
  35.8810472  34.1058302  54.3056726  17.4408174  19.1942441  49.0074635
  18.3359027  19.0058184  48.7254143  17.1555233  18.3944476  49.4492340
   7.6816088  37.3292994  50.2288628   7.2910267  37.5345564  51.0783005
   8.5924238  37.6124406  50.3093481  57.2381783  67.3369932   0.7352511
  57.9535866  67.0885229   1.3206404  56.7997789  68.0588388   1.1857764
  59.5043278  39.8331141   1.9216877  58.8693571  40.2646542   1.3500066
  60.2740145  40.4016209   1.8969603  34.4281697  29.5166731  46.2415409
  34.4688988  30.4372120  45.9823418  34.7217941  29.5111537  47.1525764
  22.1790671  53.0651712  -0.2690271  22.5253034  52.3809433   0.3038444
  22.2436261  53.8671112   0.2495848  31.4394426  40.2379227   2.2950944
  31.9100499  41.0035086   2.6246959  31.8575478  40.0424862   1.4565095
   3.0640498  21.6834760  39.6244168   2.7416629  21.1460686  40.3479433
   2.8284231  22.5787926  39.8675656   2.8482562  53.2531357  53.3429670
   3.1962228  52.5159550  53.8446760   3.0667511  54.0238428  53.8668966
  14.0736520  45.1637173  67.6258230  14.8696685  45.3529882  68.1225777
  13.9254570  45.9509325  67.1018410  26.2479520  32.2773814  34.3552303
  26.0856009  33.1207418  34.7778630  27.2017241  32.1987534  34.3360591
  20.1483321  15.4424238  46.8107367  20.9142041  15.7834148  46.3487911
  19.4748795  15.3668737  46.1347294  16.6503143  77.6188707  55.0290585
  16.8820763  77.1422863  55.8261633  16.3315284  76.9435024  54.4303226
  41.1992775   1.2085134  43.8666582  41.2406538   0.5061800  43.2176161
  42.0298110   1.6742212  43.7688875  40.7038021  21.0178375  57.7114534
  41.3528442  21.5545583  58.1663227  41.0442066  20.9338880  56.8207741
  30.4219151  14.1434669  61.9288826  30.1042342  15.0249267  61.7330790
  30.5681109  14.1461992  62.8748465   3.7671870  11.3102365  61.4929819
   4.5143148  11.7590511  61.0972548   3.7498906  10.4530060  61.0674334
  58.2162905  72.5885582  56.2014484  57.8832102  73.0031681  55.4055929
  59.0906668  72.9604149  56.3172960   1.9924852  40.0700760  63.4353924
   2.1674095  39.7970915  62.5347710   2.7254224  39.7165823  63.9394522
  74.1398573  72.6716042  62.6550817  74.7968149  71.9891214  62.7924156
  74.6489716  73.4726286  62.5310135   4.5225477  30.7063890  50.2503014
   4.9130225  30.2419353  50.9906054   4.8946556  30.2812576  49.4776249
  26.3738060  81.3776684  60.5004787  26.1119175  82.0421314  61.1377716
  26.3107061  81.8197823  59.6538448   9.0416718  33.3784223  22.6595497
   8.8744646  34.0847945  22.0356035   9.4200009  32.6761198  22.1305227
  16.1815417  29.8191237  56.1306000  16.2373090  29.2230868  55.3837013
  16.7581344  30.5473709  55.8994532  29.3802547  18.1839657  73.9833117
  28.6699772  18.3357000  74.6067810  29.3248844  17.2503030  73.7797451
  72.4654865  85.8145142  54.4458580  71.7376900  85.2064037  54.3164587
  72.5982428  86.2154198  53.5868549  58.7843418  31.1433792   9.3304753
  58.0617428  31.7609835   9.4429314  59.3814659  31.5812588   8.7239003
  17.7705956  23.2475162  55.0077295  17.7149975  22.3752284  55.3979301
  18.7023532  23.4646058  55.0382471  64.8132420  40.1908731   6.0226214
  65.1061821  40.6376266   5.2283722  64.1687632  39.5534754   5.7150465
  16.5695727  23.6109757  21.2358618  16.4333332  23.3565140  22.1485066
  15.6874347  23.6665916  20.8684778  52.2530890  15.0802076  35.4576492
  51.3507271  15.2670419  35.1986837  52.7664185  15.7850468  35.0627732
  38.2107353  31.7494798  14.2038679  37.8704572  31.2082195  14.9162436
  39.1613960  31.6561294  14.2652166  66.2928772  71.7118788  67.6114607
  65.5627155  71.8086100  68.2228088  66.8693066  72.4503279  67.8080750
  58.3380175  86.0783863   5.4230326  57.9102516  86.2588501   6.2600970
  58.5766172  86.9415379   5.0849885  35.9988880  16.0877979  61.7283869
  36.3092971  15.2323270  62.0251131  36.6243148  16.7109799  62.0981407
  84.1343975  77.5751925  70.3355598  85.0355721  77.8641081  70.1918936
  84.2141533  76.8272781  70.9275818  59.0175486  66.7695093  24.3141723
  59.3009377  67.6795340  24.4023371  59.0028191  66.6136551  23.3698606
  52.8015566  61.6347504  16.1189222  53.1864309  61.0941219  15.4291201
  53.3016062  62.4504709  16.0909700  27.2309113   5.8373654  31.1698723
  26.4014387   5.8110905  31.6468596  27.6600623   6.6350013  31.4794493
  46.8535519  22.2801709  10.2003372  47.4188185  21.9947100   9.4825488
  46.9858980  23.2270074  10.2474058  78.5945034  70.8815956  19.3274665
  78.1038857  70.0661755  19.4305229  79.5077038  70.6041050  19.2546737
  46.8508291  55.5206013   1.0459184  45.9776115  55.7571268   1.3586122
  47.4108934  56.2428188   1.3304633  38.4751415  38.4006286   7.9496896
  37.7857137  38.1965590   8.5815752  39.1804886  38.7751222   8.4773910
   3.5942966  12.0494270  53.2892466   3.8741767  11.4481246  53.9794159
   2.6646471  12.1972406  53.4628391  53.9423895  61.8229151   2.5206786
  53.3438921  61.9930696   3.2480556  54.5040941  61.1138105   2.8335515
   3.8013431  20.0018883  21.1936998   4.5628363  20.1381087  20.6299591
   3.2237041  20.7397389  20.9984040  45.5170631  85.8104134   6.2979865
  45.7982016  85.0251961   6.7676872  44.6930504  85.5581379   5.8813459
  53.0879879  11.8113613  67.4410820  52.7065754  10.9356916  67.3781824
  52.3382616  12.3896396  67.5815678  34.3535066  16.3781679  59.4153738
  34.7723150  16.1022770  60.2306747  34.4726086  15.6365490  58.8220406
  76.9490433  53.2293701  18.0214202  76.0240841  53.3101273  17.7886832
  77.3443556  52.7746725  17.2776413  29.7847056  66.8279409  11.7729986
  30.0001407  67.5593281  12.3516977  30.4819083  66.1896944  11.9239295
  62.0834780  38.6469984  24.5038128  62.9886055  38.4611464  24.2539573
  62.0482016  38.4502769  25.4399157  19.3844974  74.3338966  69.2372704
  19.2853022  75.1154375  68.6935902  20.2546787  73.9996767  69.0197468
  23.7819767  24.5532250  63.3712006  24.5956135  24.4256639  62.8833914
  23.9100266  25.3784752  63.8389587  48.8013268  47.7294970  10.9234989
  48.0801964  48.1697226  11.3733912  49.5383596  47.7955484  11.5306687
  62.2474098  67.0110798  68.6913824  62.1080065  67.0835304  69.6356010
  63.1976843  66.9507933  68.5935020  11.4718819  17.1631467  51.9937086
  10.9364676  17.0298612  51.2115335  10.8542955  17.4708641  52.6571274
  83.1212425   4.7208565  71.9737673  83.4415913   5.5447632  71.6066360
  82.2068596   4.8968989  72.1954393  81.3516903  69.9655533  72.2779608
  80.4737854  69.6476460  72.4888039  81.9404888  69.3201828  72.6691580
   1.5874781  85.8286667  66.8929148   1.2965588  86.6799355  67.2199392
   1.1760932  85.7493877  66.0322666  67.9622126  72.7989149  64.0415144
  67.3551607  72.1608639  63.6665392  67.6767254  72.8959465  64.9499846
  85.6902981   1.8856066  21.6757059  85.8238506   1.5819448  22.5735831
  85.4197598   1.1027955  21.1958647  55.5106926  63.7031651  69.5780993
  55.9222031  64.2237568  70.2679348  55.4667711  64.2938662  68.8261843
  82.4082184  83.9385986  69.0107775  81.6482067  84.4841194  68.8082409
  82.6105022  84.1394234  69.9245501  72.2821522  12.8321636  41.6001892
  73.0859423  13.0805242  41.1435938  71.8315125  12.2474086  40.9909153
  45.1115990  67.8787661  59.1500282  45.3870773  68.6093235  59.7037745
  45.6099272  67.9906654  58.3404732  24.9446082   5.5941349  47.4451208
  25.8302903   5.9089786  47.6258755  24.7306967   5.9603614  46.5870094
   0.2077921  18.2012856  32.6996255   0.0616301  19.0493906  33.1186581
  -0.1700021  17.5655735  33.3073854  86.1585808  84.4770908  63.7369680
  86.5136147  85.2801323  63.3557796  85.9451103  84.7143364  64.6393967
  21.3786197   5.0623924  66.2049723  21.8230343   4.2485750  65.9674215
  20.4923749   4.7905171  66.4434767   7.1811426   3.1790152  61.8046999
   7.0765227   3.8180071  61.0997343   8.1266141   3.0428827  61.8662024
   0.5256488   4.7498953  50.7541466   1.0748546   5.3616929  50.2639341
   1.1287715   4.3190587  51.3598347  88.5843182  41.6290426  44.1593981
  89.0056705  40.9141541  43.6823034  88.6671066  42.3857880  43.5791254
  86.8037605  83.6777687  54.5228577  87.1613026  84.3255901  53.9156342
  85.9572601  83.4377575  54.1459274   1.8365994  78.5469055  69.0255499
   1.0215685  78.9684916  68.7531090   2.4638253  79.2657995  69.1030931
  39.1842222  80.7565975   6.6103530  39.0691257  79.9498081   6.1082846
  39.2418885  81.4449120   5.9476858  82.6277828  56.4604378  13.8467145
  82.2739983  56.3082600  12.9704106  82.6057816  55.6005096  14.2665577
  87.9814339  76.8221140  30.4355741  88.8010120  76.4478636  30.1123810
  88.2535934  77.5625372  30.9777236  54.0335989  65.2722740   8.2286674
  53.8688612  66.1520910   8.5678029  53.2876635  65.0926256   7.6563638
  35.3320670  20.9070992  72.4014997  34.9246716  20.0475860  72.5087118
  34.7183633  21.5159798  72.8124285  65.0331402  76.1114883  10.5751252
  65.2928257  75.2012253  10.7172847  65.8000040  76.5193033  10.1728380
  21.1018205  42.1327066  34.9767447  20.7519150  42.7260160  34.3120790
  21.5758419  42.7034235  35.5815744  89.6037769   3.6484122   7.2469997
  90.2346897   4.2151150   6.8031257  90.0944901   3.2682499   7.9756337
  77.5101995  23.0475354   4.0524378  77.6484537  23.8590670   3.5640398
  77.4490118  22.3701262   3.3789355   1.4670424  84.5122623  58.8758230
   1.1792690  83.7034512  59.2991924   2.3098856  84.2890644  58.4808159
  44.3170166  68.2733488  48.2044458  43.6823559  68.7833977  48.7077236
  44.4780207  68.7980223  47.4202108  79.0238953  81.3382149  15.0412190
  79.0011692  80.4931831  15.4902673  79.9411488  81.4527988  14.7927284
   1.0320177  78.3917618  19.9559319   1.8094750  78.3873892  20.5142975
   0.3486001  78.7831450  20.4999828  42.9573917   9.6557677   9.4964981
  43.6420107   9.0330034   9.7408170  43.2783127  10.0605607   8.6906558
  63.4463978  85.3770828  55.7874441  63.6456585  86.2913895  55.9888697
  63.7441063  85.2602005  54.8852587  57.1895075  33.4998608   1.5996645
  58.0326509  33.8128901   1.9273078  56.5809107  33.6494231   2.3231803
  65.1263475  41.8564034   3.8550958  65.5000401  41.4150667   3.0923322
  65.2804422  42.7870560   3.6926812  52.1790648  16.6395545  68.5497570
  52.1148109  16.3566196  69.4619274  53.0944300  16.8983519  68.4431744
  46.7037916  15.7256770  68.2616425  46.6832685  15.3622961  67.3763371
  46.6076565  16.6696298  68.1353807  38.9561987  29.5039058  42.9480886
  39.8918915  29.6985030  42.8947544  38.9160419  28.6167741  43.3053255
  18.8222575  82.3816013   7.1126097  18.2821786  83.0211830   7.5768089
  19.6181810  82.8614807   6.8835735  11.3664424  70.5596018  29.0022922
  11.6002893  70.5256939  29.9298692  10.4154038  70.6679869  28.9988565
  52.1232653  70.8290339   6.0792029  53.0630589  70.9134054   5.9182650
  51.9648266  69.8850441   6.0836542  82.7845669  77.2603083  47.2289515
  83.1954956  78.0845594  46.9682121  82.3135376  76.9699240  46.4479017
  23.9346647  12.3368347  42.4983025  23.2119346  12.9606354  42.4292660
  23.7898993  11.7219973  41.7790985  88.3597088  27.1957278  53.0347061
  87.7880669  26.4784098  52.7610016  88.5406876  27.0188737  53.9578533
  42.2251415  22.8402543  73.7299728  41.9486189  22.3868275  72.9336262
  43.0371523  22.4023890  73.9852142  20.6772113  23.1046534  55.2944756
  21.2172389  23.8913202  55.3703642  21.1434770  22.4437594  55.8063841
  33.6813664  49.6615267  -0.0849826  33.9165497  48.8933706  -0.6054208
  33.5127473  49.3147802   0.7911258  75.2584457  13.7572575  33.7728977
  75.5796337  13.4975827  32.9093957  74.4113636  14.1680193  33.5997939
  29.4063354  57.9969978  14.3479013  28.8442898  57.5304985  13.7292659
  30.0636220  58.4245682  13.7989092  52.7988958  63.2991171   0.6337579
  53.2170630  62.8315878   1.3567957  52.5112391  62.6085997   0.0365378
   1.1012150  86.0950327  63.8072443   0.1479770  86.1454360  63.8781595
   1.2600948  85.3308775  63.2531214  84.4520569  86.2593269  59.1910458
  84.4539738  87.1332836  58.8006163  85.2863598  85.8749485  58.9219141
   2.5744152  60.4003000  58.1017065   2.7314487  61.2979937  58.3944845
   2.4508075  59.9028730  58.9101124   6.0555834  20.1740098  67.7788877
   5.8182681  20.9785223  68.2400513   5.2658194  19.9338543  67.2942972
  62.1368027  78.4313250  72.5503922  61.8039799  77.5996208  72.2131586
  61.6294527  79.0978336  72.0871544  16.1678469  28.2725310  34.8492098
  16.8042290  28.1109881  35.5457377  15.3381264  28.4028411  35.3083563
  31.6718650  76.8491125  27.1584511  31.9486213  77.6073742  27.6729202
  30.7159209  76.8639851  27.2051549  15.4051793   0.2055350  54.9343777
  14.7261071  -0.4683189  54.9662113  14.9296200   1.0298567  55.0371838
  73.1530190  11.7449510   0.8406700  73.1965590  12.4627805   0.2089602
  74.0036964  11.3118339   0.7700586  85.1826954  72.2152185  62.0353460
  85.4726601  71.3553238  62.3398638  84.7538090  72.0405436  61.1976242
  75.7731342  51.1273289  44.8886442  75.6530905  51.4431334  43.9930487
  75.1202202  50.4344368  44.9878168  10.6933057  27.7984500  69.7462130
  11.6402769  27.9353714  69.7192097  10.3711271  28.1923938  68.9355087
  26.2201452  56.5343237   6.3738358  25.5385065  56.9325256   5.8325082
  26.2205195  55.6118584   6.1183107  11.3201046  83.4482574  70.2893400
  11.9519353  83.9123154  70.8385897  11.7673051  82.6391792  70.0410748
  37.9737616  57.2508049  57.6115847  37.9436588  56.3688612  57.9823923
  37.2468686  57.2738981  56.9892263  26.8038630  64.5734024  45.9768438
  27.6235747  64.0941286  45.8560038  26.2935257  64.0279913  46.5754414
  23.2524157  36.5712428  26.2704802  22.3101115  36.6101813  26.1068439
  23.6045218  37.3433471  25.8276367   9.4317561  39.8348451  38.7582183
   8.6915618  39.3819141  38.3542395   9.3599904  39.6273160  39.6898913
  35.4398179   2.3653576  44.9915981  35.3782129   1.4103642  44.9709940
  34.6978807   2.6416752  45.5295658  13.3590150  10.9034419  50.2022934
  12.7037418  11.0660493  50.8808279  13.0575013  10.1077318  49.7639275
  48.8288498   5.0959188  28.2724261  49.5537663   5.6856948  28.4795332
  48.2925797   5.5853844  27.6486707  40.2904034   4.6921182  36.9426131
  41.1881161   4.3609384  36.9684863  39.9978852   4.5215109  36.0473156
  38.2219672   4.4585440  67.0591640  37.9842114   5.3419518  67.3407555
  39.0416193   4.2734927  67.5175953  10.9274745  71.9453096  50.1523399
  11.3301921  71.1055756  50.3734827  10.0074148  71.7350245  49.9926424
  16.9423079  57.7063656  14.5261919  16.9036698  56.7590094  14.6575367
  16.2397373  57.8905821  13.9027405  40.9862852  26.0912466  43.9961863
  41.2421560  26.7561936  44.6354103  41.3567638  26.3990808  43.1690168
  48.6454439   4.9964029  42.6165199  48.9668560   5.8891457  42.7427483
  47.8730679   4.9381575  43.1789017  20.0958847  10.2586113  -0.0283326
  19.3604969  10.2435814   0.5842124  20.2609514  11.1889301  -0.1816024
  12.4393618  53.8224220  30.2585363  11.9873214  54.4578457  29.7034431
  12.1805990  54.0562487  31.1499381  53.9543104  17.1252549  54.5410347
  54.2298365  17.1154189  55.4576683  54.4639206  16.4268374  54.1302443
  41.6298866  25.2070308  61.1368036  42.5471067  25.2155685  61.4104176
  41.1903238  24.6619654  61.7894268   7.6952207  22.7985597  13.3697951
   7.2129947  23.5165691  13.7798584   7.8658742  22.1855068  14.0848315
   9.3775100  38.7094593  46.1625051  10.0774741  39.0138912  45.5849171
   9.8344332  38.3289218  46.9125986  11.8474913  12.9302776  17.3294556
  12.3179889  13.7637782  17.3176003  12.5209498  12.2725928  17.1558571
  31.3176394  29.3153048  18.3937347  31.6457605  28.4427834  18.6111581
  30.5682015  29.1534328  17.8206968  46.2498665  52.4777174  16.9072092
  46.3997602  51.7539072  17.5153708  45.7719946  52.0827341  16.1779225
   7.3703963  26.4146113  61.6588211   7.6492745  26.8167901  60.8361959
   6.6651458  26.9795251  61.9746113  17.6049924  47.4209738  60.4780626
  17.3563755  48.2248163  60.9344196  18.5372031  47.5305986  60.2904510
  38.3408976  36.7050028   5.5789387  38.4043813  37.3973250   6.2368834
  37.5178933  36.2590981   5.7791018  17.5060153  57.2433567  57.1616697
  17.2767353  56.5913582  56.4994287  17.4967265  58.0766201  56.6906977
  82.7739716   7.0867777  74.4163418  81.9882870   6.8037552  73.9485455
  82.5905037   7.9922426  74.6667528  39.6714640  29.0265512   3.0427504
  39.8306847  28.0938911   2.8977537  38.7651205  29.0702629   3.3474833
  14.4565666  65.1245117   3.7221250  14.9850023  64.3319321   3.6282960
  13.5827696  64.8658657   3.4291881  13.6792004  30.9532428  55.5658674
  13.1916070  30.9019375  56.3879681  14.5537722  30.6322455  55.7856750
  32.5146747  10.4886353  51.1900234  31.7455411   9.9189848  51.2027788
  32.9321480  10.3464484  52.0395708  21.2018037  32.7141547  39.1646862
  21.4144301  31.7900681  39.2954063  21.3016987  33.1078458  40.0314379
  82.0797253  81.5523624  33.1797862  81.4065075  80.9233570  33.4393334
  82.8608036  81.0194588  33.0309463   0.4579510  25.0816584  39.8936272
   0.7371859  24.5510817  39.1474700   1.0234148  24.8000169  40.6127644
  88.1950283  11.8369651  60.9150696  88.3362579  11.9214880  59.9721241
  88.6354065  11.0204792  61.1509705  46.5183640  34.2915058  20.0193095
  46.2668943  33.4109092  19.7408438  45.8821583  34.5191383  20.6972909
  27.6493645  29.2556405  43.8359976  27.7883220  29.3028688  42.8901148
  28.5025764  29.4680834  44.2143250  23.4466028  23.3717036  28.7359858
  23.0489087  24.2022371  28.9972973  24.3394804  23.6035728  28.4805655
  40.3871489  12.6916373  62.0488930  40.3066349  12.9752743  62.9595518
  39.9069977  13.3518291  61.5490627  26.5674496  22.6382923  54.7081566
  27.2747421  22.8101254  55.3297997  26.3854599  21.7035365  54.8048019
  37.4111342  79.9958992   0.7491428  37.8150797  79.5557213   0.0012780
  37.1542478  80.8540726   0.4118377   3.1219658  34.7155547  45.6035089
   3.5660857  34.3566060  46.3717175   2.5527129  34.0070677  45.3031254
   6.6810668  21.7682981  44.9982119   7.3011494  22.3506737  44.5593882
   5.8332276  21.9851828  44.6104479  39.7258043  44.1266203   0.2425200
  38.8887024  43.6897135   0.0856552  39.6140289  44.5621204   1.0875505
  82.4965000  59.5364475  66.5670824  83.3235073  59.9243975  66.2810993
  81.9884205  60.2753782  66.9018412  69.2250299  64.5286369   1.1365236
  68.4268475  64.7445059   0.6543030  69.8045731  65.2756500   0.9870803
  23.8641691  21.9153571  64.1633940  23.5506773  22.8054857  64.0033054
  24.5480251  21.7806482  63.5073280  18.4823155  81.1325645  47.2137594
  19.0429544  81.2189579  46.4427519  17.8945851  81.8867111  47.1682453
  25.5167150  55.4921627  50.0188160  24.9975610  54.8755264  49.5026112
  25.2687287  56.3536358  49.6832657  32.6182866  69.4011831  44.8942614
  33.4525490  68.9790058  44.6893215  32.1585059  69.4427061  44.0557480
  35.4344630  19.9072337  28.7811375  35.3780627  20.6405282  29.3937802
  34.5421028  19.8014510  28.4513879  77.6183653  61.1737299   9.6024972
  77.3380041  61.5996647  10.4125631  77.3732138  61.7887831   8.9112377
  47.4066257  46.9491911  67.3393250  47.4966002  46.4608574  66.5209913
  47.9317713  46.4574146  67.9706812  72.4547386  77.9218102  32.4716115
  72.7226067  78.8401699  32.5045609  71.6553211  77.8864956  32.9968858
  28.0890393  28.1190848  38.6696935  28.8674331  28.1767535  38.1156063
  28.3832550  27.6449585  39.4474292  27.4460077  15.9404421  54.7648478
  26.9228792  15.1447427  54.6677303  27.3742056  16.3792300  53.9171791
  61.4379597  15.0992274  41.1715603  61.4328718  15.9621298  41.5858126
  62.3596764  14.9343717  40.9728432   8.0618668  34.1480088  37.2392154
   7.4952358  34.5320487  37.9083014   8.2377046  34.8672915  36.6326308
  38.6078358  63.2566404  62.1714783  37.9850245  63.9573097  62.3648787
  39.4603038  63.6217213  62.4086380  22.5695705  13.7251794  71.7503452
  21.9597697  13.2892561  72.3456144  23.4291291  13.3818746  71.9943428
  43.7783861   2.7422208  52.5263262  44.3882227   2.8779951  53.2515097
  43.0148077   2.3292670  52.9296207  73.8912058  42.9474163   7.7564925
  73.0338478  43.3151579   7.9708171  73.7451220  42.0019674   7.7246225
  55.3962517  22.9720521  42.1207190  54.4508934  23.0115557  42.2655487
  55.6952381  23.8730145  42.2436142  49.8468351  52.9571724   6.2282705
  49.0008020  53.2705927   5.9085351  49.9216652  53.3256674   7.1085221
  46.6039324  19.3452024  63.7206984  47.2132540  19.9904561  63.3620930
  46.7073679  18.5787630  63.1566954  65.6500721  77.9643965  59.4926071
  65.7318068  78.7481689  58.9492369  65.2664804  77.3083925  58.9105892
  28.4441447  23.2649803  50.6590509  28.4820199  23.4960294  51.5871763
  29.1034484  23.8227987  50.2462673  58.9379120  69.8782301  51.0511065
  59.7802877  70.3318310  51.0214710  58.5889530  70.0776100  51.9198418
   5.8719295   5.9157234  25.9769678   6.8057984   6.0926658  25.8637786
   5.5654550   5.6777978  25.1019263  41.4301157   3.6387169  70.6749249
  41.1709595   4.1820776  69.9307299  42.2325993   3.2040954  70.3862095
  40.5140591  25.6314468  58.4305000  40.4376745  26.5794587  58.3224678
  41.0084581  25.5220151  59.2427969  21.3865471  67.2855616  17.0898366
  22.0585275  67.7883148  17.5501812  21.1768842  66.5653372  17.6844370
  11.5049958  47.2643137  34.4540596  11.0602677  46.4443398  34.6687365
  12.2675169  47.2817612  35.0324106  51.4657450  77.2813559  68.6380625
  51.6984987  76.3931656  68.3675528  51.3374233  77.2176027  69.5844793
  65.3757238  18.3529174  17.4614370  66.2525606  17.9690421  17.4673009
  64.8470259  17.7505040  17.9847026  35.9684443  11.0235536  49.4963980
  36.1516070  10.1443112  49.1653109  35.9820986  11.5803003  48.7178850
  70.2849770  61.9978046   0.9736704  69.9265194  62.8845739   1.0108235
  69.7099018  61.4830875   1.5398747  61.6697550  72.2199488  19.0642285
  62.0167589  72.7698183  18.3617580  60.7192373  72.2850132  18.9719856
  17.2366273  22.5870943  63.3641529  16.3682294  22.8608775  63.6593771
  17.3635018  21.7249918  63.7602758  32.8321886  19.5129216  35.6785893
  33.3960557  19.3662155  34.9191380  33.3859491  19.9850738  36.3004065
   5.3360122  23.9655375  58.0080605   5.2584368  23.0424309  58.2490730
   4.9976221  24.4405079  58.7670898  25.9946299   6.8119210  58.0073452
  26.9220805   7.0463198  57.9738617  25.5468059   7.6341730  58.2063150
  33.0141735  39.5152593  53.5169840  33.8281655  39.0339589  53.3686495
  32.7725029  39.8491287  52.6530647  27.0420694  39.3919253  38.7789631
  27.5288677  38.7671590  39.3164825  27.1785712  39.0920329  37.8802609
  10.0126553  44.4211912  66.4321232  10.5255532  44.2172766  65.6500816
   9.1870934  43.9535189  66.3057804  35.1280713  14.7177196  53.8526917
  35.2318358  15.6678402  53.9049864  35.3095579  14.5070148  52.9367781
  64.7794247  81.8817520  14.3964684  64.6656418  81.6835213  15.3259802
  64.4123030  81.1228943  13.9430499   3.0867374  72.0236683  72.4524689
   2.1444935  71.8982315  72.5650454   3.4532869  71.8811655  73.3251476
  89.8644447  11.0315990  13.6844337  89.4488525  10.2015328  13.9178860
  89.2922020  11.4059246  13.0146217  11.0449779  25.0790358  47.1907234
  11.5027332  25.9191108  47.2217751  10.6181276  25.0703859  46.3340092
  29.5876145  36.3560319  49.2495060  28.9077330  36.2934852  48.5786247
  29.1503477  36.0919166  50.0589943  28.0619764  26.4720082  43.4927559
  27.2819257  25.9653878  43.7187862  27.8244185  27.3781300  43.6895895
  30.3607655  29.4020939  59.8153734  31.0054612  29.0405345  60.4235458
  30.8756471  29.6799755  59.0578079  41.9990301  17.9178727  30.0735331
  41.7352295  18.8367009  30.1224661  42.1911573  17.6752806  30.9793305
  90.7258606  79.7986650  51.9481659  90.2904034  78.9524984  52.0511913
  90.3118706  80.3622341  52.6017952  66.1647177   4.1377366  54.7846031
  66.7133760   3.4782219  54.3600512  65.7630253   3.6769992  55.5212164
  48.3669853  41.1856699  32.9345036  49.2582989  41.5292311  32.8731871
  48.3507347  40.4510450  32.3210764  69.0796137   3.5257387  33.5667396
  69.5045900   2.8846750  32.9969454  69.1430426   3.1463477  34.4432497
  40.9367180  21.1353517  45.3365326  40.7875013  21.8669415  44.7375822
  40.2787113  20.4855466  45.0895262  78.8671589  26.3888359  67.6740551
  78.1642103  26.2907100  68.3162880  78.7266684  27.2568870  67.2959280
  34.4510961  84.2380905  12.5370979  33.9096308  83.6749077  11.9840384
  34.1199565  85.1216412  12.3761058  48.6706829  37.2607684  16.2811029
  48.1178045  36.9737220  17.0078492  49.4694281  37.5814223  16.6999412
  60.3974628   4.3769139  24.7966003  60.7529068   3.9554346  25.5790639
  61.1178446   4.3587124  24.1665578  59.9574280  48.3310366  12.8149724
  59.0653896  48.6132526  13.0171049  60.2450085  47.8652716  13.6002040
  48.2734394  12.9666770  45.9357643  48.0346441  12.0447636  46.0321140
  47.5856781  13.4421968  46.4017010  30.3486443  12.1399760  35.8121705
  30.2001238  11.2369907  35.5314755  30.8443332  12.5352597  35.0950408
  28.0938292  44.1496372  20.4972434  27.6202893  44.7267437  21.0963583
  28.8202810  43.8075542  21.0182786  28.9359522   9.4914496  55.0819731
  28.6063147   8.9416093  55.7927799  28.5148787  10.3398359  55.2204275
  21.2492728  16.4595711  68.7762260  21.3360596  15.5063367  68.7828207
  21.9394875  16.7588270  68.1843805  61.8721962  57.2519398   5.7502419
  61.6868401  57.0962191   6.6763240  62.1039104  56.3901091   5.4041415
  28.0844688   7.6026118  66.2416458  28.3259034   8.1414729  66.9950199
  28.8796163   7.1121186  66.0333490  26.8629766   0.5586798  57.6494932
  27.6654173   0.1012880  57.3982668  26.2790705  -0.1340883  57.9582930
  35.3593445  41.8978548  69.8991060  35.6628299  42.5785637  70.4997444
  34.4148684  41.8512058  70.0475025  26.3238525  52.4780703  58.7658453
  26.8170166  53.2668400  58.5403156  25.4206586  52.7798462  58.8628244
  11.7243981  65.5800343  42.3275852  12.6686049  65.6010866  42.4833488
  11.3416255  65.9409237  43.1272554  40.8613062  46.6053677  72.2310305
  40.4470825  47.2334576  71.6392946  40.6931686  46.9541788  73.1064081
  31.7147136  63.6421490   9.4923168  31.4950991  64.1409254   8.7054116
  31.8511534  62.7480698   9.1788745  25.7182097   9.1577750  64.1125870
  25.8293796   9.8672122  64.7454929  25.8453727   8.3585942  64.6238327
  87.3004723  29.3264937  58.4469080  86.7221737  29.9640489  58.8656187
  86.8772984  29.1323090  57.6105833   1.2214677  24.4369626  66.0952425
   0.9660996  23.8849902  66.8343925   1.1644147  23.8593984  65.3340578
   7.6527214  28.9668703  43.1452990   8.3032554  28.9231300  43.8461018
   8.0073845  29.6075940  42.5289249  11.2024736   9.8683488  23.4255600
  11.9772470  10.1029491  22.9147553  11.4617467   9.0825576  23.9067459
  40.0874949  43.0853081   6.1816603  40.4121113  43.5749245   5.4259270
  39.1989446  42.8274298   5.9362847  42.1671200  30.5940413  34.9056411
  41.9469929  30.0411439  35.6553626  43.0595350  30.8920956  35.0816751
  30.5989575  39.3315172  59.3873024  31.0201597  39.7915149  58.6611986
  29.8024106  39.8337293  59.5591402  74.7019625  26.8437147  12.0743823
  75.2661228  26.0733485  12.1413851  74.0704346  26.7407417  12.7862811
  88.0667114  82.6458836  50.8730459  88.6948204  82.5263214  51.5853739
  88.1583309  83.5657787  50.6248093  55.8097267  48.6560249  22.1865106
  56.2126112  49.4214678  21.7766094  56.4207077  48.4061337  22.8796864
  21.3705993  36.5851235  38.6101532  21.9247961  36.1502028  39.2581820
  21.1509085  35.8968163  37.9822993  64.4503784  76.1422586   0.6956510
  64.6118307  75.5765390  -0.0594141  65.3119230  76.2588787   1.0961242
  50.1368618  18.0959570  36.3631797  50.2579212  19.0399051  36.2605166
  50.9782219  17.7811277  36.6936779  65.3259516  47.6969814  19.4889665
  65.2424526  47.4779892  18.5609031  65.1198101  46.8820667  19.9468386
  24.0303946  54.4891882  40.2862024  23.5191011  54.7856426  39.5332575
  24.0277696  53.5345268  40.2165985  69.9836683  42.8769732  14.2087042
  69.7264528  43.1944227  13.3430851  70.6626368  43.4875870  14.4957316
  17.0774984  15.1962030  68.4682846  17.7104759  15.9132969  68.4315777
  16.9606209  15.0275195  69.4032240  16.7330456  29.1969061  61.2572002
  17.5530601  29.4459128  61.6835833  16.1237895  29.0453291  61.9797373
  41.3638163   4.9926895  61.6523027  42.0046329   4.4420400  61.2024450
  41.6679287   5.8874154  61.4999437  83.7158203   4.0626451  74.6610975
  83.6524200   4.4592950  73.7922573  83.5064220   3.1395304  74.5188189
  15.8438075  17.7142608  53.9405489  15.4674637  18.3359873  53.3176088
  15.5902565  18.0525064  54.7993469  31.2334704  28.4960961  26.5034866
  31.1526108  27.6413465  26.9266820  31.4677525  28.2937074  25.5977368
  41.7879248   7.1999580  29.9933672  42.2999525   7.7582783  30.5784631
  42.4311304   6.8385375  29.3835354  54.0950346  75.7060337   1.9222501
  54.9642944  75.4668427   1.6006815  54.1391945  76.6536856   2.0496726
  27.8711033  59.9011183   0.5603215  27.3632002  59.0957642   0.4619797
  27.9160023  60.0419903   1.5060329  52.7405214  64.6446133  10.5774677
  51.8772459  64.8143625  10.2004099  53.3560467  64.8898792   9.8866659
  29.9820018  29.4318032  49.2357397  29.3756890  29.9381137  49.7763586
  30.7364559  30.0088763  49.1173506  79.1165209  54.9355364   6.2128073
  78.2459116  55.0589609   6.5910017  78.9735317  54.9678326   5.2668989
  18.8407493  31.8385553   2.9242298  19.4178438  32.2861505   3.5429800
  18.1855619  31.4098930   3.4748748  86.7061424   5.1550645   1.6028829
  86.6751003   4.2828035   1.2099086  86.1020660   5.1056224   2.3437485
  37.2636223   7.1421361  70.4940033  37.4495339   8.0788189  70.4284668
  38.0131078   6.7817831  70.9679747  20.3938007   4.0575698  43.7982750
  20.9973264   3.3146191  43.7947702  20.8626437   4.7447756  44.2717361
  75.9013939  33.6736250  55.9272528  75.2211428  33.5645485  55.2627277
  75.4237032  33.7046695  56.7561531  58.7447262  57.7196360   4.7701403
  59.4495821  57.6785851   4.1238239  58.7483120  58.6283016   5.0710571
  39.3511534  11.6527653  68.5669851  39.9573898  11.2697291  69.2010164
  39.1605139  10.9400654  67.9571152  30.1648092  43.8637877  66.2156868
  30.8701706  44.5104122  66.1917305  29.4136167  44.3416882  66.5671873
  10.7611310  20.7181406  11.6328752  11.4051378  20.4609990  10.9730530
  11.2506056  20.7249188  12.4554324  43.7983418  29.0216136  56.2255621
  44.6646500  28.6480188  56.3873291  43.8957739  29.9509907  56.4329195
  28.2825613  15.5804777  67.8330803  28.5943842  16.4792550  67.9388952
  27.5303292  15.6555021  67.2459269  36.4856102  36.2466188  74.9536595
  36.8313839  36.5294882  74.1071014  36.3111593  35.3122183  74.8410043
  34.4625902  18.8168395  40.6387377  34.2493367  19.5112300  41.2620926
  34.0341878  19.0848851  39.8258066   0.6118753   2.8720945  53.5702991
   0.7967782   3.5039830  54.2651081   1.3685055   2.2858021  53.5721827
  27.9965878  23.1849289  56.9391155  27.4547505  22.8914571  57.6715899
  28.8899684  22.9556751  57.1951342  59.3034792  86.0833836  64.7517729
  59.8886395  85.3580952  64.5331764  59.3877172  86.1816025  65.7001829
   1.4461619  42.8854084  63.5889435   1.7909242  42.0719385  63.2206535
   0.8617179  42.6013470  64.2917681  21.9721937  20.8412838  56.8874550
  22.1372008  20.0477004  56.3783121  22.7396917  21.3910580  56.7295694
  46.2603951  17.2633529  31.9396949  46.6130924  17.6584888  31.1423874
  46.8226194  16.5055144  32.1003699  13.0541992   8.7840360  59.6053076
  12.5044525   8.9485753  60.3714228  12.8860676   9.5271099  59.0258217
  36.4501524   2.2900569  68.0527210  36.9140482   1.6477066  67.5156736
  36.7933846   3.1358340  67.7644777  89.2244625  40.1426268  25.2720594
  88.6903000  39.3489718  25.3038907  90.0850487  39.8648620  25.5858541
  26.3074422  19.4445860  63.1882000  26.8034053  19.6353221  63.9843607
  26.3151693  20.2669501  62.6984167  56.3240337   0.8682482  51.2324858
  56.3438082  -0.0773706  51.3796139  57.2394085   1.1401442  51.2987614
  32.2570944  21.4843512  62.4414062  32.8126693  22.1142387  62.9005480
  32.8145075  21.1358953  61.7456341  51.8969297  58.3503294   7.9588187
  51.2503147  57.6795053   7.7394557  51.4467716  59.1792345   7.7960271
  51.8055058  15.2940774  64.5133448  51.2260294  15.4061103  65.2669239
  51.9784117  14.3531466  64.4819593  52.6014996  65.5771923   5.3171617
  52.3983526  65.1193476   4.5014757  51.8390131  66.1336899   5.4757655
  50.4065180  83.0939102  12.5145507  51.0115051  83.2919884  13.2293820
  49.7375393  82.5379562  12.9140687  22.5619745  23.5490823  37.7844477
  23.3973956  23.4407425  38.2389450  22.5040936  24.4885349  37.6103544
   6.9301033  23.3054066  55.7653809   6.4378238  23.1544709  54.9584675
   6.3353825  23.8132310  56.3173342  33.5244632  22.8132534  64.8176575
  34.0051532  23.6220884  64.6417236  33.4845161  22.7612638  65.7726097
  14.1846395  36.6447759  47.4477243  13.8772452  36.1083651  46.7169714
  13.9435494  37.5391221  47.2063732   2.4603534  25.6760025  72.6302004
   2.7729154  26.3459897  73.2381916   1.7799734  26.1147070  72.1194601
  61.0953045   9.5429480  45.5478334  61.2143660  10.2736259  44.9410629
  60.1787281   9.2889988  45.4400110   9.7393012  82.3818207  47.6177406
   9.7529072  83.2167721  48.0856085  10.3300238  82.5131989  46.8761063
  50.2322149  42.7869463   7.4444473  51.1474276  43.0672884   7.4393272
  50.2400827  41.9354677   7.0072341  79.6658993  62.2941160  71.9929886
  79.7630310  62.1900272  71.0464334  79.9202394  63.2013845  72.1615219
   3.2448587  26.6109967  24.8520565   3.1375504  27.3841715  25.4060578
   3.2314992  26.9531131  23.9581823  73.7399530  80.5029011  71.7663622
  74.0391493  81.0703278  71.0559177  74.3497801  79.7651625  71.7566586
  37.0560813  23.4859324  64.6983528  36.3439441  24.1176343  64.5981407
  37.7103353  23.7585044  64.0550137   5.5651075   8.4526795  46.0941792
   5.7149333   7.5979090  45.6902552   6.1961257   8.4918845  46.8128633
  47.6584387  60.3311777  43.7046242  48.5111523  60.3979206  44.1343451
  47.6884604  60.9884977  43.0094528  40.7799721  33.6681557  45.1297617
  40.9635687  33.3097839  45.9981489  41.3986588  33.2225585  44.5510578
  25.2190828  31.2808967  41.4704084  26.0228968  31.1072350  41.9602633
  25.1517367  30.5514407  40.8542967  11.8582308  69.9891138  47.9568148
  11.9676423  69.8176813  48.8921642  12.0241272  70.9272718  47.8642511
  33.5162997  32.2831631  49.9481535  34.3109345  31.9371104  50.3543997
  33.2693863  33.0257583  50.4993534  46.2510490   5.7717586  55.9841728
  45.6806135   5.0125372  55.8641052  46.7114305   5.5979794  56.8052006
  83.8665104  18.8128662  55.8676147  83.5722733  17.9349768  56.1104393
  83.5262871  18.9432132  54.9824667  36.5685153  30.2737117  43.9945889
  37.4057937  30.3100991  43.5321283  36.8065572  30.1236391  44.9094915
  32.5415111  68.1832600  28.6180139  32.4611354  68.7606096  29.3772483
  31.7533016  67.6408339  28.6450887  17.5861156  25.6130362  65.1926041
  16.9125736  25.8440304  64.5529032  17.1163464  25.1263738  65.8698845
  34.5241165  30.8178949  10.5119836  33.9019418  30.2289724  10.0850165
  35.3756452  30.3994966  10.3851926  13.4368348  73.5298538  65.7963181
  13.3673072  72.8561878  65.1198769  13.3201790  73.0555964  66.6195440
  11.8721783  28.4652948  40.8456516  11.1100090  28.1199622  41.3104916
  12.1614516  29.2066813  41.3775301  30.1772952   1.6273975  35.1674962
  30.2110243   1.4269283  34.2321324  31.0896230   1.7821291  35.4123354
  80.8402538   6.2510782   8.4338164  81.5563297   6.8853384   8.3994436
  80.0497913   6.7749971   8.3037859  17.0712328  56.3160181  73.8973141
  16.6789961  56.6712713  74.6949196  17.1893823  57.0771170  73.3289814
  34.9749351  40.3584862  60.5030012  34.1676784  40.1452875  60.9710979
  35.0104022  39.7253180  59.7860146   2.0707206  62.1425819  47.5950432
   1.1638772  62.2521114  47.8811693   2.2665039  61.2215090  47.7668905
  29.0031481  30.6408167  61.6796350  28.9662957  29.8160744  62.1640730
  29.4984007  30.4315090  60.8877134   8.6229223   0.6993837   9.0872639
   8.6285162  -0.2318547   9.3086135   8.7639016   1.1449760   9.9226105
  28.2189965  53.1908751  67.5975323  27.4656081  53.7728262  67.4976826
  28.7313056  53.3232975  66.7998886  26.9451284  29.6802425  58.3477974
  27.3208547  30.4757118  58.7250090  27.7028728  29.1677952  58.0659199
   1.8486381  82.9461002  53.1745386   2.1172988  82.0966339  52.8246069
   2.3430651  83.0367947  53.9891243  16.4125180   4.4740412  17.1963394
  16.2750149   3.6163902  17.5985324  17.2932971   4.4258493  16.8246710
  24.4397521   5.8609420  68.7427950  24.5936775   6.0581040  67.8188562
  23.6268330   6.3202810  68.9535189  74.3159533  63.0221653   6.5798599
  75.1404953  62.6008415   6.3372642  74.3842983  63.9068174   6.2207633
   1.5305264   8.4044904  -0.1756678   0.8396935   8.0580062   0.3890713
   2.3039177   7.8860271   0.0463533  46.5254974   3.8203561  32.9389024
  46.6160774   3.8439396  33.8915133  46.8353224   2.9494628  32.6903367
  68.4952593  64.2616367  11.0731876  69.0492439  63.6589479  10.5771005
  69.1123676  64.8206711  11.5452981  20.7221079  58.5038090  71.0622072
  19.9423707  59.0540314  71.1363602  20.7867932  58.0645227  71.9101906
  77.3297548  61.6006279  21.5037084  76.5141916  61.7267179  21.9886732
  77.5469685  60.6778622  21.6361785  27.9926491  44.7033644  69.9475098
  27.5775266  43.9655018  69.5008898  28.0004025  44.4508696  70.8707762
   7.7471775  14.1165805  57.2829199   8.3078313  13.5189414  57.7776194
   8.3546299  14.7385490  56.8824387  32.1346593  45.6342077  58.2300282
  31.2283111  45.6327677  57.9221916  32.5695372  44.9682331  57.6974869
  11.6016257  30.5124617  69.1345024  12.5269806  30.6437683  69.3411684
  11.2124407  31.3833070  69.2144680  40.2008772  43.0660295  53.7574673
  40.6932116  43.8517714  53.5198879  40.7589483  42.3401737  53.4783268
   5.7164848  37.9245305  51.9186449   5.9948879  37.4981642  52.7291632
   4.9436879  37.4320173  51.6421556  21.5053034  49.4469690  45.0217676
  20.9369493  49.6961451  45.7505512  20.9838986  49.6261549  44.2392969
   8.4454793  10.8447862  62.3699045   8.9734012  10.6550574  63.1454897
   8.8200891  11.6517305  62.0167208  89.3984318  71.2110138   1.9656691
  88.8044262  71.4743662   2.6685441  88.9549065  70.4776239   1.5394536
  82.8994370  17.1381164  19.0825367  83.5950375  16.9466352  19.7115958
  82.3202705  17.7451587  19.5432913  13.9296257  49.0860558  50.6417084
  14.7599959  49.5114565  50.4278135  13.2610106  49.7087145  50.3562593
  40.3088140  13.0750823  46.3557482  39.8809576  13.9257884  46.4530468
  41.1914110  13.2844460  46.0500956  57.3682690   8.3118320   6.1203587
  56.8991280   7.9835021   5.3533292  56.9321728   7.8958941   6.8640298
  34.5003867  81.4036274  54.5248652  34.2274833  82.0748329  55.1503563
  34.9565363  81.8884850  53.8370609  41.6673422  61.4626169  59.8894167
  42.0221758  62.3288488  59.6895075  41.6526508  61.4246702  60.8457518
  44.9772501  64.8215437  45.3976297  45.0389719  65.6931162  45.0067520
  44.5969915  64.9734497  46.2628222  12.6765478  44.9666643  51.1837626
  11.9633579  45.0571442  51.8157482  12.2906291  45.2288246  50.3479576
  17.3511243  72.4141455  58.5663366  17.4717343  71.9951773  57.7141905
  16.4682066  72.7820253  58.5295343  37.5763154  42.8412247  68.3826208
  36.8513751  42.3502827  68.7694883  37.4820375  42.7045631  67.4399281
  32.8063250  78.9463043  73.1434870  32.8292394  79.8424721  72.8079367
  32.7996683  78.3971167  72.3595381  28.5208178  27.2038865  48.1850815
  29.0316844  28.0095100  48.2639503  27.6593876  27.4313092  48.5350084
  32.7965403  16.7158651  67.1459436  33.4846950  16.0557890  67.2294474
  32.0533609  16.3489747  67.6248074  43.8190746  39.5654535  68.3825111
  44.3873787  39.3643951  67.6389837  42.9358244  39.5731354  68.0136776
  34.0560484  42.6457071  59.2874193  34.8695636  43.1500196  59.2969751
  34.3240929  41.7544794  59.5112467  19.7859859  44.4305372  27.0332885
  18.9431608  44.7537851  27.3516989  19.5780468  43.9915991  26.2084699
  20.9008336  37.6462221  35.1329017  20.4047799  38.3963299  35.4607749
  21.7541528  37.7179408  35.5606079   5.7768291   6.9885808  74.5320606
   5.6156027   6.7901504  75.4544830   4.9850380   7.4419487  74.2426538
  60.5640078  61.1250496   2.7759534  60.6159353  60.2078485   2.5071028
  61.3012362  61.5462780   2.3340330  23.9594245  30.3545594  46.9836140
  24.8126459  30.2647924  46.5591288  24.1440248  30.8284092  47.7945518
  27.1040177  54.4180870  62.5741386  26.4677143  54.1462564  61.9127321
  27.3177910  55.3221655  62.3435402  19.5791245  12.9876852   5.4417485
  19.0564835  12.3654449   4.9358878  20.4860902  12.7648199   5.2320462
  21.9959664  51.1474848  64.4842577  21.9505358  50.3380966  63.9752769
  22.9027748  51.4391136  64.3899965  42.7794647  36.9726944  69.8179197
  43.2237864  36.2803960  69.3285036  43.1312752  37.7858114  69.4555616
  74.6379519  17.8398991  32.3549151  74.2797852  18.1571424  31.5258789
  73.8684320  17.6589119  32.8946519  35.8105588  32.8729033  42.8098726
  35.7626104  32.1079803  43.3833027  35.0046086  32.8369522  42.2947168
   3.6557475   9.0348500   6.9624299   4.4047046   8.4424484   7.0284212
   3.6876744   9.5518810   7.7673471  11.9436991  51.2568855  55.6709003
  12.6153576  51.4029598  55.0047445  11.3692069  52.0195007  55.6030416
  59.2786932  32.7636719  75.0013781  58.5402584  32.5522709  74.4301891
  59.5271158  33.6538410  74.7521353  81.2210655  30.6118441   1.0894905
  81.5040016  29.7854829   0.6979481  80.9293556  31.1411119   0.3471895
  84.0499020  44.9165154   1.5048164  84.1787720  44.2430735   0.8369115
  83.7374973  45.6794882   1.0184930  71.1223507   2.2692849  22.5917768
  70.4379797   1.9283426  22.0159054  70.6946373   2.9708156  23.0828452
  22.7673101  36.6026187  50.8666897  23.4516859  36.4600635  50.2128267
  21.9491529  36.5482354  50.3728342  85.2650833   7.7464813  20.5535245
  85.4531670   8.6817086  20.4747677  84.4691849   7.7060634  21.0837650
  89.3206787  56.4892292   8.6736554  89.7576809  56.2670946   7.8515100
  89.3959904  57.4414730   8.7352568  23.8231969  67.2750235  72.9003048
  23.2178855  67.2577190  73.6416101  24.6339083  66.8999672  73.2442713
  49.5396090  84.8612022   3.2920504  48.6767340  85.1371765   3.6011028
  50.1550245  85.4089260   3.7793872  51.5750551  16.8775082  18.3933997
  52.1573496  16.3266921  17.8701735  51.3999557  16.3612413  19.1801918
  35.0663257  17.4768257  53.7321711  35.0370169  17.9576743  52.9050350
  34.1475821  17.3603809  53.9742088  22.8200769  46.9764853  45.3165817
  22.4171519  47.7303600  44.8858213  23.3513427  47.3562145  46.0164356
  71.9638395   1.8103884  60.7795238  71.2844467   1.8308009  61.4534998
  71.7188787   2.5077438  60.1713133   2.1239728   8.7495416   3.1780475
   2.1375713   7.7944851   3.1154901   1.5826538   8.9315677   3.9462090
  91.1685753   5.3328264  21.2358332  90.5954170   4.6492153  21.5828085
  91.7242241   5.5778629  21.9757295  43.0265760  51.3159466  50.8386612
  42.2663164  51.1758327  51.4031172  43.6728096  51.7350721  51.4069462
  83.2193184  25.7303834  36.3496161  83.0573559  25.9531260  35.4328895
  82.3468876  25.6099057  36.7245674  48.4765673  19.3904757   2.0253555
  48.6660910  18.4574461   1.9265196  47.6769829  19.5275915   1.5173276
  66.5836906  75.4991150  51.3858271  67.2670794  75.0212240  50.9158993
  65.9266043  75.6957626  50.7181454  22.2271466  57.6314402  54.6814442
  22.0449376  57.8819561  55.5871296  22.6245522  58.4106684  54.2927217
  35.6241274  57.3365879  51.9702244  36.4404058  57.3573208  51.4707327
  35.7921052  57.8980637  52.7270365  87.2974110  10.6181622  51.7117167
  86.3979435  10.4952705  52.0152044  87.5181961  11.5122378  51.9727039
   5.7047135  32.2431064   8.3201891   5.0209081  32.6835823   8.8247919
   5.6622076  31.3302732   8.6050749  31.8183899  39.0548944  18.8643861
  32.4859881  39.0480542  18.1784582  31.1460567  39.6531081  18.5382879
  59.7247458  60.1817322  12.0145857  58.8789892  59.7842646  11.8073559
  59.8563862  60.8361197  11.3285244  67.3815346  79.0082645  51.3279581
  67.3589373  78.4358215  52.0947838  66.4866400  78.9897108  50.9887600
  17.7483821  15.3966129   2.8088975  17.5578570  16.0661638   3.4658846
  17.2056472  14.6502745   3.0631587  56.3384724  68.0834913  58.4096241
  56.8367100  68.8287783  58.0741596  56.9524622  67.3499632  58.3752966
   3.4111992  43.1924534   4.2006767   2.5891775  42.9020166   4.5958444
   3.1703189  43.9621592   3.6851516  33.8964295  32.0413351   0.2377309
  33.4884143  31.3147092   0.7086548  33.9644170  32.7402496   0.8882151
  27.2462177  50.9503794  56.8214703  26.8633771  51.5055084  57.5008059
  28.1913328  51.0363340  56.9463730  62.5568390  60.9362173  36.2917829
  62.1129751  60.7315874  37.1147919  63.3098555  60.3455973  36.2724853
  25.1962709  20.9485745  20.6426716  25.0381470  20.3841162  19.8859584
  24.3509984  20.9922218  21.0897112  15.8588684  11.8389153  71.3244438
  16.3064122  11.9735992  72.1597862  15.0187731  12.2858405  71.4280272
  60.4863691  44.4311857  12.2515678  60.0326204  43.8349390  12.8472471
  60.8452559  43.8622427  11.5705860  12.6114833  17.4246764  67.3620462
  12.9588282  16.6611886  66.9008827  12.1002698  17.8916132  66.7010927
  51.7059660  65.5799007  65.9625435  51.6077232  65.4601860  66.9071341
  52.5505209  66.0193586  65.8633661  71.8391657  70.2568054  40.3646612
  72.3386717  70.4536009  39.5721984  70.9267616  70.2435589  40.0755644
  13.3607769  70.4237413  68.7681246  13.9077127  70.7776785  69.4694233
  13.9844859  70.0960207  68.1201887  49.4169998  63.4457302  46.4391136
  49.4368076  63.7487221  45.5313492  50.3290224  63.4899616  46.7263269
  18.7624919  73.4513044  62.3567677  19.5248628  73.1032848  62.8192616
  19.1307366  73.9288998  61.6134405  55.3638887  79.4494152  74.0677261
  55.8579540  78.7433338  73.6510992  54.4758463  79.1024876  74.1528702
   7.1551073  50.2599573  69.1751814   7.3143893  50.6866503  68.3332825
   7.9080164  49.6815348  69.2967844  35.4335928  54.8201323  55.9025955
  34.9885583  55.2823973  56.6128731  36.2784839  54.5665789  56.2742186
  82.0782757  74.6853590  10.3755677  81.6807079  75.5400085  10.5421317
  81.7848301  74.4522619   9.4947773  47.7191496  45.4020500  72.2810125
  48.5773468  45.2080727  72.6579762  47.2813559  45.9357405  72.9441404
  15.6452799  34.5988154  24.3163538  15.2095234  34.9041963  23.5206842
  15.4669142  33.6587119  24.3413591  34.8554397  52.7210188  68.0815077
  34.0074682  52.2946548  67.9574537  35.4428983  52.0132637  68.3464813
  49.4452381  34.2394400  67.4743557  49.4301939  34.7004604  66.6356277
  48.5523748  34.3223071  67.8092670   3.0011198  84.9860096  11.1035120
   3.1395742  84.4844437  11.9069350   2.0765613  85.2322960  11.1312389
  47.7116251  72.6564121  44.3063354  48.2904291  72.2954035  43.6348486
  47.9770184  73.5728121  44.3838406  45.7573414  71.6936159  31.8778825
  46.4091682  71.1511183  31.4339781  46.1192608  71.8353176  32.7526188
  42.6196051  70.7682228  64.8485804  43.2102346  70.3785086  65.4931831
  42.0301819  70.0554562  64.6020603  43.3898306  14.6587503  18.5358489
  43.8249540  14.0124953  17.9797435  42.8186893  15.1424360  17.9391265
  49.3350506  40.9128714  41.8463326  48.3833265  40.9716082  41.7626143
  49.6670723  41.1589670  40.9829521  55.7659817  74.9893951  69.9238157
  56.0581541  74.1041517  69.7065544  56.5630245  75.5186319  69.8945093
  58.1746054  61.3795996  46.0535908  57.5265312  62.0359898  46.3092947
  58.8697529  61.8821478  45.6287956  82.2890377  60.5457497  70.4526520
  83.0244637  60.6680632  69.8522997  82.6605701  60.7003450  71.3211536
  38.1273890  47.9068136  61.5469503  37.7137661  48.1455183  60.7173920
  38.7792826  48.5918188  61.6953850  47.6724482  72.4121571   7.3708874
  47.6015711  72.4099922   6.4163178  47.0639038  71.7312813   7.6577878
  85.2517128  11.7025888   9.3442869  85.2447033  12.5447917   8.8894510
  85.5078316  11.9169557  10.2413285  18.5021496  44.9509811  57.1591520
  18.2535803  44.1661358  57.6474714  17.6843250  45.2592278  56.7687941
  48.6861372  79.8804283  56.5211010  48.1959629  80.5871201  56.1009216
  48.0250740  79.3849182  57.0045280  61.0696650   7.5776958  70.6951427
  61.3090515   8.0525428  71.4910364  61.4914751   6.7236710  70.7897472
  21.1832118  12.1085310   3.1372333  22.0119214  12.0756137   2.6593310
  20.7617807  12.9115033   2.8308639  22.5536442  63.4621382  29.3647718
  22.8004742  62.5412083  29.4495893  22.8049374  63.8554049  30.2004886
  34.8856354  23.0614734   8.6568785  34.5306897  22.9294467   9.5359772
  34.5747614  22.3065543   8.1571931  36.3629150  76.3669443  51.3846350
  36.0655403  76.3664007  52.2944689  37.1636462  76.8913126  51.3946819
  51.1345387  84.2013359  70.1155567  50.6129599  83.4230709  69.9193621
  51.5831566  84.4023037  69.2942286  55.6251812  50.2417326  71.9620371
  55.9318924  51.0761881  71.6072941  55.1089573  50.4836130  72.7309561
  62.2245073  27.6462269  51.8256760  62.6968718  27.2234392  51.1084938
  61.9825268  26.9274688  52.4096870  64.5382404  30.8266568  20.2326655
  65.4621792  30.5882597  20.3084302  64.0961790  30.2820563  20.8839869
  72.0592594  22.9163766  14.9317670  71.2476921  22.4219298  14.8172641
  72.6759291  22.5086856  14.3237042  51.0708714  66.9302464  34.8328900
  50.9529209  66.0308123  35.1384091  50.5353642  67.4569178  35.4262519
  35.4727244  23.4537029  70.0990105  35.4197717  24.2823863  69.6228695
  35.2415919  23.6799169  70.9999228  47.8293896  76.9757318  22.6170516
  47.4128437  76.8326998  21.7671895  48.6062527  77.4983501  22.4180865
  40.8307838  86.0832977  57.9810524  41.2700129  85.7202244  57.2119665
  41.5220165  86.1571407  58.6390591  34.0298653  34.7155285  60.6333399
  33.6889172  33.9398861  60.1879549  34.3106294  34.3954277  61.4906263
  75.5489635  31.7092562   5.1307803  75.4940748  31.6280746   6.0829514
  76.4769316  31.8670106   4.9569446  50.7003832  70.6630516  51.3272333
  49.9256897  70.1055288  51.3996792  50.3620243  71.5548515  51.4075089
  17.5876427  24.4025421   1.1170269  18.3178794  25.0111246   1.2293278
  17.1168280  24.4371033   1.9497156  23.9236259  46.3569832  58.8197041
  24.6665573  45.9521580  59.2673683  24.1315889  46.2756681  57.8889132
  29.9928451  41.5519190  16.2351823  30.4590201  40.8719206  16.7215097
  29.8792338  42.2625542  16.8663073  57.8200674  84.8015308  49.7787666
  58.3163166  84.3034267  49.1292572  58.3907604  85.5361176  50.0044250
  43.1551600  58.6556768  56.1352968  44.0106773  58.3972740  55.7924414
  43.3186817  58.8637543  57.0551872  46.4742088  53.1664038  47.3689032
  45.7576990  53.7179899  47.6828957  46.3498020  52.3318577  47.8208923
  79.0271664  85.7548809  36.8882513  79.6963406  85.7818222  36.2043571
  79.3818808  85.1578712  37.5470352  85.0341702   8.3310837  52.0681095
  85.0732613   7.4004638  51.8475389  84.9265289   8.3475178  53.0190945
  71.7426348  69.4718695  15.7809508  71.7712307  70.2986240  16.2624979
  72.5333261  69.4813871  15.2415562  30.3368068  56.4129829  59.5444965
  29.9424624  57.0582438  60.1313210  31.1826706  56.2109375  59.9444008
  72.6559496  32.4574304  55.9446669  72.9208755  32.0732522  55.1089287
  71.9849205  33.0989337  55.7113791  16.0422623  70.6411219  51.2733412
  15.6327963  69.8724794  50.8761597  16.9231462  70.3490067  51.5077400
  45.9393978  63.3523750  25.1850629  45.5206823  63.5891485  26.0126185
  45.4879904  63.8822556  24.5280290  82.3490524  68.3464193  36.7479658
  81.6148758  68.0342102  36.2190676  81.9513035  68.6108208  37.5774932
  41.7402172  80.1181602  56.9919157  40.8745432  80.1735115  57.3966169
  41.8833971  80.9854507  56.6130638  77.3181248  69.8893499  42.3148918
  77.9246712  70.6158972  42.1718502  77.8674841  69.1066790  42.2717285
  87.2750759  78.0771542  51.9547033  86.3873100  78.0236912  52.3085976
  87.6991463  77.2710180  52.2488976  89.4530106  66.6556978  24.4206882
  88.9777946  67.3985577  24.7929168  89.6194267  66.0796642  25.1668286
  43.8753986  69.8706198  46.0249472  43.3159781  70.6267166  46.2027073
  44.6392107  70.2372456  45.5795240   0.0227811  33.6287475  13.6391699
   0.0810888  33.7350464  12.6896787   0.7652834  34.1261935  13.9819121
  50.6435347  79.3054056  58.3028173  50.1055241  79.3855333  59.0904427
  50.0336599  79.4535255  57.5800800  30.5079246  57.8475618  21.0567451
  29.9649334  58.0739641  20.3016758  31.1061263  58.5886669  21.1524081
  31.3215828   4.2218807  30.7250261  30.3758788   4.1989797  30.8711505
  31.5873575   5.0951833  31.0130167  69.0824604  73.6782169  52.8802729
  69.4752932  72.8331757  52.6615953  69.3590832  74.2610884  52.1731806
  70.8070660   5.8364880  66.6700602  70.4078484   6.1071134  67.4968719
  71.5245676   6.4558285  66.5365028  24.8289800  47.5742340  67.3270798
  25.6184149  47.1725702  66.9641876  24.3427181  46.8438005  67.7095032
  16.1120045  69.8159599  15.4982686  15.6799114  70.6319427  15.7506561
  17.0453763  70.0281811  15.5017281  64.7083426  70.2704334  51.7572498
  64.7723913  71.0108662  51.1540174  65.0596237  69.5288754  51.2643766
  56.7784452  72.4164152  32.5471067  57.1415806  73.2986927  32.4699879
  57.4123526  71.9427252  33.0856299  56.7080355  47.8761625  19.2928767
  57.4950743  47.8154802  19.8342836  56.2890196  48.6909819  19.5698702
  55.0378418  77.6694727  67.2012663  54.2996407  78.1473160  66.8231773
  55.7338858  78.3225203  67.2739792  54.8038006  47.1409941  74.3058538
  54.8138857  46.4266825  73.6687613  54.5403147  46.7257786  75.1270771
  61.5757084  78.8818026  44.7390747  61.8533993  78.3478355  43.9947653
  60.9182930  79.4753027  44.3760443  34.0474343   7.3277980  46.8264198
  34.1643882   6.8800306  47.6643085  34.2370892   8.2464117  47.0172358
   0.7051741  57.1717596  43.7609005   1.2389243  57.8392029  43.3297825
   0.4635820  57.5635624  44.6001577  69.4918633  62.7807522  25.3182888
  69.3034506  61.8898058  25.0234199  69.8214293  62.6730919  26.2104940
  52.9242516  83.2116318  36.6007710  52.7489996  83.2528591  35.6606555
  52.1242857  83.5435772  37.0083189  56.0993671  61.8086958  51.3524103
  55.6718349  61.5893269  50.5245686  56.0476732  62.7631521  51.4031267
  36.7360592  14.3539131   4.3644860  36.0850406  13.6892104   4.1395903
  37.5740957  13.9601111   4.1219005  47.5414658  17.2170520   5.0892031
  47.7528715  17.3599136   6.0117698  46.6549349  17.5641513   4.9901006
  71.0785055  12.4230468  55.1407480  71.3425827  11.6684031  54.6144295
  71.8966246  12.7556980  55.5098724  79.5471859   2.4480428  33.6928487
  78.9655256   1.7127830  33.8859653  78.9573193   3.1857866  33.5378575
  60.1136541  18.5755837  26.6669297  59.6876574  19.0972793  27.3470712
  60.7733297  18.0640900  27.1353698  68.8231707  59.7645855  28.2870412
  68.3748913  59.7677183  27.4413061  69.2304611  58.8999224  28.3390355
  26.2837934  56.7913532  46.0851336  25.7397890  56.9192028  45.3079939
  25.8852506  56.0474062  46.5367317  24.3963146  14.1523063  21.7702723
  24.6798277  13.2400000  21.7106819  24.2958164  14.3110657  22.7088499
  60.0582504  71.8087006  45.0253963  59.5039225  72.1675444  44.3324471
  59.4649029  71.6833448  45.7659769  76.3293886  73.0634356  36.8375301
  76.9767857  72.3660755  36.7335939  75.9376812  72.9006577  37.6956105
  90.3150177  79.0940619  38.5254741  90.5377769  79.0995264  39.4563794
  90.1661873  80.0146008  38.3094072  41.4116621  68.4330273  46.7634106
  41.4742327  67.6039886  46.2890577  42.1789694  68.9299059  46.4795303
  51.3878584  29.8948026   3.0746052  50.4617977  29.6980858   3.2158256
  51.8044281  29.7022247   3.9146128  36.5426922  10.3638160  70.5570412
  37.3060155  10.7464564  70.9896564  36.0368943  11.1174405  70.2529812
  32.4355841  15.5459595  15.5105114  31.8129802  16.2692404  15.4365981
  32.0927691  14.8737109  14.9216199  68.7043619  56.5644789  48.2026386
  68.6811256  55.6957340  47.8014231  69.4994068  56.5609360  48.7356710
  73.2468367  17.5751269   7.6092148  73.9001179  18.1792784   7.2564286
  73.6355209  17.2494221   8.4210491  74.1844749  70.4280329   8.9458984
  74.4461918  71.2630892   8.5580677  73.2804060  70.5676889   9.2276537
  74.4074202  78.6974764  40.9911346  74.2749071  78.0356693  41.6698694
  74.3368721  79.5324802  41.4537668  75.7500935  78.9312029  72.4544764
  76.1761189  79.4835329  73.1099606  75.8487844  78.0405760  72.7910376
  71.6099644  71.1314726  57.1692419  72.5237608  70.9923983  56.9205189
  71.6556406  71.5093279  58.0475187  86.2122631  11.9843268  48.0899000
  86.7125607  11.7455578  48.8702393  86.8261623  12.4899006  47.5572157
  61.5253878  81.2185669  67.2313690  62.2516918  81.4109802  67.8244019
  61.7401314  81.6925716  66.4279795  83.4065056  13.5165977  71.3444090
  83.9702988  12.8772688  71.7798615  84.0143299  14.1324198  70.9350872
  84.2697048  20.6993794  31.0042858  83.8213539  21.4164281  31.4526725
  83.6641788  20.4338360  30.3121495  87.4196339  51.0290051  19.8116732
  87.5417709  51.1641502  20.7513809  86.4968967  50.7908249  19.7218871
  77.8413773  68.6548853  37.7954459  77.0394278  68.3053732  37.4069214
  77.7914524  69.5980740  37.6400924  42.1066856  45.7804155  69.1388988
  42.9427242  46.0139656  69.5422888  41.5163183  46.4939022  69.3810368
  80.3335094  68.9628983  64.3081379  79.6221781  69.5746565  64.4978666
  79.8986197  68.2015705  63.9241028  82.3688507   0.1090697  63.1077433
  82.6240921   1.0140298  63.2869911  83.1862068  -0.3859218  63.1638908
  88.0687141  67.8202581  27.1327043  88.6338425  68.4455681  27.5864124
  88.5472870  66.9922400  27.1724963  52.2258568   2.0060426  43.0908489
  51.2956810   2.2035432  43.2003927  52.5836897   2.0384239  43.9780617
  33.9305878  12.4134743  12.2179556  33.4484458  13.0653512  11.7092037
  34.8457050  12.6859272  12.1504343  21.7898464  41.2475777   4.2469180
  21.7661333  40.8614731   3.3713651  22.7107000  41.2016010   4.5041004
  81.2352943  48.9741516   0.9219225  81.3010311  49.9219370   1.0386059
  81.5093708  48.6096478   1.7634949  76.2648106  84.1005516  57.8584957
  76.7306709  83.5946655  58.5242939  76.9098854  84.7340012  57.5441074
  89.3654537  79.1449547  65.4714966  89.3491364  79.0118217  64.5237398
  90.1718521  79.6355009  65.6306028   4.6438333   6.4537919  56.6085052
   4.5490703   5.6530499  57.1243191   3.9166212   6.4256352  55.9867334
  58.6799192  66.3097382  58.6493540  58.9421415  65.4307270  58.9228725
  58.6427021  66.8126202  59.4629622  30.2625823  21.1829948   3.9871427
  29.5276093  20.5932832   4.1553330  31.0397172  20.6571388   4.1762727
  69.5747519  62.3363781  28.1037879  69.3067837  62.6821518  28.9551783
  69.2607069  61.4321613  28.1028962  87.3038006   4.2754033  57.9607773
  87.5969124   5.0582075  57.4943686  87.0904446   4.5865655  58.8404846
  89.3127823  82.2045994  45.9127998  88.3731079  82.2902203  45.7517815
  89.7210026  82.7633286  45.2514315  86.3535786   6.2934852  70.1790142
  85.5159950   6.7390597  70.0519180  86.1925125   5.6809056  70.8966732
  81.0895729  86.1334419  34.8373652  81.7311478  85.4595470  34.6126842
  80.5030251  86.1671638  34.0816855  72.2660542   8.6731184  68.5865593
  72.8203773   8.3115834  67.8950024  72.8789520   8.9272547  69.2764902
  73.1747961  59.8791361  40.0104523  72.9246283  58.9818811  39.7900558
  72.6264143  60.1028347  40.7624292  47.6085758  70.2265835  30.1535535
  47.6477098  70.7543516  29.3559551  48.4757328  69.8265696  30.2188492
  35.6129599  41.3253212  11.2314522  35.6558800  40.5742264  10.6396389
  35.5148816  42.0811892  10.6524217  46.4678383  60.4051018  66.1000681
  46.8101311  60.2444077  66.9794130  47.0987892  61.0058451  65.7035303
  63.4002686  67.8295517  61.3547182  64.2433596  68.2238388  61.1311817
  62.7871323  68.5645342  61.3642263   7.4736971  10.4708624  16.5416729
   7.7653772   9.6442431  16.9261932   7.2027183  10.2393460  15.6533015
  71.2331009  64.8217058  73.0038023  70.9142160  63.9291143  73.1372976
  72.1677923  64.7746801  73.2047319  54.0731812  75.1304483  36.7682362
  54.0625763  75.4323149  35.8599424  53.7502050  74.2304039  36.7252874
  74.4528770  38.6208916  16.9755745  73.5044241  38.6129975  16.8467045
  74.7070885  37.6987457  16.9401336  73.1156397  81.5095615   0.6912498
  73.9844227  81.3490582   1.0596026  73.2662630  81.5921497  -0.2504107
  31.5306568  76.1599398  68.8814497  32.0513511  76.3451576  69.6629906
  30.6753659  76.5481091  69.0659428  76.4562798  46.7924500  66.8260527
  76.5122318  47.5952959  67.3442602  76.2043238  46.1175919  67.4563837
  51.5231895  83.2916737  58.7642574  50.5773258  83.1583786  58.7026072
  51.6596651  83.6347294  59.6473885   7.4493247   1.3790883  65.4093790
   6.7888105   2.0486933  65.2316713   7.1561170   0.9625593  66.2197924
  79.0707493  76.6688347  35.8636236  79.6003675  77.3098946  36.3377285
  78.3046007  76.5320444  36.4208770  51.3820553  66.5541363  45.1635170
  51.2045431  67.1199703  45.9148836  50.6633043  66.7298460  44.5562649
   6.4390260   0.4568325  15.1988769   6.0245115  -0.3394343  15.5310953
   5.8041447   0.8168701  14.5795786  48.3416080  11.8319309   4.6549046
  48.6606359  10.9315264   4.7159395  48.5536385  12.1010911   3.7611333
  40.8902311  81.5275288  62.4065304  41.2818718  82.4008942  62.4161673
  40.0776148  81.6348839  61.9121933  54.0251017  73.3108234  40.3065014
  54.2489767  72.9103899  41.1465979  54.8681450  73.4486055  39.8746133
  88.2707024  40.2201891  40.1802349  89.0735340  40.4961205  40.6224442
  88.3212376  40.6278563  39.3156648  33.6789036  85.8121872  69.8812962
  32.9210186  86.3955402  69.8421049  33.5836077  85.3513813  70.7148457
  40.5498171  77.7324677  47.5764322  40.4538679  77.2119522  48.3739853
  39.9796963  77.3019171  46.9393921   9.6892387   8.2462633  21.6338992
  10.0257707   7.3921144  21.9048381  10.0342798   8.8571602  22.2850394
  59.1626167  67.1523237  56.1734343  59.1168642  66.7537689  57.0425081
  58.3518410  66.8814516  55.7427359  77.0477343  59.8174286  64.4008970
  77.8587770  59.3101120  64.4337082  76.3527155  59.1596365  64.4229746
  60.6573439  62.1258593  45.0804472  61.6077757  62.1412945  44.9678707
  60.3133202  62.4822998  44.2614079  68.0198336  76.4134121  70.4159546
  67.3893738  76.9681025  69.9565315  67.6204729  75.5435085  70.4127359
  25.3018928  64.9425268  52.8411770  25.1051116  65.8367538  53.1202316
  25.9232688  64.6192932  53.4935951  81.9687843  33.1193471  58.6581993
  81.7359829  33.9890242  58.3330822  82.2135735  32.6280928  57.8739929
  56.0239029   2.3541942   9.7713190  56.6574955   1.6379090   9.8128796
  55.3818130   2.0685890   9.1214108  69.2744064  64.9085045  62.2493553
  69.6838617  64.7185564  61.4052582  69.3110514  64.0789032  62.7254248
  59.3632412  83.4010315  70.3830051  58.6921549  83.3880997  71.0654354
  60.0891399  83.8903332  70.7701635   2.7609211  30.9531307  46.8815613
   2.5403830  30.4480386  46.0989523   2.1239758  31.6675544  46.8929100
  37.7804422  62.9290867  24.1205812  38.4388518  63.5143042  23.7460828
  36.9562697  63.2103014  23.7232232  85.5955696  76.2199497  45.2911234
  86.4204121  75.7444906  45.1921272  85.4640007  76.2768364  46.2375259
  44.2943239  65.1577044  71.0844088  43.9432049  64.6729994  71.8314123
  43.5825157  65.7411909  70.8215332  64.4140387  78.1664467  56.7304516
  64.0950537  78.9687252  56.3171339  63.6244726  77.7350473  57.0571184
  71.5642643  35.1291347   2.3863760  70.7602596  35.4713583   1.9956163
  72.2223711  35.8007026   2.2071488  75.3024673  64.7063923  43.2071590
  75.9439421  64.8158503  43.9091301  75.1569748  65.5923796  42.8753662
   5.2561677  39.0189910  10.5258954   5.6320232  39.0046144   9.6456921
   4.3331027  39.2319846  10.3887224  79.7258139   2.4708498  14.5268619
  80.2566814   2.8665784  13.8356245  79.0096569   2.0389324  14.0612495
  -0.1278610   3.1576368  12.3766255   0.1654043   3.8538793  12.9643965
   0.1421185   2.3482959  12.8105736  24.5648360  29.1472650   4.3806186
  24.6082783  29.2265248   5.3335416  25.2517986  28.5178924   4.1610628
  53.3886051  83.1927967  62.3923445  53.0688810  82.4436378  61.8895769
  54.0911484  82.8347969  62.9350185  35.3632522  72.4745846  56.7785215
  36.0383463  72.7048445  56.1401987  35.7346058  72.7306175  57.6227856
  24.4381976  50.4028702  12.5293171  25.1082301  49.7227764  12.4603081
  24.6633887  50.8808422  13.3274806  24.9580622  64.6883297  70.5424261
  24.5332313  65.4710197  70.8933496  25.6216049  64.4631958  71.1945438
  68.6534882  70.0385332  34.6482849  67.7447462  69.9993849  34.9464273
  68.8061571  70.9658098  34.4664121  19.4375408  20.2321649  11.8015349
  19.8668301  20.7440710  12.4870229  19.7329259  20.6319761  10.9835315
  81.5038681  18.0383849  46.7870522  81.2452602  18.1083775  47.7059984
  82.1344185  17.3184276  46.7698526  66.9821978   5.0625938  28.6748457
  66.2475252   5.2659446  28.0959344  67.2848463   5.9155685  28.9864039
  73.9649296   6.7391229  13.8348377  73.6321402   6.2084281  13.1110656
  73.2152128   6.8418139  14.4210184  54.0556288  70.4152107  48.3120108
  54.3922424  71.0294008  48.9644623  54.6283627  70.5330849  47.5541782
  26.6922116  59.7556496  67.9588223  27.2117758  60.1828814  67.2778225
  26.6984105  58.8290310  67.7188778  26.8053389  15.2429307   0.4525872
  27.0212936  14.4181597   0.0174460  27.4474216  15.8672762   0.1147223
  36.7401743  75.6933737  68.6784983  37.2223926  75.3413916  69.4267035
  37.0389867  76.5998363  68.6059332  43.7594414  76.5261698  27.9977894
  43.4753227  77.4396372  27.9649067  44.4343090  76.5095234  28.6764002
  29.8807192  31.4215755  16.3406277  29.6975446  30.4821587  16.3538659
  29.9537730  31.6643834  17.2636342  31.6147089  10.7097769   4.4474357
  30.7296896  11.0520339   4.3216071  31.4834857   9.8059237   4.7339019
  77.5149775  17.6420629  15.0299788  76.6994810  17.2690284  14.6952498
  78.1110287  17.6255023  14.2811930  44.5053005  50.9987402  48.4135437
  43.9767218  51.5935564  47.8815365  44.0294313  50.9307623  49.2412853
  44.9437094  45.2231359   3.5821578  44.6410036  45.3287888   4.4840664
  45.7387161  45.7539272   3.5326087  88.3437920  69.2789650  35.7109356
  87.6385403  68.6483669  35.8565497  87.9556465  69.9458122  35.1444650
  43.8581800  31.2269497   9.0642786  42.9254198  31.0382581   9.1671586
  43.8909864  31.9205880   8.4054756  15.3890765  33.5532522  16.5101576
  15.2433825  32.8210378  17.1092141  14.5228636  33.9436388  16.3939500
  67.9521847  75.4229498  63.1241179  67.8739309  74.5374441  63.4790754
  67.9012918  75.3060675  62.1754456  62.0923328  74.8673201  49.3050957
  62.2342348  74.3707561  50.1110268  61.4837074  75.5622196  49.5559406
  80.7203960  73.6228704  37.9444528  80.2931404  74.1918135  38.5847592
  80.4123020  72.7432156  38.1624365  42.6485300  37.0562530   0.0118969
  43.2353020  37.7853847  -0.1888478  43.1894970  36.4436793   0.5102325
  37.8416371  33.1592822  24.9806952  36.9678998  33.2214904  24.5947599
  38.2669616  33.9836860  24.7447109  62.7807570  78.6796904  40.9543896
  63.7073851  78.7897778  41.1676311  62.4302864  79.5703411  40.9424067
  31.2035513  73.6380625  68.5334206  30.2679276  73.7595463  68.6949253
  31.5909362  74.4945765  68.7138271  64.7453737  54.2569113  42.5225782
  65.1911974  54.6452761  41.7698193  64.6997261  54.9647617  43.1652975
   5.8494800  11.2702334   5.8962965   4.9522147  11.5868652   6.0006583
   5.8487886  10.4075301   6.3109928  43.3055115  66.8171263  55.4828167
  43.2731295  67.3206949  56.2962008  43.9088011  67.3054647  54.9226427
  90.8913231  69.9576616  35.6555486  89.9552441  69.7726679  35.7313919
  91.3154030  69.1128778  35.8063126  41.7489958  49.1563940  63.4378147
  42.4106359  49.5951033  62.9030228  42.1584988  48.3305264  63.6956501
  23.1679392  22.9538703   8.5593754  23.2264280  23.0660462   7.6105720
  24.0127468  22.5792766   8.8087970  56.4803553  57.7191019  56.9807482
  57.3107910  57.8330755  56.5185547  56.4626884  56.7915010  57.2162867
  39.7983479  48.6455297  58.0711985  40.1390076  49.0776491  58.8544273
  40.1979685  47.7758408  58.0844927  66.4153099  78.9212990  30.5023336
  66.1374760  78.9140701  29.5863700  66.7678118  79.8007107  30.6387639
  44.1029119  74.8909140  56.7132711  43.1808376  74.6527195  56.8095779
  44.0853071  75.7970047  56.4051867  56.9234610   1.2104248  69.1204453
  56.4459610   2.0319004  69.0046644  56.9943523   0.8480756  68.2373190
   5.2475071  15.0851977  73.2388639   4.8115695  14.9601138  74.0818024
   5.4320651  16.0236967  73.2015991  74.3051195  78.2085943  48.4038019
  74.2462635  78.8938999  49.0694761  75.0456333  77.6688719  48.6805105
  37.2976828  64.4302273  73.8272190  36.5744400  64.0014553  73.3697176
  37.6063514  65.0978613  73.2146645  57.7504158  13.1553948  25.5676103
  56.8408203  13.0681026  25.2825689  57.7689981  12.7529073  26.4358783
  27.5412917  16.1919987   9.3877763  26.6391230  16.3114822   9.0910500
  27.6712108  16.8786442  10.0418937  60.4667473  56.9376087  48.4515429
  60.6774712  57.5042248  47.7094030  60.4376411  57.5289440  49.2036772
  41.3702154  79.8659182  64.4006586  40.9933043  80.4013920  63.7024927
  40.9267044  80.1620007  65.1955557  16.9642162  69.2768049  62.8547192
  17.0430660  69.9501038  62.1789360  16.1250746  69.4590521  63.2776403
  45.8780979  24.9421822  -0.1276912  46.5379786  24.2638432   0.0159894
  46.0335898  25.5791317   0.5696975  88.2912540   1.5470335  48.4224272
  87.4284840   1.3516645  48.7880659  88.4080982   0.9009447  47.7259016
  79.5005322   3.2392004  28.7089705  79.6589613   3.1326345  29.6469331
  80.2860165   2.8854859  28.2916856  44.7443104  56.5371513  63.6743784
  44.5113134  57.3865986  64.0490580  45.0087214  56.0078812  64.4268322
  66.9374323  64.4334221  52.7215147  66.2028980  64.9972963  52.4791670
  67.6457357  64.6970510  52.1341181  68.0334997  60.2236271  60.3391981
  68.8546848  60.4366827  59.8959208  67.6463604  59.5296097  59.8056269
  75.2585173  55.7956123  25.8043599  75.2249479  55.5138779  26.7185426
  76.0749578  56.2905741  25.7360911   6.4653349  76.0810852  48.5930538
   6.8182057  76.8373537  49.0618515   5.9855008  76.4587545  47.8559303
  84.8861885  46.1328316  26.7716312  84.5756054  45.2352190  26.6530156
  85.7944584  46.0361528  27.0578551  80.0953007  61.5662289  46.8567514
  79.5890331  61.9407892  46.1358976  79.6174097  60.7727671  47.0981359
  75.8062077  55.0198746  72.5925922  75.2749538  55.2831650  73.3440447
  76.6701937  54.8376846  72.9621506  45.5263805   1.8380973  60.1499128
  44.6691704   2.2064041  60.3638554  45.6674671   2.0762552  59.2336130
  79.7467422  69.3727112  54.8534536  79.2844534  69.0476370  54.0808964
  79.0604019  69.4953775  55.5092907  12.0793617  22.7459502   6.4320874
  12.9238760  22.4427867   6.0987389  11.6660821  23.1748438   5.6827670
  34.5962119  77.4560690  35.0263357  35.3923941  77.0137691  34.7318888
  34.4841599  78.1816053  34.4121099  50.0422668  60.5272436  28.0657506
  50.4922056  59.6843815  28.1237650  49.9033117  60.6605339  27.1281171
  41.8830919  83.7989140  63.0231953  42.2952127  84.6001625  62.7001047
  41.4350510  84.0667725  63.8255358   1.8148072  23.3099365  41.6137457
   2.0508210  22.7216744  42.3310184   2.1506406  24.1644406  41.8844271
   3.6004233  69.1309166  60.5958700   2.9339066  69.1641951  59.9096632
   3.8361225  68.2051468  60.6561375  84.7486782   3.4993479  61.6158104
  85.3270054   3.8445649  60.9356689  83.8767338   3.8061729  61.3672018
  69.0345716  18.3024895  56.2680244  68.8165951  17.4893785  55.8124256
  69.7243118  18.0545795  56.8836784  78.5473871  72.4887276  55.2216530
  78.8224792  72.2408676  56.1043310  79.3337536  72.8591824  54.8208714
  41.2559843  24.4705153  18.1470478  41.7141771  24.5841146  17.3143482
  41.9241285  24.6349955  18.8124514  71.7235422  71.2761879  43.2648611
  70.8630323  71.6390896  43.0549526  72.0266342  70.8883095  42.4439383
  14.6028602  74.5453024  11.2978852  14.8818743  73.9010477  10.6472576
  15.1138818  74.3335581  12.0790720  64.0398264  35.7242656  31.8766499
  64.5653439  35.9271789  31.1027718  63.8711977  34.7842622  31.8119144
  26.5621686  80.6737328  28.4390903  26.6697049  79.8920155  28.9809179
  26.8193388  81.3979244  29.0097451  67.3020411  57.4770164  72.0829964
  66.7957401  57.4710941  72.8953075  66.9610453  56.7355490  71.5828180
  59.0171719  82.0219135  41.6703224  58.6108589  81.6506958  40.8871603
  59.4864225  82.7937984  41.3537407  16.3168311  22.5623178   4.3302524
  16.2063992  23.2673955   3.6923647  16.6173351  23.0031991   5.1249558
  67.3733568   6.8550485  36.2745714  66.5124750   7.1366984  36.5840697
  67.6518345   7.5489646  35.6769419  50.3218842  65.6472683  56.0307932
  49.9276257  64.7946262  56.2146235  50.4408503  65.6563711  55.0810575
   3.3790615  55.1830053  11.5604055   3.7914282  54.9514198  10.7282066
   3.4615695  54.3941784  12.0962930   3.3692241  44.6304798  66.7839241
   3.3900276  43.6848259  66.9306755   4.2670041  44.9183369  66.9493389
  51.2006521  67.3267078  40.0265551  51.1641693  68.1508780  39.5411277
  51.8003464  66.7776060  39.5214963  76.7154551  43.1836510  10.8109391
  77.3435163  43.7249947  11.2891853  76.2941837  43.7884474  10.2002108
  51.5962219  78.4066725   2.7610478  52.5422382  78.2612753   2.7488300
  51.4159775  78.7367535   3.6412692  47.1493816  78.6722469  50.9055901
  46.7250967  79.1759396  50.2109671  46.7072248  78.9506578  51.7076015
  76.0635614  45.0787258  64.7758436  75.6499672  45.5707073  64.0665293
  76.0335922  45.6709146  65.5272722  63.7804365  68.4222651  34.1480041
  63.2941818  67.9222441  34.8035693  63.3283567  68.2402658  33.3241510
  11.3241374   1.7928916  28.7451577  12.0312059   2.2614823  29.1886783
  11.5776277   0.8713661  28.7977457  72.6450062   3.5216898  62.9537773
  73.4189653   4.0818894  63.0120707  72.7402592   3.0679870  62.1163321
  44.1345406  37.5363588   7.8255397  44.1620350  38.4167075   8.2003212
  43.5607433  37.6181602   7.0637667  88.3314133  66.4054871  31.8365955
  88.2897949  66.1145163  32.7475500  87.7350426  67.1531248  31.7964816
  54.4316816  74.9333000  67.0208502  54.0599489  74.9276447  67.9028988
  55.0343895  75.6769228  67.0197058  68.1076717  37.7401710  23.9226508
  67.6052523  37.2092104  23.3046794  67.9897594  37.3023725  24.7656584
  75.9107399  68.3555317  63.3544874  76.6153288  67.9595900  63.8673401
  75.5422974  69.0252256  63.9306736  76.0790014  79.8120832  45.5669451
  75.7423115  80.6921673  45.7352591  75.3152227  79.2421865  45.6568956
  76.9317245  62.2962618  63.1062841  76.9553232  61.4272404  63.5068750
  77.7851820  62.3879862  62.6826906   6.4556521  78.4997082  61.5382242
   6.9103175  79.0606070  60.9098101   5.5423456  78.7829828  61.4950991
   8.5800308  33.8109684  43.0841923   7.9348999  34.2770171  42.5523710
   9.3898386  34.3080211  42.9685163  20.5355883   9.7588736   4.6679309
  20.3044510  10.4737186   4.0748006  21.4546013   9.9154496   4.8850340
  82.3738956   3.9184737  58.7256765  83.0435467   4.5007271  58.3668232
  82.0545578   4.3725860  59.5054436  83.0307674  24.8515058  43.5983038
  83.2077026  25.3597045  42.8066874  83.7441063  25.0802231  44.1941881
  32.7702570  56.9808149  62.2717667  32.9797411  57.2707844  63.1596136
  33.2388282  56.1519241  62.1737051  12.2266614  75.0524139  17.3215234
  12.4424529  75.3903580  16.4523530  11.2727213  74.9735785  17.3178029
  35.5750394  70.5534220  37.5595617  35.9689760  71.1648941  38.1817746
  36.3012052  70.2819920  36.9980955  37.5040364  72.3292971  68.3082724
  38.0436778  72.6863241  67.6028967  36.7534494  71.9382524  67.8611326
  76.9278193  64.8050308  48.1492996  76.6849422  65.4320478  48.8305426
  77.7059364  65.1844978  47.7409220  51.2097359  70.8821344  66.7262316
  52.0674610  70.5153656  66.5117025  51.3132381  71.2315369  67.6113558
  50.2133131  58.1025028  20.4245710  50.8314371  57.5938845  19.8997211
  49.5213699  57.4804497  20.6492829  72.8107023  74.0715551  70.9752846
  72.9733610  74.2452765  70.0481415  73.0175972  74.8970032  71.4135313
  87.2725010   6.9982547  26.7976356  88.1574631   7.2621852  27.0494795
  87.3060226   6.9275343  25.8436394  62.4301767  58.7960005  61.5368938
  62.5465775  57.8462601  61.5629244  61.5612793  58.9204407  61.1551094
  80.1512241  83.7816906  24.3206692  79.9988794  84.0786934  23.4235573
  81.0956287  83.6325455  24.3664718  22.1453357  10.9164321  56.9632483
  22.3294520  11.7862678  57.3178148  22.5407887  10.9244680  56.0915899
  41.4506960  45.1632833   7.6033318  41.4719915  44.9740458   8.5413969
  41.3239241  44.3094921   7.1895725  48.1653738  84.5450878   6.8267155
  48.5690832  85.3802872   6.5907049  48.5964441  84.2929840   7.6433271
  77.3403931  80.1564598  58.2765913  77.3540545  81.1005497  58.4339142
  77.6479101  80.0593567  57.3753548  78.8821507  81.2866020  24.7602987
  79.6876431  80.7947636  24.6005702  79.1711998  82.1936131  24.8603749
  64.9502802   3.9218187  31.5645385  65.6661654   4.5532671  31.6353273
  64.1564322   4.4480547  31.6599751  70.9414959  13.0444193  59.0704298
  70.8358192  13.9368522  59.4000149  71.8817377  12.9566467  58.9139748
  40.7066154  72.9382038  52.5796461  40.3579950  72.1472406  52.1684647
  40.3826237  73.6546373  52.0337629  81.9265366  21.7768025  47.0882034
  82.5529194  21.5313268  47.7690983  81.9010067  21.0203338  46.5022564
   1.6926876  73.8643646  27.0232081   2.2952977  74.0709066  27.7376556
   0.8902056  73.5807467  27.4611735  59.6243833  46.2717457   0.0103246
  60.0802658  45.7917524   0.7017051  59.2778252  47.0496712   0.4473172
   1.2910001  52.5755262  45.5805063   0.5118684  52.1791744  45.1905203
   2.0218444  52.2016144  45.0882769  73.5960340  18.2068086  54.3355465
  73.3194494  17.7628219  53.5339165  74.1277981  18.9420724  54.0308380
  89.2223263  13.9399970  41.1287403  90.1557255  13.7283707  41.1433268
  88.8213634  13.2949984  41.7113495  44.8813343  12.2579753   9.7744220
  44.2737198  12.7421880  10.3335059  45.3590965  12.9358697   9.2964739
  56.7369223  29.0159130  50.7471657  56.4504576  28.3144808  51.3321114
  56.5194511  29.8219919  51.2153292  82.1857548  20.1279068  70.1565075
  81.4801693  19.5106673  69.9631214  82.2741890  20.6484056  69.3580770
   0.7950230  22.0722842  67.8917408   0.3692837  22.0699453  68.7490463
   1.6541633  21.6810131  68.0499029  32.6192856  59.3096685  15.5746639
  32.7894139  59.7671461  14.7512567  33.1691337  58.5273075  15.5320251
  84.7775555  40.9049749  67.5556040  84.0645981  41.5364599  67.4599028
  84.3488312  40.1033163  67.8552294   5.1942253  14.7804368  60.7981873
   4.2864555  14.5007241  60.9162807   5.1286483  15.6235933  60.3498363
  40.9678507  52.7928448  11.7951643  41.0739374  51.8754005  11.5436113
  40.0655556  52.8523254  12.1090972  64.1218662  66.5432167  71.9660902
  63.5258245  65.7956743  71.9198179  64.4688940  66.5180111  72.8578138
  86.2463093  70.9255600  29.3533516  85.3837967  71.1127234  29.7238660
  86.4652348  71.7088175  28.8485646  10.6980681  43.4700727   7.7889633
  11.0725832  43.0514860   8.5640484  10.9653592  42.9089642   7.0609927
   9.0065998  49.1557217  72.6573849   9.3957299  48.3566332  72.3020506
   9.4900715  49.8658085  72.2351694  49.7900581   1.4766964  59.4754553
  49.3969870   2.3388857  59.6109438  49.1204405   0.9792940  59.0059519
  80.2978992  66.8767643  44.6664095  80.7502747  67.6579666  44.9847078
  80.2691555  66.9871664  43.7160349  71.5838194  57.8154898  56.4194918
  71.8936157  56.9811487  56.0671663  70.6498957  57.8318310  56.2103128
  60.0249672  80.1482296  28.1570911  59.5788002  80.1470566  29.0039492
  60.8577204  79.7069454  28.3244991  81.7550659  81.6742611  36.4070034
  81.0372066  82.1947289  36.0464287  81.9611931  81.0414505  35.7190323
   8.1892484   2.2075714  51.3165760   9.0319276   2.6613927  51.3035774
   7.9240173   2.1685660  50.3976822  39.4004250  55.8929396  52.3337889
  38.7915468  55.4141665  51.7714024  38.8382173  56.4215517  52.9001093
  13.5271002   0.6390364  50.0287628  14.3922115   0.3347570  50.3030348
  13.6641146   1.5510637  49.7725010  38.5621476  80.1149845  50.7659483
  37.9592705  79.5761204  50.2537060  38.9711881  79.5020485  51.3768768
  84.1381931  40.4129362  13.3405757  84.9337006  39.9883342  13.6616886
  83.4245491  39.9374056  13.7657928  72.8357887   4.4646385  50.7532167
  73.0050850   5.3365690  50.3964138  73.6617231   3.9945447  50.6388712
  81.6957092  79.5323086  48.7318707  82.5231934  79.7445869  48.3000755
  81.6200924  78.5815763  48.6504984   2.0101595  16.0818315  63.4117270
   1.4215387  15.7781875  62.7206707   2.6712462  16.5999997  62.9527092
  41.4485788  29.8493600  32.2189069  42.3383951  29.7574520  31.8782973
  41.5666151  30.0318766  33.1511021  45.8928013  13.5990250  12.7088916
  45.7047606  12.9936004  13.4260607  46.6570377  13.2229662  12.2721362
  12.5042820   9.0953004  43.4541655  13.2013655   9.0801817  44.1099691
  12.9429793   8.8724285  42.6331282  44.2305231  15.7985091  11.8040800
  44.8963499  15.1226318  11.9309580  43.7076902  15.4841888  11.0664618
  68.0681658  78.3626175  74.1831160  68.7703753  77.7651453  73.9259148
  68.3681870  79.2239523  73.8927364  24.3736672   5.6636494  31.5904713
  24.2363358   4.8046803  31.9899011  23.5083151   5.9210002  31.2724066
   0.2484976  69.2891979  45.3869343   0.3666416  68.5157537  44.8355198
   0.1210105  68.9378834  46.2681627  60.7474327  64.9537897  51.8127489
  60.4765224  64.9028206  50.8961058  60.8408880  65.8910561  51.9831276
  18.6020875  34.4820619  27.2498298  19.1421962  33.7050462  27.3939180
  18.3061910  34.7336650  28.1246853   1.8578862  33.6345100  71.2682390
   1.2542349  33.8521028  71.9785118   2.3808461  34.4270229  71.1471319
  33.1550264  35.1468015   9.6892202  32.8127694  35.9003901  10.1700532
  34.1060996  35.2323031   9.7553915  89.3439484   7.4627918  45.5097771
  89.5605469   6.5699470  45.2411699  89.4103241   7.4484283  46.4645624
  66.8239069  35.2153492   3.7194037  67.1212959  36.0798979   3.4359449
  66.0281801  35.0573230   3.2113880  48.9710426  62.7409029  50.7260895
  49.5590305  62.8533125  51.4729929  48.1616735  62.4007750  51.1074972
  87.1817398   2.2093081  19.2445266  86.9058990   1.8126288  18.4182167
  86.5315533   1.9127968  19.8813689  39.5989537  39.6678829   4.3439060
  38.8135529  40.1228809   4.0400112  39.6307826  38.8682199   3.8187796
  30.5959177  23.6716247   2.7992547  31.5381026  23.8348317   2.7558812
  30.5212545  22.7214646   2.8878748  55.5232334  83.9337921  54.3904018
  55.5070114  84.0542603  53.4409523  55.8074331  84.7806072  54.7344589
  89.0221119  43.2588720  29.0672803  88.6288643  43.2633829  28.1946015
  89.6900177  42.5744820  29.0254855  42.8275013  67.6559258  51.7265844
  43.3990574  68.1751251  52.2922564  42.3677492  68.3031225  51.1917973
  74.6995831  69.1093588  48.9245987  74.3702984  68.2107496  48.9421034
  75.2476501  69.1788816  49.7062778  61.9359350  61.5177107  54.9346781
  62.3283768  61.8653870  55.7355165  62.1993256  60.5976009  54.9187851
  56.4901114  52.9336214  19.8103559  56.1398220  52.0992804  19.4982636
  55.7366371  53.5239697  19.8124218  52.5323772  75.5367088  17.2303700
  52.6968813  75.4741192  18.1712484  51.5813971  75.6185246  17.1584189
  89.5234966  80.8680916  49.0247250  89.5000935  81.2331104  48.1401634
  88.7622452  81.2499905  49.4616365  14.5905364   7.6633340  51.5316534
  14.1461575   7.8959537  52.3469114  13.9826488   7.0719540  51.0878325
  62.5378895   9.4044405   8.5363477  63.1892347   9.2043579   7.8640765
  61.7455626   9.6215314   8.0451000  64.9396467  82.8448296  22.8378272
  65.0454664  82.5687122  21.9274473  65.2496338  83.7503433  22.8510499
   6.7103422  11.6460240  67.5084400   6.5378666  12.5009584  67.9028654
   7.5476402  11.7548132  67.0575190   4.7892717  61.3191366  53.9086723
   4.3257385  61.6653919  54.6712208   5.5413580  60.8547783  54.2760515
  13.0455434  16.2939751  56.6594219  13.4593773  15.9318841  55.8759308
  13.7251079  16.8356979  57.0606184   4.3415767  31.7154098  43.6870337
   3.4018275  31.8920493  43.7306404   4.7483477  32.4818015  44.0912771
  76.6380548  67.7208185  12.2839987  76.9050694  67.6764584  13.2021308
  77.1971512  67.0826387  11.8408620  65.3149509   4.4234660  38.5769963
  64.4345760   4.5166734  38.2130241  65.2551699   3.6644274  39.1570997
  21.7178869   3.3433178  60.2168798  21.9139886   2.6624307  59.5733166
  22.0311284   4.1524082  59.8125458  73.0155945  85.3364468  22.0321202
  73.0651188  85.2907562  22.9869461  72.6984930  86.2211990  21.8507934
  57.7520514  83.6167622  65.3930950  58.3076954  83.4770679  66.1598921
  58.2000160  84.2996883  64.8939228  67.0539474  49.1448832  21.0894752
  66.5493298  48.6126900  20.4743624  66.8815660  50.0477695  20.8224297
  16.5218472  34.8030448  35.9113479  16.1630738  33.9343357  36.0926175
  16.5514004  35.2330852  36.7659950  42.9693317  33.4702754  11.6574585
  42.0708990  33.5187054  11.3308024  43.4425926  34.1342640  11.1560881
  14.3115699  70.3697729  45.2908087  15.2250576  70.3553200  45.0052166
  14.3579328  70.3088570  46.2449455  22.8630137   5.2413332  72.5405741
  23.4948301   4.6198514  72.9022408  22.9954600   6.0410845  73.0495834
  86.2203979  21.6606164  45.3477097  86.2483978  22.0377064  44.4683599
  85.5971146  22.2092724  45.8238649  73.8703918  72.9376411  65.8671188
  74.7941303  72.9908180  66.1122990  73.7006760  73.7526512  65.3946924
  18.2515836  42.3751163   1.6641632  18.2838547  43.2530260   1.2840730
  18.5155988  42.4989843   2.5758564  80.1596546   3.0143577  63.0242300
  80.5221939   2.6831141  63.8458586  79.8240423   2.2360215  62.5794983
  37.3755240   8.6791545  48.5008192  37.6374316   8.5740244  47.5861692
  37.6519132   7.8663063  48.9240456  29.4918394  76.1665964  16.3637602
  29.0598774  76.0627556  15.5159056  30.2828312  76.6694450  16.1695838
  77.6296186  74.4211435  49.6800470  77.0213556  75.1372147  49.4970465
  77.1173716  73.7973404  50.1945400  61.4193392   8.6011147  73.1618214
  62.0995712   8.4456229  73.8170624  61.0018873   9.4167233  73.4388590
  42.3034525  26.1467075  16.1135781  42.0008230  26.7525744  15.4371369
  42.3670387  26.6826773  16.9041002  54.8873186  75.5364370  43.0067587
  55.2032709  75.3338480  42.1262121  55.5460978  76.1301899  43.3668947
  32.8059483  55.2153826   8.6673194  33.2259917  54.3573380   8.6077255
  33.5262942  55.8237457   8.8323319  36.2874722  36.0452175  57.5575399
  36.7150497  35.3026271  57.9841185  36.4145565  35.8895206  56.6216755
  41.6860151   1.6137685  54.1511869  41.0941696   1.2221913  53.5088348
  42.1938562   0.8763809  54.4896936  11.8125689  54.8122406  43.1407928
  11.3253891  54.8640108  43.9631081  12.5121236  54.1828489  43.3160639
  23.9733338  85.5246544  66.1447430  24.4050121  86.3787079  66.1665583
  23.7192464  85.4080296  65.2292824  74.7613192  83.5869598  26.8756151
  75.4911137  82.9744053  26.7839098  74.0698051  83.2198143  26.3249445
  85.5376244  85.5122471  73.9558887  86.1575890  85.4781628  73.2273865
  85.4128170  86.4468575  74.1206598  79.0030527  18.0228734  31.4850521
  78.4453249  18.7419510  31.1882401  78.3902216  17.3605955  31.8045235
  89.4665337  62.1126604  54.1932726  88.8049316  62.7564716  53.9402533
  89.0472889  61.2657833  54.0407419  66.7605066  36.3704252  41.2057018
  67.4897432  36.3663650  40.5856800  66.4637852  35.4607677  41.2324333
  14.0061045  62.6288700  55.6631804  13.4080613  62.6547432  56.4101124
  13.7107050  61.8797684  55.1456738  82.0781803  70.2114439  49.4081974
  81.8979549  70.4481840  50.3179789  82.3508835  71.0315847  48.9968109
  82.3690319  51.5493870  28.1989884  81.5832901  51.4461994  27.6621556
  83.0855179  51.6049290  27.5666857  69.1428328  64.4586563  42.9552269
  69.4018173  64.2120218  42.0673466  68.5398626  65.1920891  42.8338289
  65.5858564  64.5234680  65.4189920  65.3413630  65.4077244  65.1459503
  64.9072838  64.2697573  66.0446167  36.7177534  35.3532887   1.9528332
  37.5002551  35.6391096   2.4242415  36.9356990  35.4779387   1.0291485
  68.1972694  56.1344671   3.1643090  68.8092756  56.6283321   2.6186219
  67.3498011  56.2438297   2.7329561  66.9385481  85.2021885  40.3955269
  67.0105171  84.3122864  40.7406807  67.0430946  85.7656384  41.1622286
   1.1472128  11.0822415  64.3914890   1.5458320  11.4016783  65.2009916
   1.1503595  11.8406188  63.8074636  48.4721327   0.8975610  72.6646614
  48.5228920   1.7102274  73.1678820  47.7495861   0.4132248  73.0641365
  10.7678223  16.1493671  36.7363524  11.3111377  15.4139698  36.4531016
  10.3122020  16.4301705  35.9427595  18.0100906  44.5606422   4.7592181
  18.0091345  45.1748133   5.4934031  17.2444415  44.8067093   4.2401165
  61.7140102  47.1555281   8.7942195  61.4001036  47.7307701   9.4919264
  62.2083521  46.4741421   9.2498201  43.6980534  26.7683101  20.6500864
  43.3428335  26.3336587  19.8747611  42.9471922  26.8644118  21.2359214
  77.3650503  67.4626160  67.7207375  76.8256903  68.2523203  67.6796007
  77.7520895  67.4822474  68.5959816  58.8067722  76.9664478  49.3489981
  59.1839075  77.4735308  48.6300611  58.7351084  77.5910091  50.0708151
  57.2608805  37.9739118  16.4316547  58.0819178  37.4888706  16.3488328
  56.6334677  37.3288274  16.7579246  22.8337336  23.7634802  46.6030502
  21.9295335  23.6494327  46.3103962  23.2948732  24.0949249  45.8325148
  48.3994579  56.2537813   5.3144306  49.1446161  56.3066053   5.9129113
  48.2229471  57.1625090   5.0709206  89.0444946  51.4408636  59.0031672
  89.9691105  51.5849638  58.8018131  88.7233162  52.2987509  59.2808437
  82.8165436  21.1005712  56.9470501  81.9076920  20.8621621  56.7643023
  83.3227921  20.3303909  56.6886616  84.9461460  80.0390625  39.6930242
  85.8017063  79.8580456  40.0822258  85.0784302  80.8398724  39.1856313
  74.3363905  14.5799339  15.9456313  74.2491198  14.5039809  14.9954486
  75.2811003  14.5981932  16.0986793  44.7601414  85.3299236  12.3887253
  43.9327669  85.6929111  12.7048171  44.5279169  84.4664097  12.0472062
  35.0160813  45.6688356   8.1626576  34.8889494  44.7235298   8.2430720
  35.4217362  45.9272051   8.9902574  87.5926495  36.7077899  71.5486336
  86.8703461  36.5304542  72.1511745  87.5004768  37.6352620  71.3306189
  55.1483679  43.6681509  10.6565487  55.2526665  44.5671463  10.9682655
  55.4283619  43.6978626   9.7416979  80.2152061  39.6376872  60.6147051
  80.5591297  40.2609777  61.2546015  79.2870474  39.8592448  60.5394745
  26.1359501  79.2468834  48.3206701  25.5309534  79.3281364  47.5833702
  26.0401702  78.3395720  48.6102247  88.0601501  65.1561117  60.9918118
  87.8374767  65.1343346  61.9224977  87.6622772  65.9647274  60.6692076
  78.4751511  31.3010120  73.0438995  78.7369108  31.1786199  72.1313572
  77.8191614  31.9974232  73.0135584   4.0191415  66.4691734  59.6682072
   4.3378425  65.9282827  58.9456463   3.1811672  66.0752344  59.9107838
  76.1806726  31.8737578  68.5920382  76.0770845  31.5459824  67.6986933
  75.5020523  31.4215732  69.0932703  59.4656992  41.6766119  17.7597165
  59.4549274  42.5900364  18.0456686  59.5656681  41.1737537  18.5680306
  67.6785231  72.9370165  74.4762516  67.2669220  73.2696438  73.6786509
  68.5769224  73.2649803  74.4368458  83.4758949  40.9696770  33.7848020
  83.0631065  41.1598158  34.6272326  84.3260098  41.4072371  33.8304520
  81.5741825  81.7019939  44.8915577  81.9221115  82.4236679  44.3677664
  82.3475552  81.2049675  45.1581764  91.6193676  78.3254814  49.9898291
  91.6825008  77.5326729  50.5224705  91.5450954  79.0364361  50.6264257
  88.4761810  21.4960146  50.6362963  89.4143867  21.6191030  50.4918909
  88.3895588  20.5729246  50.8742762  65.7432461  74.4994545  70.8858538
  65.6556988  75.0922775  71.6322660  66.1741543  73.7239361  71.2451887
  28.4002447   5.3066409  68.3993864  28.2399035   6.2498903  68.3710384
  27.8090143   4.9835181  69.0792894  50.6192160  60.0031471  44.0013695
  51.2140179  59.2531824  44.0029001  50.6092882  60.3028202  44.9103975
   0.6353422  72.3617268  52.2745991  -0.1090842  72.5678539  52.8399086
   1.3035645  73.0035448  52.5149775  72.2247362   7.2733808  71.3524866
  72.1792650   7.0297402  72.2770405  72.2565556   8.2300347  71.3581800
  63.3135366  79.7731876  58.8952494  63.2792997  79.4894505  57.9817104
  63.1818056  78.9708424  59.4003439  17.4196398  62.9560232   6.3442510
  18.3439827  62.8927612   6.5847099  17.1343589  62.0473623   6.2484103
  76.4910793  15.5961835  69.3891907  76.6719151  15.0005627  68.6620283
  76.5197134  16.4688027  68.9968252  53.9979124  18.5020590   1.0238035
  53.1241035  18.5574365   1.4106226  54.3996048  19.3490791   1.2172709
  65.1360321  21.0401964  17.9069579  65.0661564  21.6232896  17.1510804
  65.3282881  20.1815557  17.5301230  54.8284578   1.4300264   7.1198577
  55.0844479   0.9811440   6.3141239  54.0722990   1.9604509   6.8686527
  20.7407832  28.9694428  16.9406879  20.9435701  29.3177009  17.8089178
  19.8868740  29.3446684  16.7255676  83.5228634  54.0659761  59.3259096
  82.8440189  54.1747475  58.6598969  84.3451595  54.0955400  58.8368368
  33.8224816  80.7441425  65.1056147  32.8905272  80.5258274  65.1110029
  34.2316651  80.0606441  65.6363010  62.9692650  18.7154186  15.9854639
  63.7387514  18.3977473  16.4579105  62.3387051  18.9314294  16.6724598
  58.6934328  28.5916185  31.3233113  59.2903280  27.8628492  31.1534762
  57.9510641  28.1924486  31.7769432  83.0712605  36.1056709  71.9161415
  82.5337124  36.7451763  71.4489079  82.4481392  35.6148767  72.4519444
   7.1730226  38.0533552  31.0017037   7.3630333  37.3489523  31.6213369
   7.9480803  38.0951500  30.4415512  46.5286875  60.7320929  71.8331861
  46.4871073  59.7764206  71.7985582  46.6279840  60.9339523  72.7635765
  57.2518158  57.8784132  47.1458769  57.5955153  58.5118055  47.7758884
  57.7556562  58.0370474  46.3476229  24.3644786  47.4886036  49.8086500
  24.6780205  46.6777182  49.4081640  25.1221561  47.8295565  50.2839470
  62.3321295  61.4567280  63.7924480  62.9883432  61.1592579  63.1622648
  62.4904490  60.9246826  64.5722532  17.3410022   8.0321497  67.9928970
  16.5071487   7.5623274  67.9792118  17.3346853   8.5546947  67.1909380
  37.3239517  70.8278656  33.6140513  37.6505780  71.0450745  32.7409124
  36.7232633  71.5413284  33.8294005  79.0832520  85.7941151  71.8356943
  79.0492392  86.2477112  70.9934807  78.8687134  84.8849297  71.6269064
  84.6173668  10.7467699  51.0534000  84.7709560   9.8219305  51.2465715
  84.0964413  11.0623884  51.7918062  19.8581493  66.0344219  53.6536455
  19.8653936  65.9744644  52.6983547  18.9837062  65.7376289  53.9056301
  85.4947853  58.6935186  36.7829180  85.1292133  59.4530582  37.2364497
  85.8335114  58.1363010  37.4836326  44.7718763  24.7165322  73.4112263
  43.8778973  24.6959591  73.0697441  45.3143358  24.4203115  72.6803255
  22.2633433   7.2955328  74.3734789  21.3494015   7.0918185  74.1748810
  22.3702478   8.2068998  74.1010618  48.3213234  57.7136993   2.0941371
  48.2698584  58.3113384   2.8400669  49.1663885  57.2758198   2.1959247
  63.5563707  86.3191128  62.8882742  62.7973270  85.7359982  62.8808355
  64.0479708  86.0824013  62.1018076  62.9454374  68.4985209  66.0033131
  62.4983883  67.9620743  66.6579866  62.9693890  67.9494905  65.2195930
   4.9748501  43.2322216  73.0994129   4.5214015  43.4965658  73.8998699
   4.9117559  43.9954615  72.5252008  77.2497320   2.4264053  70.0917101
  76.8353558   2.0033702  69.3396664  78.0003834   1.8689151  70.2965498
  78.2142353  65.1923323  52.2376966  79.0817499  65.5635071  52.0768023
  77.8914595  65.6623459  53.0065536  74.6246338  46.5544844  63.0287695
  73.8773489  46.7730904  63.5855579  75.1207256  47.3704052  62.9624891
  23.8371658  22.9920888  18.5053468  23.9544940  23.8629103  18.1256962
  22.8908300  22.8492069  18.4890330  82.6147270  83.2016277  42.6074076
  82.8375244  83.0246830  41.6934681  81.9311523  83.8701534  42.5621843
  31.3519096  12.8909194  47.9777765  32.1295381  12.4145782  48.2686806
  30.7353330  12.2066247  47.7173805  54.7301674  14.1635430  69.0593863
  54.1373396  13.5794103  68.5865450  54.8850775  14.8887396  68.4541416
  28.4290576   7.3886889  72.2231483  28.1369972   8.2895911  72.3620987
  28.5582805   7.3220229  71.2770557   4.2792353  17.8647637   0.1604185
   4.0955585  16.9580030  -0.0851023   3.6498508  18.0568719   0.8555455
  24.3988204  10.3799450  30.7638693  23.6131358  10.2234054  30.2400136
  24.0819907  10.8465290  31.5372705   9.1019005  22.3373151  43.5394382
   9.0303880  21.3865590  43.6241722   9.8198974  22.5766730  44.1254568
  88.5324860  82.3193741  58.2685137  88.0853176  82.1352196  59.0945625
  89.4006538  81.9303417  58.3742142  65.2101421  31.0570765  31.4265466
  64.6812201  30.3229189  31.1143255  64.5937347  31.7866731  31.4894986
  86.7347908  48.0001068  68.7720490  86.4047909  48.8959837  68.7032318
  86.0955906  47.5512552  69.3253946  79.5835161  83.1435585  20.0231242
  79.4830275  83.2982540  19.0838671  78.9997339  82.4079990  20.2085209
  73.7620926  66.2849855  49.2796516  73.5495472  65.6130838  49.9274206
  73.9956760  65.7932615  48.4923267  55.4225349   3.9539817  30.9911442
  55.0901318   3.0990666  30.7175374  55.1673079   4.0270618  31.9107914
  43.5152149  59.9502563  58.3929634  43.8979340  59.4396973  59.1064692
  42.7643347  60.3914690  58.7901306  26.6502190   6.7159700  27.2218847
  26.7921352   6.8650186  26.2870693  26.1902142   7.4998021  27.5222731
  76.9225155  86.1231359  20.2506757  77.6397251  86.0843398  20.8833981
  76.7695974  87.0588289  20.1190448  40.0778055  12.3611641  29.7788191
  39.9037671  11.7459619  30.4911852  39.2375255  12.4509776  29.3292665
  31.6293120  62.6893044  64.6267223  32.1956062  63.3355570  65.0485039
  30.7525253  62.8886223  64.9549723  68.7011194  85.0565815  19.4696546
  67.9161692  84.5100498  19.5069122  69.4251299  84.4455242  19.6061742
   2.5068995  74.7771931  43.3967829   3.1535304  74.1608143  43.7405586
   2.1078378  75.1649046  44.1756678   2.3249878   4.6345335  57.8909874
   3.2609957   4.4356787  57.8669500   1.9840103   4.0961289  58.6051893
  71.0425854  75.5270576  15.6979704  71.1322594  74.6089220  15.4425967
  70.8117533  75.9798288  14.8868322   6.4356029  26.5537906  58.2882404
   5.9612823  27.2414374  57.8209162   6.0968328  25.7372570  57.9211712
  11.0640836   6.8722504  35.6203485  10.9102714   6.1925024  34.9642110
  11.0279918   6.4095885  36.4575291  12.3563553   0.6332190  63.9747334
  11.9798351   0.1420671  64.7049570  12.2323919   0.0648767  63.2145739
  78.8679218  62.7027035  25.6948018  79.7198200  62.3173714  25.8997917
  79.0530252  63.6309052  25.5519438  61.7416859  70.6562996  51.2997103
  62.1600771  70.3827858  50.4833984  62.3662853  70.4118299  51.9826031
  55.7449053   0.1418096  39.6931267  55.6518052  -0.5340689  40.3645086
  55.0985549   0.8064920  39.9311566   9.7015291  68.5240364  42.5035763
  10.1023221  69.0724182  41.8291330   9.1180474  67.9386377  42.0207834
  72.7202511  26.6009426   3.0893776  72.4714375  26.4480543   4.0009409
  72.4335623  25.8131027   2.6274824  35.3805351  68.7303734  47.0557785
  35.4285789  69.1567707  46.2001419  35.1829267  69.4404602  47.6664829
  53.9079380  58.2461166  56.2998343  53.7150860  57.4493504  55.8056688
  54.6616554  58.0147743  56.8426275  64.0173244  12.1139932  40.8195448
  63.5934544  12.1605468  39.9625731  63.5801458  11.3875616  41.2638426
   2.9055467   1.0600743  51.0606384   3.6899319   0.5875459  50.7819128
   2.9629269   1.9043675  50.6133032  66.3720560  82.1841812  70.3458548
  66.6527748  82.1255112  71.2590837  67.0078039  81.6539478  69.8653269
  34.2061257  23.5869813  61.9160366  34.4674706  24.2547750  62.5500584
  34.3847370  23.9833975  61.0632849  28.8935423  14.1206467  49.0065336
  29.2975020  14.8963320  49.3955851  29.6147037  13.4990191  48.9078474
  76.5941000  56.7543507  70.2199030  75.9932470  56.1566782  70.6648731
  76.5253973  57.5728846  70.7113457  77.1347618  69.4341040  10.3870451
  77.8385496  69.0501070   9.8641074  76.9868374  68.8020420  11.0904992
  43.1899691  12.3912990  39.0294576  43.2219553  12.0957410  38.1195927
  44.0337420  12.8202856  39.1717482  89.2489243  79.4122410  60.2592230
  88.5109615  80.0214863  60.2807045  89.2719078  79.0956163  59.3561983
  22.5635195  54.5557451  45.1164150  21.9929671  53.9616966  44.6287632
  21.9660091  55.1888704  45.5143690   1.9535975   8.3199900  33.9026022
   1.3802780   7.5946695  34.1504860   2.7649751   8.1593782  34.3843699
   2.0717300  74.2224836  64.4722080   1.4575964  73.9453793  65.1521206
   2.8120446  73.6219501  64.5589542  57.2442007  19.5623994   8.8832349
  57.7868700  19.6371078   8.0982757  57.1362782  20.4638553   9.1864866
  90.8992863  67.0972061  35.6318307  90.0628757  67.3266840  35.2268672
  90.9509277  66.1447763  35.5516005   0.5363091  30.0591350  51.9058895
  -0.3663123  30.2231765  51.6327667   1.0653310  30.3136897  51.1498690
   0.8239974  27.5087047  31.0761809   0.3356482  27.6851130  31.8803120
   1.6330375  27.0925689  31.3736963  64.8910332  78.7631226  50.1667023
  65.0932217  77.9098988  49.7828293  64.3657207  79.2069006  49.5008707
  40.1155519  84.9197006  17.1522117  40.2177095  84.2623329  17.8404450
  39.7804642  84.4300079  16.4011097  68.3938503  83.7665558  62.7208662
  67.8396130  84.2985153  63.2918882  69.2871571  84.0330029  62.9382038
  34.7358656   1.2786427  52.8206635  34.0282321   0.8026633  52.3860025
  34.7507191   0.9257860  53.7103271   1.6578535  69.3724002  74.8639530
   2.4443487  68.8269938  74.8777054   1.7053083  69.8401560  74.0301760
  15.2306056  66.0445642  35.5538702  15.5358779  65.3948116  34.9207282
  15.9955812  66.2241793  36.1004806   6.0881364   1.9280687  45.8530855
   5.8305711   2.7296275  45.3976774   5.2617639   1.4824659  46.0395718
   0.6384983  74.0923023  67.1556139   1.4901325  74.3807983  67.4838209
   0.2973576  73.5214424  67.8440714  87.7831173  78.6577415  10.0871825
  88.3700657  78.7694359  10.8350158  88.1844044  77.9593945   9.5699674
  76.6526413  71.9347286  50.4974461  76.8187571  72.0929670  51.4267445
  77.3530436  71.3411570  50.2266169  31.3874793   4.6962652  41.5827847
  31.9603229   4.9595758  40.8625412  31.4416957   5.4187393  42.2083426
   3.9304492  53.4896803  41.7531681   4.3611127  53.3302116  42.5930071
   4.6048242  53.9008665  41.2124491  33.8021199  -0.2313631  27.1664023
  34.4931115   0.4291708  27.2160316  33.0805842   0.1381189  27.6754236
  91.7186304  74.4687605  19.5417786  92.0373067  74.8539972  18.7255239
  90.8220636  74.7933245  19.6257949   4.8570445  42.7381611  33.3375049
   5.3335410  43.5683155  33.3423400   4.9620846  42.4068975  32.4456167
  14.0636861  49.7665453   6.9686484  13.9181030  50.4926968   7.5750631
  14.9909508  49.8282623   6.7392975  43.1055117   3.6483794  42.5936317
  43.0836868   4.3178201  43.2774496  42.2092676   3.6187026  42.2588158
  40.4364872  37.0140553  11.5436959  40.6499958  37.6730680  12.2042632
  41.2703466  36.5823841  11.3577640  27.6046538  15.9393954  32.4041009
  26.6574669  15.9291434  32.2663879  27.7244902  15.5564797  33.2731485
  39.1899776  17.8114176  34.7217941  38.2971954  17.8020406  35.0668788
  39.1088629  17.4532521  33.8378429  59.5236158  81.1004639  44.1455746
  59.0184641  81.7583370  44.6233273  59.3879128  81.3175678  43.2232475
  23.0502772   0.4797251  33.8349032  23.3633423  -0.2389093  33.2855511
  22.1251750   0.2830429  33.9823270  20.1786995  37.5468993  64.5150900
  20.5732799  37.5115347  63.6437225  19.2901206  37.2139668  64.3893385
  66.3122702  75.4036808  57.7887154  66.9928312  75.4171610  58.4616852
  66.4937496  74.6131945  57.2803593  18.6995280   7.6692706  48.1533146
  18.2092679   8.3032155  47.6298714  19.1343677   8.1969810  48.8231421
  33.4033489  15.9641051  45.5676174  33.1094790  15.8910811  46.4756584
  32.9882836  15.2259398  45.1214504  10.2819979  76.6321182  57.5050402
  10.5440164  75.7527685  57.7776575   9.3741083  76.7129326  57.7973366
  30.0691724  19.8253918  41.4954519  29.2892766  20.1872206  41.9162560
  30.6440520  19.5856178  42.2222614  29.2076612  32.7928162  39.8532152
  29.5449328  33.1450319  40.6768799  29.7877312  32.0586681  39.6512866
  72.1630955  17.3834586  45.7022429  72.9068947  17.5850177  45.1344681
  71.6414356  18.1860018  45.7075453  76.3882303  72.0192671  16.4908266
  76.0229063  72.7757025  16.9497108  76.4858246  71.3515091  17.1696579
  43.9930153  10.3266406  21.9726777  44.6102810  10.0282383  21.3047194
  44.4033337  11.1063373  22.3467660  72.2096539  78.1194496  57.9130363
  72.5442886  78.1130362  57.0162582  72.3450804  77.2249174  58.2256174
  61.1002541  32.8273249   8.7882072  61.2032270  32.5163841   7.8887945
  61.3936520  33.7380695   8.7618405  30.3813934  13.0775142  39.9138355
  31.3112926  13.0684686  40.1406384  30.3237462  12.5484109  39.1182470
  50.8632183  28.0593395  28.7368393  51.6294479  27.5759459  29.0458012
  50.7005262  27.7145505  27.8588414   3.7375551  85.4115486  49.3090296
   4.5232648  85.0295448  49.7001457   3.0701628  85.3374100  49.9911785
  59.1536856  63.7459517  66.7534876  59.2295790  64.5831776  67.2112322
  59.6910620  63.1427193  67.2668695  27.6167226  31.7308474  49.7763348
  27.8290033  32.2683930  49.0133047  28.1164336  32.1232462  50.4922533
  43.6119699  79.6070910  59.1780376  44.0253258  80.4309177  59.4362688
  42.7256107  79.8557377  58.9157963   6.7623830  85.6290054  53.8225508
   6.3337940  86.1133766  54.5281935   6.3152963  84.7827816  53.8069820
  78.6238289  72.3916912  58.6234236  78.0304193  72.9849911  59.0839577
  79.2070055  72.0589876  59.3056583  57.7059126   3.3380607  48.4477186
  57.6162529   3.8592455  49.2455626  56.9675303   2.7295524  48.4748888
  74.0059423  83.1365967  58.7373734  73.8809967  82.8133488  57.8451109
  74.8173475  83.6428070  58.6973047  33.0025816   2.2641814  29.6166849
  33.4127903   2.4989709  28.7843204  32.4351835   3.0072182  29.8220825
  25.8282924  25.1800036  44.4284964  26.2093043  24.4084454  44.8477316
  25.7297945  25.8143187  45.1385450  29.5774293  36.1063313  73.7655592
  30.0690079  36.4718103  73.0300283  29.0619969  36.8412375  74.0979385
  87.7187920  85.4021931  52.7987528  87.3081493  86.2416458  53.0059624
  87.6152706  85.3122807  51.8514252  13.3558083  84.4782543  29.1326332
  12.7153873  85.0516224  28.7115049  13.3058703  83.6598492  28.6387205
  19.3526161  38.3334064  53.7829733  20.0366974  38.5167122  53.1390285
  19.6056342  38.8428760  54.5528126   4.9307957  18.6516583  42.7644014
   5.0109607  19.1326678  41.9407320   4.7632805  19.3275630  43.4211540
  46.5914488  61.3810587   3.0565017  46.8575907  61.2880611   3.9712441
  47.3515654  61.0865498   2.5547808  36.4509749  24.6447325  73.3217525
  37.0223713  24.8122048  72.5722933  35.9012651  25.4259419  73.3831167
   8.4234548   1.6428618  44.4383907   8.6249799   2.4308860  43.9337730
   7.5487250   1.8025532  44.7927618  15.7152319  19.4517088  70.9062767
  15.1916933  18.7419879  71.2783480  15.0776589  20.1327944  70.6921387
  12.5232863  85.5516434  57.6393223  12.0012832  86.0565662  58.2628536
  12.3863125  84.6395969  57.8955364  22.9795814  42.1613979  68.1625319
  23.3060408  42.1394777  69.0620708  22.2181106  42.7403021  68.1981277
  70.1382637  48.0945969  69.8360729  70.3242397  47.2485399  70.2432966
  69.1865540  48.1820154  69.8893499  33.4396243   9.4236881  48.7733269
  33.8609886   8.6692965  49.1851234  33.0619693   9.9149144  49.5029163
  32.0941329  14.6948814  50.3518963  32.5567102  15.1307762  51.0676098
  32.6479173  13.9465034  50.1294422  21.6868162  36.0656714   8.7420988
  21.2973285  36.8359494   8.3283269  20.9661365  35.6645727   9.2278683
  32.0054007  74.1442108  26.7430782  31.7181349  73.6398315  27.5042033
  31.8892479  75.0579405  27.0035315  73.4805870  71.6922951  68.1370926
  73.2278156  72.1903372  67.3597336  74.3832159  71.9598866  68.3099604
  30.1375294  35.3479099  26.9826198  29.2475486  35.1133585  27.2455907
  30.5298066  35.7216144  27.7717304  57.1373653  35.7466149  13.5681379
  58.0291939  35.8070636  13.2257736  57.1989822  36.0910273  14.4590998
  65.9579515  13.1032872  26.9536281  66.7617607  12.6036501  27.0967555
  65.6073236  12.7623510  26.1307931  30.8965993   4.7925356  22.0500684
  30.7391667   5.5608910  21.5013623  30.0229669   4.5028344  22.3128796
  37.4112320   8.8102466  40.3180361  36.9553900   9.4138420  39.7314262
  38.0910063   9.3438303  40.7296562  42.5691128  20.2033854  60.8427048
  42.6413393  20.7479835  60.0588512  42.2422504  19.3631053  60.5212641
  75.9093857  58.9231730  40.8672857  75.0568151  59.3580008  40.8838940
  76.5369272  59.6317863  40.7248306  16.4592421   0.9667358  44.4636774
  15.5434823   1.2253954  44.5671701  16.9008410   1.7625067  44.1670799
  73.3136511  75.1374245  68.3174419  72.4277210  74.8715878  68.0710745
  73.7512159  75.3135157  67.4845171  35.2914548  26.9943905  45.3488255
  35.0820780  27.7633739  45.8789730  35.3281403  26.2731338  45.9770584
  79.0579367  58.5152912  62.6784182  79.1978359  57.6907778  63.1440783
  79.8727512  59.0019178  62.8029394  18.6340868  57.3357916  47.6263952
  17.9431629  56.7307854  47.8962469  18.2002175  57.9427481  47.0267391
  12.9815829  63.4184504  70.8259678  12.0555031  63.2907438  71.0316324
  13.3821547  62.5636101  70.9841347   9.5196420  65.2026606  24.4836473
   9.7547448  64.9061012  25.3628564   8.9622778  64.5059729  24.1369367
  29.9825835  29.7821903  45.0014877  30.5046988  30.5610299  44.8090410
  30.5741596  29.2128277  45.4935265  11.2691081  84.2776585  37.3568320
  11.8359709  83.9948845  36.6392422  11.7864192  84.9312401  37.8274155
  14.7425997  71.6943216  34.8007131  15.4400337  71.1421728  35.1541972
  14.1099572  71.7678833  35.5152655   0.5001515  70.1267767  21.3309097
   1.2398962  70.5238867  21.7905951   0.8750771  69.3673563  20.8848786
  62.3874855  35.5264115   2.0372833  62.0633459  35.4028153   2.9294097
  62.8105116  34.6959829   1.8189526  87.4771023  70.3314590  58.7379646
  86.5380573  70.3750944  58.5576344  87.7326775  71.2398767  58.8982534
  41.4111328   7.7249795  32.7985024  41.6932058   8.0473143  33.6545181
  40.5372000   7.3666239  32.9535985  57.5687742  76.9321299  14.7762656
  57.0374203  76.8370199  15.5667412  57.2032261  76.2938499  14.1637242
   8.5525030  25.9573984  69.9710560   9.3227857  26.5094733  69.8364782
   8.0183297  26.4410257  70.6011295   7.2867680  80.0835419  38.3545375
   8.2337439  80.1002884  38.4930587   6.9905323  79.3009233  38.8192821
  41.6511488  15.2951908  65.9700918  41.3390541  15.3314388  66.8742561
  41.6059065  16.2012017  65.6645918  75.2893782  76.1707067  70.3344679
  74.5570993  76.3101816  70.9349251  74.8779488  75.8990526  69.5140028
  15.5002105   5.3519136  64.6668196  15.8859110   5.5585545  63.8154888
  14.6299517   5.0116271  64.4592476  36.0168600  16.9588459  33.2546234
  36.1234856  17.2894239  32.3626709  35.5528641  17.6579380  33.7152886
  12.6677883  25.9282446  57.3908567  13.1943858  25.4202127  58.0079699
  12.5608790  25.3506494  56.6350842  31.9470310  37.1936464  48.2030916
  32.1485496  36.3253951  47.8541470  31.0531211  37.1162248  48.5365057
   1.3353683  66.5517998  64.9988890   1.4474127  65.9026575  65.6933594
   2.2229250  66.7189598  64.6818209  87.3727798  40.8191919  67.5278425
  87.5724125  41.1152792  68.4159422  86.4189529  40.8712101  67.4667549
  15.1731682   5.0395906  36.3941836  15.2783263   5.6076729  37.1573734
  14.7040546   5.5785495  35.7572484  12.0507300  80.1116467  34.6892357
  11.7799294  80.6190205  33.9240766  11.2307835  79.8798275  35.1253343
   6.0515958   1.2028061  52.8321218   6.4897835   1.0788213  53.6740541
   6.7634970   1.3653371  52.2132397  13.4797144  75.5078745  55.3100491
  13.4825647  74.5554543  55.4055309  13.1308603  75.8308363  56.1408520
  55.4963684  36.5254092  17.8912973  55.1335096  35.6877065  18.1790781
  54.8966217  36.8240190  17.2076547  42.1715355  18.5038555   0.2215195
  41.3556385  18.0033159   0.2208525  42.4733210  18.4687579   1.1292241
  33.1148648   4.1332996  23.5563970  33.0185318   4.7001782  24.3216419
  32.3538017   4.3345940  23.0118823  54.7305346  11.7530823  57.4738264
  55.2624178  10.9753811  57.3049736  55.1000690  12.4249923  56.9009256
  31.7532682  48.3755112  68.6457634  31.6969657  48.5001898  69.5931387
  31.0283470  48.8913918  68.2927942  29.0800881  74.4709826  57.6267147
  29.3488598  75.3237391  57.2849464  28.2117462  74.3253279  57.2512102
  17.6763737  57.5484324  39.6220040  17.0262408  56.8954659  39.3627858
  17.3867881  58.3562231  39.1979241  17.1647155  73.4009361  26.1805463
  17.3045051  72.5166893  26.5193558  17.6615274  73.4253979  25.3627372
  29.6145821  70.7197905  44.3154907  30.4654598  70.6466293  43.8831854
  29.0453410  71.1193275  43.6577892  24.2884016   9.2405576  73.0638504
  24.5809579   9.9197215  72.4560881  23.5154748   9.6145171  73.4869003
  24.2233539  70.7622862  36.4146876  23.5066628  71.2009144  35.9562182
  24.6634960  71.4624834  36.8965960  76.4815092  79.0150928  32.6972771
  77.1545219  79.1423273  33.3659291  76.7192316  79.6251678  31.9990444
   7.6965982   7.9307908  42.8943491   8.4430975   8.5281157  42.8477240
   7.1222532   8.2090753  42.1809626  59.8921156  62.2736168  10.0948787
  59.7823524  61.9607735   9.1969299  60.8080339  62.5475311  10.1428032
  44.8777962  14.8919928  27.2709084  44.2519617  15.1133013  26.5812850
  44.7293854  15.5506599  27.9494095  47.9367065  50.3175497  70.8785582
  47.3301268  51.0472202  71.0045719  48.6450052  50.4847908  71.5003061
  18.6235023  14.5469797  23.0747080  18.0155432  14.3549347  22.3607492
  19.3889534  14.0025842  22.8904486   4.5575950  29.1588497  52.7350760
   4.0949729  28.6234784  53.3797359   4.4104677  30.0600219  53.0222607
   1.6685462  68.6191225  71.5287971   0.7859781  68.9023113  71.2898159
   1.5352091  67.8083277  72.0197725  17.7187109  64.2359114  53.1960726
  17.0178139  64.8818016  53.1077576  17.6691782  63.7173986  52.3930025
   3.0428123  81.3984203   8.5802591   2.9448900  80.8553314   9.3623716
   3.5199654  82.1709061   8.8832742   6.6473573  53.6573982  40.9119463
   6.2212253  52.8140926  41.0651541   7.5826538  53.4718847  40.9958315
   8.5755688  14.8820388  28.8866019   8.4280902  14.0885174  28.3720088
   8.2741648  14.6562886  29.7666144  46.7586374  37.2428632  23.7417507
  46.8067455  37.2966814  22.7872753  45.9788561  36.7147613  23.9128661
  41.6479254   3.2909262  22.2923207  41.2812805   3.9243206  22.9092622
  40.8851624   2.9176426  21.8506455  24.1985798  61.6388130  33.5191774
  23.6933017  60.9415054  33.9371324  24.9728680  61.1973429  33.1701636
  42.0767832   8.5263717  53.9421129  42.4977016   7.9043645  53.3486748
  42.4851608   8.3606362  54.7918129  30.5496573  21.2959194  36.4872909
  30.6281090  20.9479094  37.3755264  30.9445548  20.6243348  35.9311771
  13.2011569   5.8265460  29.4879580  12.4598360   5.5064952  28.9739108
  13.5829461   6.5209335  28.9510250  37.9098177  36.2084579  45.2863979
  37.0050454  36.0433102  45.0211716  37.9880524  35.7906842  46.1440563
  28.5758829   7.9113364  57.4058485  29.5003605   7.7089101  57.2623396
  28.5724878   8.8241452  57.6939487  32.0348573  24.6867609  43.2340145
  32.4677277  24.1153789  43.8683462  31.4927530  25.2686691  43.7666845
  70.1396704  45.3152704  23.6287308  69.9547291  46.0555887  23.0508399
  70.7641411  44.7796631  23.1394506  65.9742355   6.9008547  39.3289089
  65.1584482   7.3951137  39.2487311  65.7275152   5.9975713  39.1303158
  55.6218624  22.1794558  20.8947968  54.8518610  22.7395558  20.7967257
  56.0518789  22.2116733  20.0402331   3.3656520  16.1143315  44.7819090
   4.1416094  16.3149440  45.3052378   3.7068787  15.6578481  44.0128708
  76.9341516  69.6840048   6.6151279  77.0146036  70.3536463   7.2943479
  76.2814045  70.0346804   6.0091764  32.3947763  27.5557780  36.6223979
  32.8806877  27.3210025  35.8318257  32.5943995  28.4817481  36.7601013
  46.3820396  -0.2975195  70.1032972  46.7268430   0.5843050  70.2437639
  45.5519770  -0.1602285  69.6468115  41.7217875   4.7187820  51.2555552
  41.8862200   4.3020415  50.4096699  41.8816900   5.6494802  51.0991430
  52.0512342  24.5633674  49.5874500  51.7667866  24.9708962  50.4055214
  52.3318768  25.2964091  49.0396166  26.5438104   3.4561306  39.7073817
  25.8859181   4.0301177  39.3150234  27.3798442   3.8746041  39.5020533
  17.2006881  22.0916319  50.6716013  17.8477204  21.6682696  51.2358189
  17.6177227  22.1230483  49.8105955  30.4857206  65.3658533   0.7135355
  30.2686024  64.4351959   0.6590407  31.1258173  65.5037498   0.0153293
  14.8967862   3.1593347  49.3054295  15.2327669   2.8460848  48.4656572
  15.6565845   3.1458181  49.8874569  78.7181902  34.0612459   5.5816233
  77.7847672  34.2400217   5.6956309  79.0918684  34.9007702   5.3136748
  67.0529413  85.5010605  64.0017748  67.0574999  86.2991142  64.5302820
  66.1393166  85.3944111  63.7369061  42.1021128  20.6782866  55.4623985
  42.9493570  21.1100078  55.3527594  42.2615719  19.7695553  55.2074194
  33.8486481  78.5370541  50.6942081  33.3294630  77.7541256  50.8777905
  34.4045281  78.6423016  51.4663172  60.3422642  33.9823270  44.2286682
  61.0443878  33.3347583  44.2911768  60.5168772  34.4466662  43.4100533
  78.5962152  22.8198051  61.1869955  78.5062122  21.9306946  60.8440495
  79.1219187  22.7183914  61.9804573  86.5798473  10.1478052  64.2467403
  87.1007061  10.7856393  63.7587786  87.1554756   9.8605210  64.9555016
  48.4037256  75.3530741  44.4904423  49.3325424  75.5126286  44.3228817
  47.9521704  75.7807255  43.7628126   8.6802405  12.5455892  32.7186394
   8.1489742  11.7805004  32.9391551   9.1086769  12.7846336  33.5405469
   8.8968909  21.3739276   9.2081028   9.6690130  20.8464289   9.4125634
   8.2133126  21.0311079   9.7837996  51.7339420  24.5827961  14.7088420
  51.3917828  24.6605945  13.8182771  50.9635210  24.6710730  15.2699876
  37.1631646  28.5702682  57.3886728  37.4494195  28.4908867  58.2986116
  36.2487006  28.2876635  57.3997450  49.8335791   3.1321818  67.3065615
  49.3876076   3.8878739  67.6890087  49.8433685   2.4800196  68.0071449
  56.0235167  29.9160337   7.9884893  55.8259392  30.6286263   8.5962760
  55.5033302  30.1142359   7.2098017  88.1922340   9.7786009  67.0087433
  88.3413410   9.7183228  67.9523325  88.8587093  10.3922045  66.6996574
  40.4272795   7.8910697  58.8860416  40.0729895   8.5869414  59.4396448
  41.3764858   7.9682040  58.9824200  65.2445745  50.8519650   1.8863943
  65.6785059  50.4737997   1.1215895  65.9117794  50.8361006   2.5725567
  34.7155333  18.6493695  66.8610048  35.0412989  18.2967162  66.0329056
  33.8664532  18.2250631  66.9845295  60.3794622  21.0001612  46.5310764
  60.0745058  21.0746455  45.6268167  60.3712893  20.0598502  46.7099142
   1.0533158  21.0194325  37.8384900   1.7565161  21.2789392  38.4338021
   0.9869964  21.7435861  37.2160482  53.3637667  31.0277796  15.9123433
  53.5465288  30.1309562  15.6320989  54.2026711  31.4808679  15.8275568
  55.3241825  56.2144184  14.4426513  55.2530432  57.0994282  14.0849757
  54.4482279  55.8428383  14.3384218  35.9393811  18.3948243  30.9009957
  35.4981780  18.7937462  30.1510406  36.8648553  18.3846366  30.6568146
  42.6611185  16.3189304  44.8474312  43.1914854  16.2871325  45.6436300
  42.7574921  17.2172165  44.5311642  63.0122805  14.9498463  23.5734820
  62.5352144  14.2355824  23.9959359  63.3640575  15.4651892  24.2993641
  14.3159723  49.9390364  37.9981279  13.9959073  49.8752069  37.0982862
  13.5934162  50.3396654  38.4814954  25.0238872  31.0197353  71.1067677
  25.8405614  31.1973906  71.5733624  24.4599771  31.7634320  71.3192558
  91.7994402  80.3013420  60.8515882  92.0987316  79.6574783  61.4935350
  90.9272215  79.9992895  60.5981493  49.2638779  16.6571259   2.9589105
  49.2666721  15.7012391   3.0089477  48.5796165  16.9270277   3.5714215
  29.3274426  77.4247122  43.7152767  30.1429081  77.3459578  44.2103004
  29.3098378  78.3370733  43.4262943  10.8364093  81.8473053  52.8623438
  11.4262462  81.9392395  52.1140957  10.8184004  82.7171516  53.2614231
  54.0482092  19.5848668  24.9492025  53.7429857  19.2312181  24.1137362
  53.2877350  19.5237911  25.5272889  30.4300117   3.4421822  69.4648075
  29.9912190   4.1645479  69.0154982  30.4804516   3.7236378  70.3783035
  26.7871332   8.3053106  47.4865913  26.6103101   9.2404807  47.5886774
  27.3897481   8.2551008  46.7445850   8.4568161  76.8776703  62.8361845
   7.8713620  77.5068617  62.4147654   8.6963511  77.2915554  63.6653757
  15.1142931  17.9330444  39.1007686  15.0991058  17.5511706  39.9783659
  16.0253286  18.1958246  38.9696431  47.5054359  20.9809828  32.6403379
  47.1052980  20.7983303  31.7901850  46.8209124  20.7741308  33.2766342
  11.2348771  55.7913876  50.5116463  11.4648950  54.8674679  50.4131937
  11.6424501  56.2211275  49.7596884  57.1475840  15.8831537  25.1812243
  56.9740295  15.5316448  24.3079829  57.7895927  15.2816021  25.5583119
  20.8235049  20.8260703  35.3664851  20.8457637  20.6113338  34.4339466
  20.1655102  21.5176249  35.4373813  76.3835382  27.2292161  47.3612928
  75.5379200  27.3567677  47.7912807  76.2583494  27.5775957  46.4785719
  55.5137587  23.7374115  49.1344643  55.0285149  23.4834528  48.3494329
  54.8373461  23.9897776  49.7629642  56.9587374   6.7165864  35.5711317
  56.6568804   5.9099674  35.9888411  56.3461971   6.8560416  34.8489261
  63.8355827  72.1145391  30.6641912  64.2270660  71.8037605  31.4805174
  63.6164284  73.0301428  30.8370209  82.0359516   2.6443478  22.3626208
  81.7126942   2.5897476  21.4633131  81.2590981   2.5083527  22.9050493
  66.4469004  36.2058163  16.0131788  65.5218172  36.4326906  16.1079395
  66.4467859  35.4276156  15.4558325  41.9919872  21.0000372  30.0369430
  42.2111464  21.6169739  29.3386698  42.7307320  21.0523629  30.6433654
  49.4466448  26.7933321  43.3030033  48.9244080  27.5616145  43.0722570
  48.9499474  26.0527802  42.9549980  30.7776785   7.6559085  49.2882442
  31.2324214   6.8290043  49.1280222  31.0848236   8.2369131  48.5923052
  58.4774113  75.7401562  52.7578592  57.8535509  75.8320808  52.0377350
  58.1728029  76.3612986  53.4193993  71.4987278   8.0876201  28.8173747
  72.4409676   8.0843800  28.9859295  71.4004612   7.6039124  27.9972506
  57.6564837  29.9155092  20.2355552  57.7263927  29.8579192  19.2826509
  56.7906094  29.5590758  20.4341626  18.1467056   9.5888561  65.6592512
  18.2588768   9.2459476  64.7726488  19.0230989   9.8731488  65.9187603
  68.4822845  28.4879518  27.3059845  67.8922987  27.8674626  27.7339363
  67.9470062  29.2687678  27.1644330  77.0526695  73.9194965  30.3804779
  76.5535831  74.6984148  30.6263113  76.7667007  73.7235212  29.4882631
   1.1669097  61.7248774  63.8035250   1.9461730  62.2150707  63.5414362
   1.5084863  60.9726763  64.2870045  65.6147099   8.7086046   3.9193630
  66.4058256   8.5315812   3.4104124  65.6317425   8.0590463   4.6222252
   3.9684772   0.9001325  20.9566331   3.5745999   1.6360119  21.4252210
   4.4079667   1.3012624  20.2068496  32.0698190  18.9578044  19.3286335
  31.3699961  19.2552352  18.7472439  32.2497725  18.0607164  19.0474188
  22.0339704   9.1490728  46.0958052  22.7004004   9.8333424  46.1580658
  22.5082827   8.3361936  46.2704086  47.3825407   1.4180902  32.0669031
  47.4047756   0.5608170  32.4921322  47.1169472   1.2319241  31.1663294
  55.4661942   6.3503408  70.3440809  56.3143158   6.7232573  70.5846214
  55.0623417   6.1152023  71.1794519  35.0811028  26.3280368  36.8846369
  34.3313456  26.4149570  37.4733114  35.1829004  27.1970797  36.4965224
  35.8165789  34.3651247  47.4516535  36.5402627  34.8242211  47.8779650
  35.9152389  33.4539127  47.7276850  74.4267702  16.7930782  39.0141129
  73.6229420  17.1149957  38.6061168  74.9632025  16.4912891  38.2810426
  15.9937429  77.8479910  27.2315550  15.7771099  76.9158554  27.2522402
  16.4582384  78.0042410  28.0537844  27.3529363  13.3748746  22.8901267
  28.1451321  12.9562545  22.5533605  27.0150948  12.7596343  23.5409546
  20.9406614  68.4072638  56.0110235  21.8945003  68.4400558  55.9378910
  20.7513618  67.5062656  56.2729359   9.7720718  53.4629726  38.9450812
  10.1039946  53.2917023  39.8264003   9.2332208  52.6990509  38.7394309
  24.6854806  12.4750936  73.0988073  25.5065989  12.9665005  73.1215429
  24.5618129  12.1735513  73.9988136  25.4100849  85.7720840  34.1021514
  25.0707676  86.3939465  34.7458768  24.8424055  85.8831312  33.3394980
  29.0488338  25.9051991  69.0824175  28.6379218  25.8749127  68.2184315
  29.7917271  26.4989209  68.9736366  85.6366348  84.2755222  69.9827623
  85.6393814  84.1691780  70.9340334  85.6851387  85.2218533  69.8474026
  38.4940672  14.2548227  38.6151838  38.7311888  14.1985452  37.6895261
  39.1332603  13.6985588  39.0604162  29.2987490   4.0248153  55.5176210
  28.5698915   3.4112418  55.6099653  29.7903061   3.9374584  56.3343048
  41.3163137   8.8266319  42.7756500  40.6847715   9.3618292  42.2950792
  41.5023804   9.3297070  43.5684490  10.9104156  36.4773440  48.1225872
  10.8005202  37.0509887  48.8809347  11.0190320  35.6032276  48.4972286
  43.6452007  14.3111932  74.7437382  43.8534498  14.9882770  75.3874969
  43.6163425  14.7763801  73.9076757  80.2041721  38.3617902  64.1268444
  80.1039219  37.5684619  64.6529722  79.4065332  38.8633704  64.2954302
  72.1266985  44.6086645  14.7498882  72.7442837  44.3355179  15.4282773
  71.7756701  45.4409456  15.0666165  62.6383400  32.9307151  21.6005206
  63.1621408  32.3677754  21.0304666  61.7451477  32.8441930  21.2674189
  29.8784542  25.2153015  49.6174049  29.2094040  25.4715967  48.9826488
  30.6937551  25.5693245  49.2621803  49.8514843  30.7960343  26.0069823
  49.1374683  30.3452730  26.4577889  49.5153332  31.6780400  25.8479261
  18.9816403  79.6976328  13.8171136  18.4002972  80.2530193  13.2976711
  18.9078176  80.0405407  14.7077286  20.0965834   8.6298835  41.1120224
  20.7020020   8.7279028  40.3771162  20.6049299   8.1723905  41.7817402
  60.2578640   8.7523574  32.7820683  60.5834007   8.5760146  31.8993664
  60.6404018   9.5986396  33.0138040  54.4485903  45.7319927  21.8815637
  54.5941305  45.3555965  22.7495337  55.1155424  46.4138794  21.8012977
  47.7144432  20.8320832  20.2435780  48.0616093  21.7234468  20.2779365
  47.7009153  20.6160903  19.3111634  40.1660681  28.7537909  51.5402508
  40.8492565  28.9534783  52.1802616  40.4198408  27.9058957  51.1756897
  35.3630233  46.4610100  62.3841810  35.7160068  46.0713100  63.1840372
  35.1186705  47.3507547  62.6388788  16.3202322  20.9082937  47.1144247
  16.5631771  20.3847289  47.8780270  17.1386445  21.3187766  46.8352556
  45.8536530  10.2840698  26.6749024  46.0875177  11.1141181  27.0903063
  45.1498604   9.9330908  27.2205400  75.1896000   5.5789030  58.1788349
  75.4375505   6.3556755  58.6802101  74.3132401   5.7766968  57.8485298
  61.4649296  15.0806129  51.1609459  60.9888172  15.5249953  50.4594660
  61.1864614  14.1669798  51.0979939   4.5715666  68.8191223  14.4445431
   4.7368866  69.7612524  14.4086337   4.1925505  68.6097479  13.5908794
  28.0242848  31.6579413  21.7942309  28.3974028  31.2008381  22.5479364
  27.5376558  32.3892617  22.1744823   1.1010375  66.1899614  30.9492469
   0.3196610  66.2642527  31.4971185   1.3545495  67.0953226  30.7695842
  76.0417223  35.2839351  43.7218046  75.6716013  36.1588669  43.8390207
  75.8131933  35.0455976  42.8233576  34.8090577  22.0045471  30.9489942
  33.9107323  22.2965670  30.7941794  34.8436522  21.8238854  31.8883538
  26.5643835  18.7534642  25.0399947  26.3786721  17.8338075  24.8503280
  25.9852624  19.2405844  24.4538522   9.8077804  77.9187679  64.9531412
   9.7894889  78.0694675  65.8982229   9.9029469  78.7921333  64.5731354
  25.1422787  14.8457181  50.3017092  24.3811488  14.5201612  49.8211670
  25.7915902  14.1467369  50.2238989  64.9720955   2.8208554  45.2584743
  65.4108095   3.6557889  45.0952244  64.0391922   3.0220416  45.1847267
  46.8480825  12.8026021  27.4098158  46.3130999  13.5924911  27.3316979
  47.1998501  12.8385723  28.2993102  29.4031119  18.3748281  55.0005150
  28.8755155  18.6461663  55.7516813  30.3083920  18.4810281  55.2927876
  71.4012051  43.9266634  28.0736113  72.2491550  43.9298773  27.6295400
  71.3190556  43.0407333  28.4266114  15.4635823   5.9705353  49.1178226
  15.6530654   6.4796835  49.9059200  15.3684497   5.0710094  49.4309282
  76.0896739  38.1972157   0.3657161  76.5621444  38.7544953  -0.2526988
  76.6999957  38.0754219   1.0929738  21.0539818  37.3544860  62.1663523
  20.3516030  37.9660869  61.9453430  21.5465069  37.2510386  61.3521338
  74.5952940  80.2206516  24.6382332  75.5132818  80.3332901  24.3915629
  74.4856453  79.2739344  24.7273135  87.2079468  73.7594318  70.6645584
  87.2609043  74.6734428  70.3852558  87.1173573  73.8047123  71.6163874
  43.6825275  45.6200790   6.3959026  42.8493214  45.4097652   6.8175298
  44.2296314  45.9611082   7.1034372  29.8263884  17.9429543  52.3938179
  29.9342036  18.8194144  52.0244598  29.4745421  18.0943418  53.2710409
  20.5183816  25.4096484  58.7631369  20.6595826  25.9525371  57.9875278
  21.3981223  25.2395129  59.0997982   4.9993056  19.5459580  29.9938703
   4.3975863  19.9777293  29.3874550   5.2134007  18.7157023  29.5683455
  75.9507322  28.4237289  44.9030876  75.4992676  29.2016387  45.2306128
  76.8807840  28.6259580  45.0047874  46.5223694   1.1549352  26.2669110
  46.8442297   1.8537587  26.8363667  45.5787182   1.3059016  26.2124133
  24.3865657   2.1524802  44.8431015  25.0264192   2.1830171  45.5543566
  24.8841548   1.8424729  44.0864420  80.9525108  26.0711527  16.8778026
  80.1457310  26.0166907  17.3900282  80.7290936  26.6365528  16.1384511
  53.4459305   4.7829965  57.3172092  52.5192499   4.7580689  57.5557041
  53.5018396   4.2586476  56.5183592  52.9307985  21.4346075  51.7871094
  53.6401224  21.8321180  52.2921562  53.3542585  20.7359385  51.2883377
  35.8864689  62.7631521   3.1553811  36.2011313  62.7859879   4.0590939
  36.6781926  62.8465176   2.6239160  21.6307521   7.0894504  51.2622452
  20.8544898   7.1403885  50.7045269  22.3061347   6.7118180  50.6987906
  54.8022079  57.7958584  24.8917818  54.1611910  57.6959801  24.1879678
  55.4679155  58.3797884  24.5283437  23.4419751   4.7342521  40.7773113
  22.6735830   4.7473022  40.2066660  24.1557908   5.0534123  40.2251863
   8.1276727   6.3228631  62.9725075   8.3331156   5.5398875  63.4833670
   7.4696350   6.7829818  63.4935760  20.5533838  63.3957767  16.0051191
  20.2083874  62.5055265  16.0733902  20.2449226  63.8336754  16.7984223
  90.1416588  69.4366407  23.3113670  90.7907867  69.7798014  22.6972699
  90.6259727  69.3134022  24.1277552  62.1880770  27.6976252  67.2719002
  61.4823008  28.3300543  67.1372128  62.3321629  27.3118854  66.4077997
  20.7147861   0.3763542  28.6166668  21.0314345   0.0271142  29.4497323
  20.1724768   1.1260248  28.8618755  11.5807974   1.0743796  59.1432047
  12.5245428   1.0447288  58.9860439  11.2790120   1.8347940  58.6462879
  32.3950434  60.2864408  24.5222735  32.4757385  60.9826422  23.8703346
  32.9062319  60.5974913  25.2693796  37.0812941  14.5786619  55.8117151
  37.7056646  14.9153483  55.1690388  36.2495875  14.5388639  55.3395796
  69.6407127  36.9711018  53.8886547  69.2773533  36.9803858  54.7741604
  68.9542389  37.3562717  53.3440208  41.3901472  18.6327636  50.0668478
  41.4087486  19.1661680  49.2722654  40.4637909  18.5880923  50.3037024
  47.4516821  26.5213585  54.4118786  47.6298952  25.7847595  54.9965954
  46.6127062  26.8693781  54.7139215  17.7240205  42.7672863  34.5973206
  17.5728405  42.8207159  35.5409956  17.8313518  41.8319511  34.4245291
  54.0247869  24.5897436  44.1821146  54.7304773  25.2315092  44.1023159
  54.4350338  23.8335848  44.6018219  66.5738869  19.0518284  36.4820337
  67.4006033  18.5738349  36.4165020  66.6099548  19.6913517  35.7707381
  59.7606182  13.6763656  66.0948420  60.6639671  13.3605921  66.1168098
  59.8017931  14.5476174  66.4891243  56.7690897  22.3606443  74.1282272
  56.4197350  23.1925464  73.8086653  57.5825119  22.2385907  73.6386633
  46.0092402  20.2406502  22.2343278  46.3378811  20.3003335  21.3372970
  46.7973995  20.1977921  22.7758074  46.0055494  79.9531746  65.5922937
  46.6542435  80.3024769  66.2033701  45.2096558  80.4518604  65.7769489
  19.5569491  29.9138546  43.6018515  19.3477762  29.1144919  43.1186342
  20.5125403  29.9171329  43.6572218  57.5855112  12.0132959  27.8132081
  56.8559837  12.6274633  27.8957891  57.7630043  11.7302287  28.7102032
   3.1809944  85.1832390  33.7235475   3.0886889  86.0918808  34.0100312
   3.6141911  84.7441578  34.4555163  52.8413057  32.2922063  19.8461926
  52.4945498  32.7183390  20.6300282  53.5749197  32.8452754  19.5775700
  69.0195322  81.4788532  68.6781168  69.0883684  81.8740177  67.8090143
  69.9068737  81.5266132  69.0338993  50.7166195   4.7545084  47.4295092
  51.1805248   5.1318705  46.6821003  50.4443407   5.5108726  47.9491329
  36.0534596  32.9903388  22.7975297  35.6172824  32.2261572  22.4206877
  36.8478966  33.0950928  22.2739553   3.9793494   2.2242543  23.8238597
   4.8429751   1.8218310  23.9157176   3.9299297   2.8523785  24.5444512
  41.7900705  11.0484672  51.3582850  41.4663219  11.9320416  51.1830187
  41.0606956  10.6083333  51.7947769  58.6283493  32.6253605  33.3262038
  59.5174026  32.4035001  33.0494523  58.6768866  33.5498857  33.5693693
  33.1674480  10.7619011  59.0385914  32.5188351  10.5577874  59.7122860
  33.8332558  11.2762046  59.4951248  52.2361708   8.2546252  64.1273165
  52.7640820   8.9523780  63.7391472  51.5815258   8.0499202  63.4596586
  57.4924994  49.3379259  14.4627035  57.9212904  50.1826286  14.3254471
  56.5998125  49.4676352  14.1425192   1.9485332  67.7082300  69.0630388
   2.0184989  68.5581398  68.6283159   1.9417614  67.9168606  69.9972010
  50.9120512  21.3689542  23.9867377  51.5358591  21.1534977  23.2934284
  51.3436556  22.0582438  24.4915438  78.0767202  70.8505106  24.5168042
  77.1905375  70.6327486  24.8057532  78.6377048  70.5894613  25.2471352
  14.5194221  22.7342319  64.1187811  13.9857316  22.1780729  63.5512495
  13.8934803  23.1248355  64.7285843  18.6235046   2.1059911  55.0147390
  18.1053507   2.2210942  55.8112955  17.9817343   1.8766798  54.3425941
  51.3253164  16.7944133  56.1137438  51.7137003  16.8127942  55.2390718
  50.6010818  17.4185622  56.0673857  35.9623456   9.9775529  37.9135609
  36.2410212  10.1008952  37.0061707  35.2418733   9.3496686  37.8596020
  54.3865728  52.3503637  43.1270456  55.0140142  53.0028152  43.4382629
  54.9262190  51.6029978  42.8692389  17.9585755  63.8355350  39.3564415
  18.6918557  64.4354630  39.2199945  18.3707237  62.9906321  39.5367169
  80.1203442  76.1034298  49.2220974  79.5074654  75.3948784  49.0257120
  79.5711517  76.8051147  49.5717525  47.0247316  21.0267115  49.6006918
  47.6061773  21.6086888  49.1113472  46.1474085  21.2447405  49.2860508
  56.4146852  55.2305460  16.8340027  55.5631924  54.8070049  16.9426811
  56.4057159  55.5591965  15.9350359  62.4857235   5.9449512  54.4334936
  63.1049156   6.3415819  55.0462866  63.0371475   5.4948163  53.7935400
  75.7264328  46.8989134  71.2830877  75.1010084  46.3621044  71.7698240
  76.2725687  47.3017740  71.9581223  81.3298512   8.1763244  55.0986624
  81.5768719   8.9623553  54.6114588  80.5513287   7.8497320  54.6475983
  47.0035887  16.7196763   9.0511471  46.3712120  17.1145666   9.6514738
  47.1054268  17.3653030   8.3518422   7.5672972  55.3689671  68.6124802
   6.9875145  55.2338076  67.8629351   7.3505265  54.6569824  69.2144108
  77.6714373   9.7730029  49.4224024  77.9109716  10.4245102  48.7633181
  77.9333830   8.9362746  49.0383434  59.7510242  29.9704766   5.3883767
  59.2795610  30.5865788   4.8276871  59.3209934  29.1292667   5.2345157
  52.6937771   7.6539052  59.3187618  52.0969725   8.3977163  59.4012356
  53.3165598   7.9203653  58.6424685  26.8142605  81.7726040  33.1615210
  27.4760175  81.5423965  33.8136816  26.1991072  82.3346615  33.6325908
  45.4104614  18.2674015  61.1315632  45.4710579  19.2109883  60.9825516
  44.8592186  17.9470837  60.4175854  62.3707867  21.7313385  67.2013855
  61.8456697  22.0043087  66.4490747  63.2203531  21.4967108  66.8279886
  34.4410920   5.8191192  15.6619513  34.2958832   4.9562731  15.2738237
  34.6400595   6.3863987  14.9170768   8.2988250  77.3317671  54.3149900
   8.3425313  78.2758427  54.1631651   7.5744110  77.2215080  54.9308634
  23.7861443   3.4621444  62.5743961  23.6275053   3.6849141  61.6570950
  23.2005930   2.7247599  62.7465153  44.8101377   7.0707017  48.0066395
  44.7027349   7.3393899  47.0942259  45.6934690   6.7040831  48.0459690
  30.8000994  25.5046010  26.8954635  30.9504771  24.7235227  27.4279428
  30.9015679  25.2023673  25.9929156  42.1024990  74.2907667  63.8197994
  42.9761362  74.2575264  64.2095280  41.8044233  75.1868296  63.9761591
  34.6059918  80.1636410   2.9771641  35.3554916  80.2019787   3.5713115
  34.6005464  79.2618179   2.6563549  62.3838472  10.3468299  29.1586971
  63.1016207  10.6271899  28.5908675  62.1398020   9.4826347  28.8272715
  60.7935762  26.8335915  17.2299397  60.6489134  27.2138262  18.0963850
  60.2645397  26.0358810  17.2270811  88.7137508  49.8456049  31.4961886
  89.4614792  50.4429770  31.5129972  87.9614544  50.4085970  31.3136435
  76.1680174  46.8027449  12.5339210  76.7739677  47.2172594  11.9197249
  75.6593227  46.1961031  11.9959152  25.5149341  38.0374599  11.8968022
  24.8619866  38.7241578  11.7613780  25.2434731  37.6051688  12.7065337
  42.6881981  16.2939632  49.9416065  42.5838518  15.6800067  50.6685209
  41.9765568  16.9238091  50.0560379  76.3501024  76.9994354  49.9720144
  77.1957064  77.4244070  50.1154661  75.9310055  77.0033884  50.8325815
  41.3636398  14.8011148  52.8119087  40.4141903  14.8013878  52.6903486
  41.5171576  14.1509116  53.4974003  82.8934097  34.3060088   2.5221354
  82.3291588  33.5807705   2.7902478  82.5643253  34.5593333   1.6597183
  77.5822306  39.6038723  63.7850285  77.4887562  40.5364466  63.5906076
  77.4192762  39.1673851  62.9488754  20.3038311   6.0417831  55.3702497
  20.9258580   6.7098665  55.6583071  19.4505441   6.3716489  55.6518888
  80.6064796  45.5274153  60.2947330  81.1125374  46.3007212  60.5440044
  79.6933603  45.7947254  60.3994989  76.7558765  50.1614141  26.0514474
  76.4919090  49.3198156  26.4232898  76.8603945  49.9877167  25.1159596
  13.2730675  84.5621490  44.9841642  12.5715733  83.9136791  44.9239302
  13.4382641  84.6497822  45.9229183  47.1984863  36.1028028  45.9672642
  47.1950722  35.4424119  45.2743673  46.5304995  35.8053303  46.5849495
  64.6779776  36.7878199  56.3505745  65.1449299  37.6118255  56.4891386
  64.5193005  36.7581701  55.4070854  27.3911881  36.4985633  47.6931906
  27.3346567  37.4527025  47.7447128  27.9799914  36.3329291  46.9569111
  66.2887573  15.7727456  43.6221838  67.2008801  15.9341943  43.8634300
  66.1430788  16.3242865  42.8535414  70.1945591  20.9973764  23.4114242
  70.6148195  21.8522596  23.3176637  70.9050512  20.3669477  23.2931137
  27.2350383   2.4430396  55.4242277  27.3591208   1.9653650  56.2443876
  26.3151574   2.7073604  55.4378128  64.0047741  27.3322248  46.6951609
  64.2055416  26.6524816  47.3384857  64.8445892  27.7604723  46.5291929
  87.2228909  81.5448380  60.4013634  86.6338158  80.8106518  60.5751371
  87.0698166  82.1514034  61.1258507  37.3005414  24.7536850  17.5383937
  36.4515042  24.5332766  17.9215252  37.4404001  24.0866947  16.8662381
  60.3883934  32.6246142  49.8559856  59.4953394  32.3039246  49.9818659
  60.6781530  32.2130060  49.0418291   5.6586266  78.4182119   9.4670969
   6.3947266  77.8110075   9.5425385   6.0257196  79.2701244   9.7031426
  41.3494444  80.3756523  22.1914220  42.0764303  80.9058762  22.5178885
  40.6272888  80.9957218  22.0902181  71.7854786  39.9001837  62.4452543
  72.5190496  40.0413275  63.0437422  71.0266781  40.2547646  62.9086351
  69.1584539  30.0294614  34.0766048  68.9110279  30.8078480  33.5774779
  70.0615883  30.1953316  34.3469119  56.4370203  26.8037152  48.8404655
  56.7218924  25.9337068  49.1200495  57.2446537  27.3147964  48.7879372
  73.3659077   2.6935774  23.9717054  72.5338745   2.3142973  23.6886811
  73.9476061   2.5831896  23.2195950  44.9382401  35.1554465  47.0153952
  45.0902367  34.3248129  46.5646458  44.4227695  34.9187207  47.7864218
  49.4900370  17.8457165  45.0147772  50.4331112  17.9228282  44.8702288
  49.3258810  18.3608711  45.8046532  49.3737936  24.2791462  34.6973634
  49.1740131  24.1802526  35.6282449  48.8657570  23.5902953  34.2688632
   7.5580639  81.7619514   3.4410587   6.7336953  82.1268845   3.1193864
   7.3522139  80.8500671   3.6467996  48.1234789  17.3920679  49.3334341
  48.1852865  18.1555498  48.7594080  47.2839975  17.4964917  49.7813225
  21.1862254  28.8032174  35.4089355  20.6325459  28.1822395  34.9355888
  20.5693507  29.4061661  35.8238435  42.4680948  29.3773794  15.6801093
  42.4318743  30.0409198  16.3690460  43.3561993  29.4444871  15.3293920
  56.6105938  34.2670012  46.1930084  56.3582706  34.4744563  47.0927477
  57.2191191  33.5330439  46.2780857   2.3328391  48.3927631   4.7933465
   3.0494964  48.5562134   4.1802245   2.7160236  47.8281879   5.4646546
  67.5979090  23.6161232  33.9882255  66.7174864  23.4044433  33.6779356
  67.5901413  23.3740306  34.9142718  63.5522127  18.5168993  55.0878811
  62.7216816  18.5076511  54.6120977  63.8048363  17.5955105  55.1466656
  75.5463123  18.4318483  41.1236715  75.7622433  19.3556690  41.2508106
  75.3938341  18.3488703  40.1823473  65.1267385  59.8358107  27.1311712
  65.5876160  59.2013979  27.6801229  64.8402452  59.3306541  26.3702679
  49.2203999  18.8978553  42.3266888  48.5957527  18.2244456  42.0573139
  49.5436096  18.5985529  43.1765032  29.7247863   4.4596726  51.6839314
  29.2642045   3.8004780  52.2031212  29.5655394   5.2826798  52.1460247
  63.7235641  20.8576918  40.9910917  64.6689653  20.8579087  41.1409283
  63.3456755  21.0678864  41.8450546  63.3278799  27.3512840  14.9877965
  63.2953787  26.7572045  14.2379665  62.6338863  27.0409989  15.5694592
  61.3766146  52.4943209  27.3425603  60.8288622  52.5260353  26.5582180
  62.1032953  53.0872869  27.1513510  68.4773731  30.3962111  41.4783907
  69.1783810  29.8579526  41.8459463  68.3273983  31.0756755  42.1357059
  69.0391064  36.8254948  39.7030401  69.3233156  35.9570885  39.9882197
  69.7731352  37.4006438  39.9189925  14.9240267   1.8607998  28.0465198
  15.1427841   2.7513522  27.7721238  14.6048319   1.9581971  28.9436603
  45.9095669  12.9133332  55.9368563  45.9361982  12.3764098  55.1448727
  46.5069056  13.6387396  55.7546329  52.4727297  32.6497936  37.7163696
  53.4071302  32.4750590  37.6041412  52.1315241  31.8635345  38.1425238
  38.2350993  24.4530678  57.7059841  39.1386938  24.7453976  57.8255463
  38.2165527  23.5726738  58.0812120  56.4526176  46.2868643  40.6599045
  57.1833897  45.6696415  40.6246805  56.8612671  47.1474409  40.5669165
  39.9667501  17.7068150  53.8101578  40.8446503  17.8743732  53.4674454
  40.1055670  17.5029182  54.7350311  59.2949677  35.7920074  47.0747900
  58.4209919  35.5675936  46.7553616  59.6127319  36.4524555  46.4591026
  28.7230849  23.6375546  53.3584833  27.9235220  23.3853030  53.8203287
  29.4238067  23.1851339  53.8281012  50.5517387  34.7979736  36.0566187
  50.8899689  35.3873444  35.3824735  49.8675632  35.3035331  36.4954185
  75.9710503  45.6038618  54.7704935  75.1633310  45.7421255  55.2651691
  76.6261578  46.1292553  55.2298689  86.4652824  61.1595631  10.0591731
  86.5366459  61.1647892  11.0136938  85.5511093  61.3844442   9.8861063
  70.7995605  10.9760749  68.2865334  70.6311941  11.4356387  69.1091394
  71.2311029  10.1633692  68.5501862  52.8028059  19.4320285  33.5614586
  51.8811941  19.6614707  33.4422016  53.1700516  19.4485950  32.6776671
   1.4738698  65.4798555  67.4068928   1.6709755  66.0747337  68.1304312
   2.2360206  64.9029303  67.3567438  46.5592337  24.7910166  41.9214344
  46.2211514  25.6232572  41.5908194  45.9220552  24.1399598  41.6275692
  61.1667442  31.0609961  62.6775312  61.5692425  31.1583352  61.8145418
  61.4339781  31.8455839  63.1563234  60.1194477   4.1286635  43.7913561
  59.9415350   3.3022645  44.2404032  61.0486555   4.0836003  43.5660315
  47.1987247  16.6023302  44.0121317  47.9610252  17.0109153  44.4222403
  47.1527004  15.7313287  44.4064283  52.9588652   3.2591233  54.9184752
  52.1883965   3.1849077  54.3553591  53.6968088   3.0604213  54.3421221
  80.9096813  31.5906763  16.5102100  79.9825573  31.3526535  16.5147185
  81.1504173  31.6336799  17.4356425  57.8367996  28.8363981  27.8492999
  58.6567354  29.2960787  28.0299473  57.6709318  28.9984775  26.9206190
  40.8341932  84.9324703  21.2441063  40.8628559  85.7448673  20.7387209
  40.9670067  84.2417240  20.5949068  47.5142002  36.4389658  31.9632483
  47.8777885  36.4442801  32.8486896  47.0134211  37.2526431  31.9050765
  45.4287052  78.2878590  25.6224346  45.7926750  77.4074936  25.7157731
  45.9688520  78.8323164  26.1951828  80.5697346  31.9167948  49.0515709
  80.0704575  31.9130683  49.8682356  81.4123535  31.5267849  49.2842102
  57.8660965   7.9425192  70.7097435  58.7366629   8.0928892  71.0781622
  58.0312204   7.6820630  69.8035812  41.6943121  24.0072489  40.3689623
  41.8381786  24.7949433  40.8934355  40.8260965  23.7006211  40.6305027
  59.0987253   8.5086024  35.7965255  59.1204119   8.1683111  34.9021173
  58.3471680   8.0742222  36.1998940  63.6532831  49.8337793   4.3150228
  63.7657595  50.2126980   3.4432429  64.4433069  50.0895786   4.7911155
  55.5912352  17.1572113   9.6882933  55.2899265  16.6631997   8.9258009
  55.9718418  17.9552436   9.3215263  79.1952276  23.5107017  66.8818712
  79.3130445  24.4129825  67.1789265  78.2603121  23.3407474  66.9971275
  47.5563002  23.0550981  73.6471176  47.2594213  22.3765516  73.0407619
  48.2163048  22.6210999  74.1877365  79.1862059  23.9030528  52.3136234
  79.8356104  23.7850070  51.6203928  79.5578909  23.4489560  53.0698490
  50.9661102  20.2671552  47.2018719  51.1671829  20.8486915  47.9350948
  51.0551357  20.8205009  46.4259100  65.3318596  39.6015692  11.2462580
  65.9589291  39.6248150  10.5234349  65.8751440  39.5752192  12.0339000
  45.2101564  20.4388356  74.2246008  45.5263519  21.0543919  74.8859167
  45.8856630  20.4479313  73.5464811  79.7627020   7.5895578  69.0605116
  79.6701908   8.5409373  69.0100098  79.9967480   7.4197805  69.9729967
   7.6743495  31.9354129  47.7533245   7.8132474  32.1103668  48.6840963
   6.8277526  31.4902306  47.7170277  57.2758341   6.5116549  54.0436172
  56.7094040   6.0008872  54.6219778  58.1646013   6.2700170  54.3042564
  43.5429001  23.3068991  38.5835910  43.3340645  23.7900114  37.7840781
  42.8888512  23.5997844  39.2181587  53.6089325   6.1641055  23.4091926
  52.7124739   6.3780296  23.1506658  53.5271502   5.8285642  24.3019152
  51.7047310  46.8999624  36.2693715  52.6017475  46.9822741  35.9456134
  51.1631632  46.9125843  35.4802108  82.1791363  53.2644320  36.1145759
  82.4620914  52.3614454  36.2587261  82.3780155  53.7119389  36.9370198
  55.4898119  76.6867208  32.0322895  56.0762215  75.9637547  32.2551727
  56.0751724  77.4187613  31.8381166  52.2772312  33.6333656  16.5698683
  52.7012348  32.7978277  16.3740861  52.2087288  33.6493063  17.5244808
  82.1499443  66.6660690  30.4217601  83.0956841  66.7728662  30.5237365
  81.7877102  67.5268841  30.6315494  84.4803333  35.5285788  53.4526157
  84.6988773  34.7287822  52.9742861  85.1187134  36.1727595  53.1464577
  75.0235319  47.3894548  14.9396050  74.6901417  48.2635975  14.7372282
  75.8603334  47.3393631  14.4775581  54.1796637  82.1207142  50.8053637
  54.7906208  81.3841057  50.8242655  54.1432142  82.4249935  51.7121840
  59.7657728  51.5263367  29.4150758  59.8611927  50.5752420  29.4654894
  60.4741096  51.8077564  28.8360310   9.9381697  61.8527365   7.3002350
   9.0495431  62.2058153   7.2565210   9.8225182  60.9484720   7.5920677
  65.7484913   6.7854416  54.6372795  65.8317041   5.8625078  54.8770714
  65.6859684   7.2456664  55.4742479  58.3673716  54.5157528  39.0200949
  57.5711775  54.1010904  39.3523026  58.0614996  55.3200674  38.6008620
  78.0414152  50.2509880  45.6085777  78.0286789  50.3811169  46.5568066
  77.2583961  50.7030010  45.2942562  18.1007791  44.0447903  67.7040386
  17.7197683  43.1865072  67.5185299  17.4040616  44.5243263  68.1522131
  41.3824368  40.0666666  17.3695803  42.0497751  39.4916630  17.7440929
  40.7801628  40.2379417  18.0935717  82.4000359  63.4817982  19.3012238
  82.6773453  63.7158251  18.4154689  81.4971447  63.7941790  19.3599176
  65.6101131  56.1889935   2.2002287  65.2572203  55.3172970   2.0217958
  65.3533840  56.3708878   3.1042403  73.6105442  27.7383518  33.7870169
  73.7386608  27.5837803  32.8511071  74.4957304  27.8433847  34.1358018
  64.0091324  42.3385572  21.0860634  63.6834526  42.2525167  20.1900935
  63.5545778  41.6512918  21.5731740  26.3351274  43.8196754  64.0833044
  26.2333512  43.9853430  65.0205517  25.6523156  44.3488359  63.6710119
   8.0597371  47.0073605  28.8614035   7.4599189  46.3645077  29.2398119
   8.9195281  46.7635870  29.2042828  49.2878056  22.1101451  30.7767510
  48.4601402  21.6771579  30.9858537  49.0987825  23.0442119  30.8663177
  37.9549551  78.8603210   4.7097629  38.3570004  78.0513000   5.0261140
  37.0847464  78.8671350   5.1084107  22.2274089  21.2181902  66.0852480
  22.0060635  20.2909875  66.1720467  22.7631164  21.2634277  65.2932882
  67.5726271  56.2553358  28.9450598  68.0802107  56.3986969  29.7438359
  68.2248688  56.2502098  28.2444978  63.5691309  16.3816857  50.2021313
  63.3390903  15.9978640  49.3559647  63.0515003  15.8876348  50.8378983
  43.2218266  52.9367924  46.9357252  42.3114777  52.9987717  47.2249508
  43.2523537  53.4509993  46.1289454  70.8509588  23.9062333  41.7322445
  70.9779501  23.4170747  40.9193325  70.2687550  23.3549285  42.2550583
  58.6733866  44.7423267  40.4559469  59.5547390  44.5442438  40.7725048
  58.3846235  43.9349604  40.0304890  48.4732676  68.8959265  51.6434717
  47.7884626  69.4809914  51.9674730  48.0225277  68.3168554  51.0288668
  86.0801697  63.0550909  61.1103153  86.2192631  63.0960512  62.0564699
  86.8257332  63.5260057  60.7380199   1.6034560  38.4588885  55.3002787
   1.4603452  39.3042660  55.7258224   2.5540757  38.3949304  55.2082825
  70.7527399  20.7275152  12.9136884  70.5321884  20.6970525  13.8446355
  69.9103165  20.6527686  12.4653983  48.4025383  40.3154278  25.9598780
  48.6416006  41.1882925  26.2716317  47.8224325  40.4773712  25.2159142
  62.1933603   3.7554085  11.1624920  62.9572773   4.2511585  11.4572740
  61.7565918   4.3363559  10.5396247  70.4604292  35.3315592  43.6480427
  70.2192974  35.9264827  42.9380083  70.3478527  34.4567561  43.2761812
  88.2898140  43.5573101  33.9450693  88.1394100  44.1275311  34.6990347
  88.7427235  44.1131783  33.3109426  67.4637651  62.2314119  56.8166256
  67.2595406  63.0815315  56.4269829  66.8960524  61.6139650  56.3554382
  80.2648544  64.0013981  33.6199594  80.1893616  64.0269852  32.6660848
  79.4514704  64.3953943  33.9352465  46.0852337  63.8137674  48.7583590
  45.6078529  64.3812180  48.1531000  46.5361214  64.4180632  49.3480635
  67.3071241  76.2805319  13.4909093  67.1441031  76.5435839  14.3967021
  68.2574081  76.3387680  13.3919191  62.4691105  37.5524259   8.2679349
  62.7227259  36.8401980   8.8550013  62.8559637  37.3169708   7.4246448
  74.6183014  65.0206852  46.8052721  74.4083118  64.1880417  46.3823795
  75.4826212  64.8814726  47.1923113  58.2114506  60.5735302  42.4087524
  58.1641865  59.6287060  42.2627878  59.1464949  60.7750225  42.3723936
  60.6505013  45.7871628  31.6712928  60.0022459  46.2115002  32.2333741
  61.2418509  45.3442049  32.2798347  42.1300125  69.4890642  49.6717834
  41.3340044  69.1303158  49.2794847  41.9462442  70.4227448  49.7752380
  61.5733528  58.2651758  56.1517668  61.5194988  58.8496208  56.9079065
  62.5017691  58.2597876  55.9188557  50.5051613  72.2681808  45.8231974
  50.7392740  71.4002466  45.4943895  51.3451481  72.7001190  45.9783649
  46.9807959  41.4671230  45.2946854  46.7678213  41.5872192  46.2201309
  46.1899137  41.7398691  44.8295546  35.5069280  13.6165988  41.8915081
  35.8974051  14.0523648  41.1339664  34.8993063  14.2622232  42.2523308
  64.0027380  49.0041399  23.0598569  63.2383776  48.8177919  22.5146413
  64.7504997  48.7510204  22.5185490  64.0903759  52.9239893  31.0573959
  64.2960072  53.3455133  31.8918204  64.3728304  53.5542440  30.3946495
  29.0331149  24.2755508  71.1040211  29.2743230  24.7120047  70.2869749
  29.6312046  23.5305572  71.1632204   1.3239843  51.7458630  40.0685215
   1.8192543  52.4647617  40.4611063   1.8178843  51.5165949  39.2812896
  66.7489195  33.5441852  14.6149516  65.9332085  33.3007812  14.1772282
  67.2434139  32.7265835  14.6718454  23.6844420  79.2688131   9.4358832
  22.7821088  78.9691830   9.5465422  24.1569471  78.8835478  10.1738131
  66.3369751  59.2805052  37.3598242  66.2227869  60.2304602  37.3317885
  67.0567751  59.1077805  36.7529607  72.3456955  48.4305954  22.7762246
  71.6713238  49.0287590  22.4542689  71.9659996  47.5590658  22.6643991
  57.2659492  63.1007290  38.6634541  57.5485992  62.2347593  38.9574552
  57.2098875  63.0238152  37.7109981  67.6628494  51.9009018  40.0089741
  67.6326418  51.6869831  39.0764713  67.1583414  52.7107525  40.0853920
  59.4814157  39.6153307  37.2213078  59.5913792  39.9844885  36.3450313
  59.4701767  40.3761530  37.8020453  61.5867329  64.2631340  13.0296350
  60.8269596  64.8196459  12.8585482  62.1711588  64.8103476  13.5542667
  65.0852060  30.7374334  43.0727911  65.9046459  31.2158489  43.1987619
  64.7742605  30.5572128  43.9599562  58.2753468  31.2402773  57.4357176
  57.7484465  30.4412770  57.4213648  58.0057240  31.7190933  56.6519642
  57.0214844   3.3275566  57.6886702  57.5604963   2.8864506  57.0320702
  56.3723230   2.6724890  57.9450035  63.6694670  70.3341150  48.6690426
  64.2681885  71.0793734  48.7175703  63.2801676  70.3960419  47.7967787
  73.5564041  54.6504450  39.8657727  74.4275427  54.2615891  39.7874260
  73.5995770  55.1757574  40.6647778  72.2021055  63.9857674  55.1111650
  72.9335117  63.4641314  55.4415751  71.5148735  63.3453083  54.9274492
  61.9774294  63.1530952  31.9703603  62.7557755  63.5987425  32.3047376
  61.2576485  63.5005999  32.4970412  67.2991562  67.9570103  52.2026587
  68.0885839  67.5936794  51.8013859  66.6022396  67.7676153  51.5744305
  40.9007359  13.5875487  49.8905754  40.1985359  13.3720779  49.2768002
  40.4677010  14.0833855  50.5854559  38.0287409  30.0453210   6.5269631
  37.1085453  29.9544096   6.2795633  38.4280968  30.5159116   5.7953262
  72.8263330  29.1177416  55.3974056  73.6881542  29.2034006  54.9897814
  72.3672438  28.4768438  54.8545265  72.1904945  57.5581598  39.4378185
  72.2538233  57.0959616  38.6020017  71.2722397  57.4677944  39.6925139
  65.8684111  55.7194042  44.8178196  66.7926168  55.5628729  44.6239901
  65.8596897  55.9990120  45.7332277  55.0940847   5.2802080  62.3284626
  54.3361521   4.8296893  61.9559002  55.8029842   4.6390843  62.2769356
  76.5908337  21.0676551  24.6868896  76.3481188  21.9696021  24.4775724
  77.3896694  21.1493444  25.2078700  31.0663652  81.1368656  56.2981558
  31.5901780  80.5660820  55.7359743  31.2939620  82.0233822  56.0179377
  68.1792259  22.0670247  55.3749037  67.9426479  21.1396837  55.3922462
  67.3723030  22.5245237  55.6111336  46.9904089  16.6300571  62.7058744
  46.5015602  17.2106004  62.1225834  47.8508091  16.5466344  62.2948074
  60.3852224  27.6864362  37.4986148  60.4084635  26.8002653  37.8597164
  60.8315706  28.2235813  38.1532025  84.7480106  57.2172880  59.8827505
  85.6735516  56.9756889  59.8476362  84.4178677  56.7868471  60.6713915
  71.7661047  38.6996841  22.8922963  72.4390173  38.2376337  22.3923659
  72.1937943  39.5056486  23.1816602  84.4222260   3.0856493  42.8749132
  83.8402271   3.7779897  42.5615788  85.0036907   2.9086441  42.1354580
  90.5715466  23.3605313  27.6351380  91.0928059  23.6180806  28.3955312
  89.6667767  23.5336399  27.8952336  90.4047012  58.3660316  41.5096664
  90.6834412  57.8408432  42.2598076  91.1367226  58.9614725  41.3489199
  42.9196167  32.4612880  20.0128555  43.4860277  32.2446442  20.7534480
  42.3638439  33.1705356  20.3358293  54.8549986  62.9630518  60.8267498
  54.8748827  63.9095259  60.6852341  54.8062468  62.8640127  61.7775631
  25.0170159  68.3782482  70.7448006  24.4385982  68.6147118  70.0197124
  24.4305778  68.0240917  71.4133024  50.4276896  50.4674339  45.1312065
  50.2915621  50.4248190  46.0777187  51.3584518  50.2770472  45.0142860
  49.7143030   5.7381815  65.3048706  49.0751076   5.4823405  65.9698582
  49.5621204   6.6740865  65.1739025  38.6885381  70.7097673  25.5680919
  37.8559899  71.0805750  25.2755213  39.3486929  71.3307476  25.2601838
  80.9130383  73.4673834  23.4240794  80.0180912  73.6738110  23.6936712
  81.4607143  74.0624619  23.9361095  45.3945208  75.7687664  39.9708605
  44.9615431  74.9339676  39.7923207  44.7988892  76.2252426  40.5650711
  21.9759560  32.0147300  68.7366676  22.6269794  31.7987919  69.4043303
  22.1689582  32.9214764  68.4983587  67.3314428  56.0952330  35.6744123
  67.5765705  56.8914700  35.2030826  66.3780260  56.1426210  35.7450318
  54.4456482  83.4536839  40.3473616  54.6385527  82.5443649  40.1189709
  54.7316885  83.9578056  39.5856094  56.7623949  53.3887482  63.4587717
  57.2135115  53.5363770  64.2899942  57.2325945  53.9367867  62.8304434
  38.5802865  14.8458815  44.4090509  38.8119316  15.0926268  43.5136795
  39.0396357  15.4806483  44.9588728  59.4802523  20.1651335   3.1069148
  59.2013550  20.6734657   2.3453072  58.6645889  19.9264228   3.5473046
  68.9788437  56.6897058  31.2191200  69.9292421  56.7774057  31.1464238
  68.8504744  55.8917046  31.7319012  89.4206930  56.9190837  74.7203312
  89.7037197  57.7729894  74.3932636  88.5194517  57.0603563  75.0102368
  88.3044052  64.1287088  30.2515078  88.4578800  64.9898100  30.6403255
  87.4289131  64.1909504  29.8695898   4.1307950   9.9146032  51.2278938
   3.6783135  10.5733478  51.7547226   5.0601000  10.1135242  51.3421535
  73.9252567  48.9810705  55.6016922  73.5620451  49.0010405  54.7163057
  73.2458210  48.5620308  56.1299038  74.1769934  78.7701893   7.3923945
  74.3460894  79.1102886   6.5137762  75.0467491  78.6127949   7.7597946
  27.9100323  55.5372047  16.9151592  27.2348976  55.3377724  17.5637352
  27.9852772  54.7377443  16.3941717  88.6018181  63.6409187  40.2105427
  88.6239243  63.8464928  41.1451435  88.8254929  62.7113628  40.1644182
  79.8084354  59.8386431  18.0844319  80.4888630  59.7196627  17.4217868
  79.6041441  60.7732534  18.0528259  82.8816319  77.4620390  56.2206173
  83.1668568  78.1731558  56.7943668  83.3257675  77.6317835  55.3898573
  84.8492813  15.2605438  36.8073845  85.1960373  14.4507623  37.1818757
  84.9794388  15.9162295  37.4924874  82.8448009  18.4354627  11.3402379
  82.2380924  18.4255743  12.0805383  82.3481750  18.8400221  10.6289530
   5.9029311  69.6522427  48.6564350   5.1804709  70.1106548  49.0855503
   5.5192167  68.8282394  48.3564043  59.7538280  52.5199509  12.1816683
  60.3035069  51.7731333  12.4190354  59.3004036  52.7508879  12.9924130
  86.1861229  56.9616365  27.8908992  86.3312435  57.7601242  27.3833656
  86.6417503  57.1175241  28.7181449  75.0588465  82.9587269  49.5236921
  75.0885057  82.9516315  50.4804039  74.8399973  82.0581913  49.2841625
  11.7780042  70.8601141  61.5516520  11.6965389  70.9961605  60.6076813
  11.0591841  70.2673578  61.7711258  69.8384714  29.2705679  70.1197815
  70.4377174  28.5674977  70.3704405  70.1832008  29.5936871  69.2873240
  81.9846058  29.6526408  59.5314646  82.7848530  30.1692080  59.4366121
  82.1876621  29.0209532  60.2213717  49.2804241  74.9934101  60.7331705
  49.6153927  75.4961967  59.9907207  50.0600481  74.6069050  61.1319590
  17.3059773  65.7941866  67.4512625  16.7440438  65.0193214  67.4445248
  17.1577549  66.2049580  66.5994787  88.6180401  80.9800529  40.9924030
  89.5399475  81.1621571  41.1745167  88.3591557  81.6570091  40.3671455
  66.0913324  74.7273397  46.8544245  66.3869476  75.6185913  46.6686535
  66.6787958  74.1690826  46.3450480  90.3653526  74.1930771  43.3732271
  91.1222839  74.1133356  42.7927685  90.4982185  73.5141134  44.0347290
  57.7579451  32.5259066  49.3889332  58.1285810  31.8068695  48.8772249
  56.8328762  32.5425243  49.1435719  68.7836885  59.4308472  31.8143702
  68.6073065  58.6512613  31.2877154  69.7027063  59.3456078  32.0680737
  69.7819662  74.9394655  32.7213120  69.4663000  74.3172312  32.0660186
  69.3527985  75.7644606  32.4945378  73.3144331  41.7056751  12.5863481
  72.7430534  42.2129202  12.0097530  72.7880955  41.5528774  13.3711123
  44.1318560  65.5304050  47.7677965  43.3288479  65.2358484  48.1975031
  44.2139101  66.4505720  48.0183697  85.0830078  60.9640026  49.4954967
  85.2412796  61.6765833  50.1147032  84.1339111  60.9610605  49.3712234
  78.6344528  69.2482424  51.7576838  77.7312851  69.5392799  51.8834400
  79.0353155  69.9348116  51.2246132  18.0030298   1.9944045  19.6190536
  18.6371970   1.5549292  20.1855564  17.5935769   2.6512089  20.1822472
  31.4953470  74.0143251  46.7507505  32.2090340  73.4406614  46.4718342
  30.8457708  73.4218264  47.1292067  73.2622337  68.3438444  41.7729425
  72.6205969  67.6797390  42.0249367  72.7436876  69.0316629  41.3555145
  87.5768757  73.3230782  31.6893601  87.8490448  74.0201569  32.2862172
  86.7046070  73.5861206  31.3957930   6.5081894  64.4030952  50.2863073
   7.2252756  63.7749863  50.3729057   6.8234569  65.0395536  49.6446228
  90.8213615  82.2699356  41.8904161  91.1768532  82.9468727  41.3145542
  91.5634537  82.0030689  42.4329233  65.6239367  50.1532221  40.8400822
  65.3923225  50.4966402  41.7030144  66.2575388  50.7818699  40.4942846
  66.7064762  56.3647461  67.1701097  67.6156092  56.1673737  66.9448185
  66.7367458  57.2490978  67.5351191  90.5938721  62.7758598  70.0737381
  91.2238312  63.3219719  70.5439997  89.8704815  63.3678961  69.8677349
  38.7967563  18.8704681  38.2342243  38.2901883  18.4321249  38.9179468
  38.2167339  18.8761175  37.4727964  74.6815825  82.6206303  61.5297747
  74.3844891  82.6277637  60.6198740  74.0017796  83.0959702  62.0074272
  55.2646351  79.3193436  52.8898478  54.5993090  80.0021744  52.8042984
  54.8285818  78.5212994  52.5911665  57.9597807  57.2020864  38.0984020
  58.2854843  58.0052996  37.6921988  57.4266148  56.7892790  37.4190259
   6.2379909  46.9792891  63.6246300   5.4383171  47.4361515  63.3638048
   6.1794698  46.1277294  63.1914377  22.0347214  50.4718828  19.8044336
  21.6024065  49.6684885  19.5147908  22.6692510  50.1798487  20.4588962
   4.0339932  27.1661997  35.4239345   3.9348036  28.0586171  35.0922966
   4.8391417  27.1909404  35.9409976  69.5626497  47.1582222  17.2060287
  69.7510195  46.4324474  17.8010070  70.2904367  47.7669048  17.3327684
  89.6728992  50.0583363  23.9437246  89.2878056  49.6982765  23.1447911
  90.0826454  50.8770084  23.6642313  51.2241220  84.2997265  61.3115311
  51.9003105  83.9962482  61.9172525  50.9260130  85.1304436  61.6820288
  81.5176678  63.1331635  51.5138006  82.1462727  63.4058237  50.8454132
  80.6629372  63.2389593  51.0960960  10.9969127  32.0890808   6.7284459
  11.8394792  31.9603062   6.2928647  10.4950142  32.6344347   6.1227077
  61.6172647  38.0012703  38.5067582  61.2206602  37.2719145  38.9831805
  60.9190702  38.6528349  38.4418035  75.0077677  28.0124784   2.5318608
  75.4336834  27.1967912   2.2682664  74.0780401  27.7910137   2.5846657
  39.8646832  65.3749609  18.0176711  40.1763439  64.6275187  17.5073504
  39.0147066  65.0952196  18.3575499  69.2150974  53.4392262  37.4535036
  70.0180674  53.0308342  37.7770638  69.3733788  54.3793869  37.5388074
  52.4894333  60.4042339  50.4349566  51.8987465  60.4824877  51.1840868
  52.2809076  61.1598301  49.8855686  16.2713003  45.8156824   7.4221820
  16.7994487  46.5460777   7.7443856  15.3685415  46.1282444   7.4818850
  29.9611545  28.4794855   5.4125315  29.9370193  27.8147936   4.7241756
  30.1637554  29.2938542   4.9521095  61.0663271  45.1886654  42.1307898
  60.9120512  44.7847557  42.9847717  61.9682360  45.5061483  42.1754265
  23.8063312  18.6979949   3.8351598  24.2612123  18.8818932   4.6570456
  22.8848219  18.8714528   4.0274233   1.1351458  49.2076159  29.8026443
   1.6282114  49.4393396  30.5896783   1.3530783  48.2889318  29.6452999
  24.6458364  32.4504018  49.0560770  24.2287636  32.3108602  49.9062586
  25.5793834  32.5199175  49.2557955  78.5265827  64.9767637  59.8190880
  78.4665680  65.8785343  60.1344204  77.6537609  64.7842264  59.4765377
  85.4536629  65.1910877  48.3744574  85.6953430  65.9248543  47.8093004
  86.2714577  64.9400473  48.8039017  58.5849428  81.3179588  50.2530003
  58.9384127  81.9105530  49.5895815  59.2036152  80.5879307  50.2761173
  75.2731276   1.8484479  22.2054029  75.0348759   1.3631299  21.4155054
  76.0134125   2.3930347  21.9377613  67.7979708  58.1148243  34.2117715
  68.0290174  59.0074825  34.4687057  67.8362179  58.1233788  33.2553720
  20.4827905  73.0777121  44.8493147  21.0402250  72.6230145  45.4807854
  19.6208799  72.6757097  44.9576521  74.2317533  75.8019829  65.8047581
  73.7452650  76.4716244  65.3239870  75.1305580  75.8836079  65.4858160
  55.2944708  59.6823263  42.5530672  54.7140503  58.9375639  42.7101421
  55.3595114  60.1186323  43.4025574  21.0713077  19.8395574  41.9887638
  20.8449864  19.0089357  42.4071836  21.6288757  20.2849936  42.6266766
  46.1314106  77.7035570  34.8120379  45.2960110  77.4743032  35.2192068
  45.8928633  78.2711744  34.0791416  60.7095385  78.8457823   9.2638141
  61.3788128  78.1810474   9.4263750  60.7620668  79.0134525   8.3228785
  45.4843950  77.5943279  58.3608675  45.4384232  77.3506927  59.2853975
  44.5935869  77.8664351  58.1403065  73.2583284  67.7627945  63.0301762
  74.0337133  67.7528858  62.4690056  73.1737185  68.6755753  63.3056879
  82.8824329  52.4203777  56.8328905  82.2950077  53.1574917  56.9997025
  82.4553394  51.9275522  56.1322165  88.2184696  61.6236210  50.9726572
  88.8021946  62.3821878  50.9642696  88.8061714  60.8696938  51.0220098
  23.2123590  15.1858807   2.5387469  23.2806802  14.2328715   2.5965250
  22.2725582  15.3618205   2.5840887  65.4501677  68.3428669  43.7759495
  64.9216509  67.8051090  44.3656301  64.8378229  68.6267328  43.0972099
   7.0401049  36.1801791  58.0251265   7.5207365  35.6888676  57.3589182
   6.9591868  35.5717111  58.7596035  55.7000494  52.5153351  22.6617718
  56.2210083  53.2665110  22.9456234  56.2991524  51.9980288  22.1235347
  55.6605482  66.7441463  40.9738827  55.5439711  67.5186157  40.4235792
  54.7936249  66.3395119  41.0046816  63.0969667  63.7449551  50.5519629
  63.4220505  63.7147808  51.4517593  62.2103405  64.0972948  50.6293154
   1.6800028  84.5968246  61.7192841   1.2501048  84.6275139  60.8646011
   2.4932370  84.1173363  61.5612555  40.9631777  65.4842854  40.7995033
  40.0671959  65.8205557  40.7801819  41.1383581  65.2174282  39.8970985
   5.1640850  50.0486851  38.3801627   4.4010866  50.6266308  38.3736181
   5.1140285  49.5954514  39.2217731  54.4227314  64.7184467  34.3879724
  54.5711851  63.8086271  34.6456957  54.0426779  64.6601105  33.5113931
  20.0213766  58.4418011  44.3735933  19.5703161  57.8270197  43.7949514
  19.3183279  58.8747072  44.8578882  13.6222339   4.3042657  44.9852467
  14.3222594   4.7041178  44.4691896  12.9653525   4.9948752  45.0735474
  64.3204403  41.8958426  39.0981698  64.5593309  42.5651884  39.7393703
  64.4443274  42.3216963  38.2499170  46.1452484  57.2708559  46.3373423
  45.6320095  57.9101372  45.8432484  46.7859125  56.9400120  45.7077980
  90.4978943  55.7991695   6.2220281  90.3659916  55.4027843   5.3608012
  91.1907482  55.2747393   6.6234827  67.1373796  77.9176140  56.3790417
  66.8488836  77.1302176  56.8405724  66.5989113  78.6198950  56.7438507
  75.2737808  73.2261562  39.2253661  74.4019794  73.6089134  39.1269088
  75.2006817  72.6579237  39.9921775  25.5786252  16.3135147  24.4028187
  25.1272821  16.8558753  23.7560081  25.1931882  15.4437685  24.2969275
  19.8734045  44.4288540  33.6174870  19.5271909  45.2980661  33.4154153
  19.1129422  43.9325714  33.9201999  71.9322824  62.6604986  36.0537744
  72.3814058  63.3119154  35.5150962  72.6318932  62.2388172  36.5527368
  23.0966997  14.1320539  30.3723454  22.8169370  14.9775457  30.0214744
  22.4369240  13.5129297  30.0599122  62.2020864  35.8441043  57.4847078
  61.6801310  36.2863827  58.1541729  62.8409147  36.5004849  57.2066879
  69.1705847  49.1068983  53.7776232  69.2824697  49.9802971  53.4022665
  69.5249033  49.1798830  54.6638298  47.8840065  80.3638649  43.6109877
  48.8268995  80.3558731  43.4462833  47.5665617  79.5473480  43.2252979
  44.6176720  68.8757896  54.1301918  45.4469347  68.5714483  54.4988775
  44.8153687  69.7448492  53.7810802  41.5483332  41.6114330   0.3098977
  41.6620684  41.0125589  -0.4281020  40.5997086  41.6967154   0.4051477
  39.7217393  82.8247070  12.9225910  39.6979713  82.6286411  13.8591945
  38.9677548  83.3964920  12.7783704  61.9242144  53.2129335  24.2960167
  62.5179577  53.3986950  25.0234723  61.0497427  53.3558559  24.6581006
  71.5728855  60.0557137  30.7412767  71.5337801  59.7593498  31.6506004
  71.2042093  60.9388399  30.7611227  65.7389259  59.3819714  47.4824667
  65.9420729  58.4952688  47.1846104  66.0594797  59.9494505  46.7814350
  84.6390438  16.4076149  34.1569948  84.4823551  15.8913636  34.9476695
  84.8286057  17.2885752  34.4798064   7.3116344   1.5254414  36.9059157
   6.6205758   1.3958804  36.2563896   6.8433541   1.7004552  37.7221966
  10.7917261  68.7947989  53.5094309  10.3601348  69.6198130  53.7314844
  10.7269740  68.2685423  54.3063593   9.6028185  63.4781837  30.5778265
   9.9951661  64.0942335  31.1965203  10.1887798  63.4928465  29.8210812
   5.9719944  48.2853842  44.3505716   6.9010979  48.0618382  44.4055557
   5.6895447  48.3612108  45.2620029  81.0595512  48.6612177  29.4441271
  80.9489918  49.2848301  28.7264085  81.8960285  48.2328081  29.2624688
  23.6539149  17.2138762  67.8484297  24.1004896  17.9903078  68.1860065
  23.9316821  16.5060484  68.4298563  69.7907495  59.2785168  49.7562122
  70.0400972  59.9111557  50.4298782  68.9231539  59.5635223  49.4693708
  84.4043255  57.5826311  30.7404900  83.6316967  57.3955107  31.2736630
  84.1316986  58.2986784  30.1667404  61.2275934  62.0011520  67.8573608
  61.7988729  62.1336508  68.6138725  61.6697741  61.3295937  67.3380184
  48.9533854  10.8396173  31.8752193  48.7477207   9.9173540  31.7223620
  49.3019962  10.8627594  32.7663803  75.8293914  86.7935681  32.4166250
  75.2979826  86.0249145  32.2092414  76.6130733  86.4371526  32.8350067
   8.0338627  49.6454287  30.8257031   8.4638041  50.4691219  31.0557318
   8.5725468  49.2822266  30.1227522  30.8104968  81.3132286  51.9165134
  30.6595159  82.2434044  51.7485714  30.8030510  80.9089088  51.0489273
   5.0745767  62.4230909  65.9164095   4.9216536  61.5322733  66.2315130
   5.7123238  62.3210764  65.2099371  64.5972347  23.2629323  37.7262211
  63.7772751  22.8390741  37.9796839  65.1096964  23.2955265  38.5340285
  24.9534798  79.7736406   7.1839142  24.6820641  78.9919329   6.7027736
  24.4890952  79.7142839   8.0188119  23.0405927  71.8912935  55.7670498
  23.1797266  72.8238869  55.9317827  22.2063684  71.8525410  55.2992868
  83.3125305  63.8640451  61.8059921  83.0957985  63.0947733  61.2792253
  84.0589523  64.2598534  61.3560867  81.2035179  50.0641870  46.0982800
  80.2562046  50.2012873  46.0934448  81.3687038  49.5065212  45.3380489
  45.2505970  20.4827166  65.7999468  45.9316397  21.0044742  66.2244320
  45.6831980  20.0993896  65.0369596   9.7912878  68.3652544  22.6224899
   9.0967155  68.5041809  21.9786716   9.5172435  67.5859785  23.1060815
  45.3533077  57.7426624   7.1612370  44.4908714  57.7382040   7.5764620
  45.5254126  56.8235493   6.9566965  65.4114294  80.0903034  67.5454521
  64.7480774  79.7878408  66.9252014  65.9070635  80.7516289  67.0625114
   4.3274501  30.8721089  54.9732971   5.2845258  30.8635545  54.9861479
   4.0744832  30.7432103  55.8874226  88.8135910  76.8312979  47.0160913
  88.2210732  76.9559526  47.7574492  89.1228580  77.7124262  46.8058634
  43.7043428  65.2295065  74.4907475  43.1502295  64.5015001  74.2093229
  43.4137821  65.9709072  73.9595842  46.3325691  22.8030181   4.0742180
  47.0269156  22.9823804   4.7082105  45.5215454  22.9013920   4.5730057
  19.3275988  34.8070574   7.2935605  19.8633957  34.8203635   6.5004808
  19.8361790  34.2891526   7.9175407  53.6010695  15.3112459   1.1960188
  52.7286291  15.2438056   0.8080360  53.6254787  16.1878610   1.5796612
  72.9646254  24.8649168  34.6597338  72.8344679  25.2986717  35.5030298
  72.0792532  24.7159839  34.3278193  17.2088790  49.3118668  62.6501799
  16.7371917  49.4566393  63.4704113  17.9579270  49.9060106  62.6965523
  66.9996166  51.2073088   3.9717248  66.4834547  50.7965279   4.6653134
  67.1696615  52.0930529   4.2923138  39.5116353  67.8666830  52.4712086
  40.2626276  68.2681704  52.9082966  38.8096094  67.9014349  53.1209660
  91.4432821  55.8950281  39.6312809  92.2991053  56.2081385  39.9241328
  90.9747818  55.6872463  40.4397154  83.9675331  56.1581039  49.2749739
  83.8280964  55.8917189  48.3662224  83.4288025  55.5547285  49.7867775
  67.8751326  24.9218345  41.7263317  68.7808561  24.6223235  41.8050289
  67.9238510  25.6824660  41.1472797  73.8203526  28.7377310  66.2689114
  74.5352268  29.3115997  65.9934807  73.0287552  29.1714096  65.9502840
   5.3618693  42.4147606  62.2102070   5.0932592  43.1511164  62.7596283
   5.2049530  42.7143240  61.3147354  49.3593740  38.1272411   2.9018840
  49.2373848  37.2349143   3.2260853  50.1771545  38.4188080   3.3049378
  62.7356863  49.7360420  27.0343852  63.0279398  48.9262629  26.6159606
  61.9421721  49.9792004  26.5574741   6.9757026   6.0508603  60.5812883
   7.3093826   6.1997521  61.4660025   7.7336270   6.1885720  60.0131178
  64.2577410  82.0450974  17.2237599  64.8536825  82.2960472  17.9295290
  63.7168741  81.3518810  17.6021028  87.6642609  50.4920340  37.3368502
  88.0459118  50.1940393  36.5111542  87.6656246  49.7148561  37.8956199
   6.3724619  36.4581656  23.0497742   6.6594118  36.4401960  23.9627743
   7.0350832  36.9830799  22.6007414  88.6687660  48.5244989  41.2191343
  89.1149616  47.6911402  41.0686302  89.0652657  48.8672447  42.0201015
  66.1681461  43.9007616  47.7103949  65.3005552  44.1024685  48.0608749
  66.2132263  42.9446554  47.7181101  63.3711624  81.4902973  69.1044855
  63.4430838  82.3049164  69.6019363  64.2473793  81.1070538  69.1445255
  17.5567782  45.5762672  27.8230953  16.6538382  45.3475809  28.0436254
  17.5122428  46.4932060  27.5520229  11.0509098   3.9100710  43.1020927
  11.1700702   4.3284288  42.2494411  11.8227363   3.3535016  43.2057524
  70.7541895  69.2883396  66.0896111  71.5869045  69.7523499  66.0029507
  70.9600830  68.5257244  66.6302204  37.6928377   2.1160562  35.3449464
  37.0043492   2.6936471  35.0153947  37.2378302   1.5109305  35.9306288
  86.3772392  53.4052610  42.8165627  86.8462467  53.8559294  42.1143103
  87.0387554  53.2631588  43.4936428  59.6848822  35.2769470  50.0148344
  60.0430727  34.4022512  49.8637056  58.9452076  35.3405452  49.4106245
  58.1283617  46.6205263  36.1955094  58.5519552  47.4617529  36.0248113
  58.5110569  46.3227558  37.0208025  53.6793232  41.4519072  45.2485657
  53.0806732  41.7292213  45.9420729  53.9603233  42.2677851  44.8343086
  69.2205286  48.5706043  49.5614576  69.0311289  48.3591461  48.6473227
  68.3599949  48.6948442  49.9618053  35.2622223   8.3462650   8.6718273
  35.6416035   9.0013450   9.2576361  34.4204712   8.1266767   9.0711582
  56.5609264  28.6697984   4.4644794  57.2770119  28.0524755   4.6140414
  56.9813299  29.5297289   4.4681552  77.4967098  65.6360292  44.6557140
  78.3795071  65.8216190  44.9758053  76.9923496  66.4190483  44.8764896
  37.1298146  54.9196625  50.6338882  37.2750282  55.4454374  49.8473072
  36.6870308  54.1322947  50.3173065  87.1431637  50.1650572  12.9855239
  86.4415836  49.5436287  13.1800735  87.4450016  49.9194241  12.1110034
  18.0959451  68.6316681  35.6365919  18.3638835  68.1319332  34.8654175
  17.2420549  68.2689428  35.8722520  34.0831661  22.7022076  44.0778685
  34.9039292  23.0582571  44.4181776  34.3425488  21.9098878  43.6075687
  42.3679876  72.4724531  28.2854152  42.3710251  73.4288120  28.3254027
  43.2880449  72.2258568  28.3798599  55.3704309  74.2395449  54.7084618
  55.0400734  73.6945152  55.4226303  55.1837778  73.7354898  53.9164257
  83.6690140  32.1826863  31.1761498  83.9746094  31.7737365  31.9858408
  84.4707870  32.4221087  30.7113147  72.4743128  47.4757481   0.4986185
  73.0241823  48.1935072   0.1844534  72.5843048  47.4882317   1.4493957
  81.5648365  38.5168171  17.2484159  82.3765373  38.0118370  17.1996808
  81.7726326  39.2487764  17.8291810  24.9905372   2.8208017  48.0978155
  24.0820932   2.5525287  48.2356215  24.9416566   3.7653750  47.9507685
  77.7815580  52.8704357  51.5666866  78.2278156  52.1640778  52.0337391
  76.8788099  52.5651836  51.4767170  73.3783245  26.7516279  41.3113499
  74.0166616  26.8020797  42.0228386  73.7912035  26.1859846  40.6588078
  76.5504074  62.6939726  37.7489161  76.4532423  63.3278990  37.0383334
  75.8042240  62.1032429  37.6465869  78.4184265  60.1620150  69.4296789
  78.2049131  61.0898638  69.3310165  77.5987291  59.7563314  69.7120810
  70.8239031  35.1185083  33.0231047  70.4487467  35.8883834  32.5955725
  70.6885862  34.4071436  32.3971033  61.9399118  65.3931189  46.1391068
  62.8607702  65.4462194  45.8833170  61.8662071  64.5553017  46.5961170
  32.4092746   9.4980246  33.1678605  32.7428150   9.5570683  32.2725964
  32.0780492  10.3756404  33.3584213  51.7192173  47.8615952  25.5756664
  52.1828222  47.8115654  24.7397232  51.8164968  46.9886494  25.9561157
  70.9344482  64.7658777  27.1018767  70.4537868  65.5857038  27.2162342
  70.3873634  64.1060400  27.5279546  72.3655510  66.0924149  57.1409130
  73.1234074  65.6431293  57.5151110  72.1070385  65.5475521  56.3975954
  53.2271814  58.1361961   4.0614054  53.7626362  58.0077696   4.8443657
  53.8413429  58.0425119   3.3332127   3.5722110  48.7088442  24.1674519
   3.1984434  49.5253038  23.8359046   4.3855378  48.9746141  24.5965195
  71.9404268  78.0054426  29.6216249  72.0942926  77.9880714  30.5662179
  72.6103878  78.5980177  29.2806864  87.2843456   9.8162836  32.0374584
  88.1202888  10.2065158  31.7822194  86.7478752  10.5590951  32.3143411
  19.1657901  80.3018856  16.6317487  18.5334098  79.6442080  16.9212103
  19.7068095  80.4698563  17.4033153   7.5993693  50.4532385  58.5062218
   8.3022201  49.8313999  58.6947584   7.1176755  50.5272579  59.3300676
   3.7528419  55.0028753   5.2173519   3.7906572  55.3813076   4.3389487
   4.6484500  54.7139835   5.3924447  31.1690402  54.8600054  55.0585508
  30.5267882  55.5623484  54.9562883  31.9220138  55.1469040  54.5418787
  87.5444794  75.2298737  38.7949538  87.7739716  74.7944021  39.6158862
  88.3444977  75.6860876  38.5340428   5.5922806  62.3225212  43.6357117
   4.9046183  62.3584747  42.9708385   5.7812256  63.2395458  43.8347054
  86.6592598  40.0057316   2.1944018  86.6810513  40.2115202   3.1289652
  87.1504784  39.1877723   2.1177481  88.3108616  66.4284706  34.8840642
  87.9649353  65.5902719  34.5774889  87.6831913  66.7190027  35.5457711
   1.7790155  14.4405282  48.1781244   0.9387849  13.9863110  48.2408190
   2.1412474  14.1592264  47.3379517  48.5631561  25.1623893   1.4562990
  49.2480850  24.7569323   1.9880065  48.9197683  26.0182238   1.2183703
  87.9138851  83.9828873   6.6853946  88.2306671  83.1004620   6.8782866
  88.3406734  84.2156696   5.8608389  78.2071733  67.7008486  60.8461094
  77.9234266  67.5135136  61.7408895  79.0665436  68.1098986  60.9480476
  26.3727236  77.9485369  67.4471140  26.8394113  77.3862743  68.0654144
  25.4627562  77.9266739  67.7432775  89.5880127  37.1627975  73.9715242
  89.1724968  36.4990568  73.4210396  88.8896370  37.4629259  74.5532608
  21.8366671  11.9323325  13.8412619  21.0644913  12.4662030  14.0282357
  21.8358302  11.8351936  12.8890049  17.9589927  15.0172102  45.1549864
  17.6105511  14.1969752  45.5043173  17.2734809  15.6621432  45.3292465
  77.7136326  53.3930111  56.8522692  78.2153559  53.1007862  56.0912800
  77.3676825  52.5867701  57.2350550  77.3240232  84.2078876  73.6115408
  77.7293301  83.6847115  74.3030930  77.5251436  85.1135349  73.8472986
  67.7934074  19.5922542  23.0033994  67.0002174  20.0614858  23.2620478
  68.4788132  20.2604151  23.0067825  34.5108771   1.9537982  40.9705305
  34.7899437   2.8094032  41.2965584  34.3318820   2.0982786  40.0413799
  48.4333277  73.7940693  73.7264729  48.7255526  72.9374313  74.0379381
  48.2544899  73.6621714  72.7954245  20.6713438  75.4982615  26.7059970
  21.1810803  76.3047934  26.6291213  20.8916831  74.9997473  25.9191251
  83.6351681  45.9393120  55.1290274  84.5019245  46.3058233  55.3040361
  83.3744621  45.5351543  55.9566259  68.5475731  11.7519951  58.2327700
  68.6128473  11.3818216  57.3524618  69.2698336  12.3780918  58.2834768
  55.6085157  32.3726416  15.9906018  55.4183149  32.5667405  15.0727880
  56.4149427  32.8541636  16.1751068  26.3527489  59.1532993  28.5233545
  26.4634752  58.6434555  27.7208376  26.8949318  58.7021542  29.1704535
  61.5600586  60.0881815  39.3627882  61.6493368  59.1424656  39.2449617
  62.4477720  60.3905010  39.5546222   9.1292900  11.8001688  45.8733559
   9.2568588  12.4089527  46.6009140   9.1351938  10.9344244  46.2816238
  42.4903345   3.2354015  56.4237881  42.3779345   2.6618499  55.6657410
  42.2948742   4.1117740  56.0921240  10.1343977  81.2687874  20.4690814
   9.6919644  82.1167469  20.5072403  10.2120304  81.0810184  19.5336950
   9.7685981  55.8812809  37.7466655   9.5527989  55.0079012  38.0735779
   9.3081152  55.9443426  36.9098783  84.0781689  69.7922325  32.8345919
  83.9683247  70.1508808  33.7152362  83.9895344  68.8459873  32.9485679
  85.6383705   2.7839160  67.9946375  86.3093948   2.3751341  67.4479580
  85.7421589   3.7227246  67.8393984   6.0653144  18.1660664  64.6584845
   6.4106655  17.5541580  65.3085089   6.8335825  18.4452641  64.1604424
  84.3800163  79.0831184  50.9739685  83.7112713  79.7638750  50.8992720
  85.2090836  79.5486879  50.8638191  39.0913153  12.3267841  24.1017222
  38.8912892  12.8919029  24.8479533  39.5736790  11.5918171  24.4803810
  75.0695086  82.4143791  35.0253677  74.3146086  82.5801849  35.5900502
  75.4320621  83.2825470  34.8491216  74.9570942  56.2883472  21.9806552
  75.4378128  55.7378912  22.5988293  74.0709925  55.9263563  21.9765186
   6.7736918  69.8917580  56.9624615   6.9190699  69.5942926  56.0643435
   7.5643319  69.6279049  57.4330997  13.0013168  34.6162176  17.8590524
  13.6139846  34.5577908  18.5921669  12.1921682  34.9471521  18.2489157
  46.5629721  18.4575880  15.1373625  46.7312860  18.8873172  14.2987704
  46.1562729  17.6237166  14.9018109  80.1432133  29.2294240  46.4505816
  80.3625774  28.8310766  47.2928619  80.4069805  28.5774016  45.8013296
   5.0253671  75.3103209  56.4371395   4.8861262  75.4512978  57.3736048
   5.3192866  74.4016409  56.3728189   8.6848080  -0.0002792  62.7400780
   8.0346787   0.2886959  63.3804321   9.3035477   0.7277228  62.6817131
  69.9195051  77.1267700  10.7081449  69.1400337  77.1149063  10.1527083
  70.6470060  77.2451591  10.0974369   2.1820685  79.7927332  52.1900272
   1.4085987  79.6132898  52.7246094   1.9308391  79.5222473  51.3068771
  46.4837074  14.8029578   1.4429773  45.6295538  14.5577157   1.0872935
  47.0367718  14.9296176   0.6720623   9.3727309   4.4078296  29.1203642
   9.8992717   3.6340040  29.3208146   9.8884201   4.8869753  28.4717393
  88.2921791  54.4612026  13.3640587  88.8818932  54.5771599  12.6190615
  88.8669872  54.2133713  14.0882182  87.1685600  36.6208458  15.6803215
  87.3253155  36.1320925  16.4882696  87.2988987  35.9785175  14.9827123
  53.5027647  85.3391266  32.5258255  53.3777475  84.6084499  33.1314015
  54.2519569  85.0800610  31.9893289   2.4732792  85.8787537  52.0092535
   1.6484991  86.3577366  51.9283819   2.3036373  85.2220440  52.6846695
  17.9863882  60.8932877  49.7075176  17.6770508  61.6697168  50.1741028
  17.1876156  60.4215908  49.4715214  83.5151672   3.1394863  47.1548080
  82.6671886   3.0086678  46.7304754  84.0327072   3.6238244  46.5115356
  80.7434750  76.9293261  11.1987877  80.9104156  77.7024317  10.6596470
  80.5612469  77.2800827  12.0705640  37.3106003  13.4828591  29.1265798
  36.6459298  12.7957535  29.0782833  37.3687482  13.8230264  28.2337546
  58.5786724  10.8089697  62.0139456  58.9169216  10.2905416  62.7440500
  58.1952906  11.5827072  62.4269581  72.6305485  81.1937428  19.9637139
  73.4880257  81.4975452  19.6659422  72.3341131  80.5998325  19.2740571
   8.2934910  74.4051504  72.5980186   7.7026820  73.6851740  72.3770857
   8.6022854  74.1994238  73.4803772  73.7055588  56.9505978  51.4966393
  74.3093634  56.2872362  51.1625671  73.6008883  56.7343140  52.4231911
  75.2620983  79.1962910  17.8910005  74.4002151  78.9505625  17.5548244
  75.1651573  80.1120663  18.1521225  89.3802738  37.9378963  45.8043337
  90.0261307  37.2448635  45.9414530  89.0593910  38.1433940  46.6824198
  17.1134710  66.5175390  37.4588609  17.3398507  65.5927134  37.5572443
  16.9981205  66.8325663  38.3553457  73.0339766  72.8702259  31.4149785
  73.4087563  73.0704117  30.5572510  72.4007463  72.1733427  31.2429333
  75.5771542  56.2520456  14.3629932  76.2008619  55.7733917  13.8169944
  75.2361965  56.9394636  13.7907732  51.9382381  -0.0204885  61.4751196
  51.9173050   0.6294563  60.7727242  51.1073351   0.0974967  61.9354582
  24.0356493  16.8931150  71.4629126  24.7339678  17.2086489  72.0365191
  23.3309817  17.5320911  71.5696144  14.4278586   1.5398522  58.7868261
  14.7776568   0.8797593  59.3852854  15.1648200   1.7617300  58.2177162
  22.7722836  21.2704086  22.1953321  22.6009941  21.1250448  23.1257939
  22.2955513  20.5689454  21.7515874  22.5714874   2.4608527  68.5009193
  22.8115344   2.8939730  67.6817608  22.4073362   3.1788260  69.1123104
  91.1678505  86.2369251  37.2527838  91.1785412  87.0012856  36.6767097
  91.8114471  85.6401443  36.8708563   4.5167509   7.1939874  67.7155542
   3.9116296   7.5540620  68.3639431   3.9870399   7.0906079  66.9250154
  80.2376175  66.7533445  13.8270962  79.9853277  67.1764755  13.0064011
  79.4440746  66.7756748  14.3619049  73.1105137  75.2026749  55.2958155
  73.0046606  75.5398560  56.1853886  73.9045000  74.6694756  55.3346729
  83.7699795  85.1485729  40.1470423  83.3034039  85.7511330  40.7262278
  84.6956539  85.3067684  40.3323317  59.8366547  76.2180519  32.1769381
  60.5669117  76.6982794  32.5672436  60.2421951  75.4483080  31.7778659
  81.7158604  83.6332226  27.8507233  81.9504261  82.8472042  27.3573875
  82.5475693  83.9545250  28.1989694  50.9912825  35.2181435   0.3508011
  50.4622078  34.5356512  -0.0621361  50.7651854  36.0172796  -0.1251131
  61.1147928  73.8396883  73.7910748  60.4643869  73.1390285  73.8387585
  61.9395924  73.3889341  73.6100674  85.4723835  53.6445379  54.6172953
  85.5560303  53.4375715  55.5481005  85.2793694  52.8042459  54.2014933
  15.0352693  25.7722831  63.3843708  15.1544023  25.7677865  62.4346256
  14.8327792  24.8630524  63.6046696  36.0934711  72.0205069  48.7824869
  35.2793002  71.5183592  48.7477970  35.9589338  72.7379751  48.1633139
  72.3802376  75.3568220  28.5950351  72.1082258  76.1243343  29.0981913
  73.2817459  75.5475044  28.3358979  89.0758801  74.1390753  40.6710100
  89.4710064  73.6891460  39.9242330  89.7331619  74.0756702  41.3639736
  91.3627625  62.1921062  21.4084792  91.6443729  62.5647831  22.2439647
  90.6271839  62.7411985  21.1370778  18.4760976  84.0294647  31.0941672
  18.6373377  84.8868275  30.7002568  18.6479962  83.4056568  30.3887987
  47.2845650   9.1316050  10.2374721  46.6830635   9.5038456  10.8823454
  47.8458071   9.8639584   9.9827194  89.3356323  61.0160351   1.5744823
  89.8646355  60.2260065   1.6851255  89.1386223  61.2993526   2.4673155
  90.7108879  23.4867740  63.8625193  90.1953030  23.6561275  64.6510172
  90.6842422  24.3114042  63.3772278   9.5865166  84.7397900  33.7947965
   9.1470706  84.2079258  34.4583011   9.9439943  85.4825306  34.2814040
  68.5936642  58.2278585  56.6572237  67.9139090  58.3923912  57.3107481
  68.8599300  57.3214817  56.8115568  40.2323008  11.4452708  36.9316173
  40.3119564  11.6263318  37.8681564  39.7180796  12.1764100  36.5892076
   5.6489992  72.8001785  52.0399714   5.5377263  71.8524694  51.9645119
   5.1249307  73.1605768  51.3246393   3.6836109  33.1550598  51.0864401
   3.8193303  32.2364664  50.8540630   3.2843044  33.1256986  51.9558811
  66.8611097  36.0195994  49.4222736  66.4051008  35.1801872  49.4828796
  66.1622810  36.6644287  49.3124342  68.8532400  42.4372911   4.4944128
  69.5846987  43.0287647   4.3173242  69.1835356  41.8429232   5.1681107
  14.9943662   3.6775154  68.9572191  14.7227609   3.9524460  69.8329306
  14.2842078   3.1126699  68.6524916   3.9618507  43.2743502  37.6579452
   3.3573860  43.9527988  37.3570085   4.7555113  43.7512207  37.9006982
  51.6520596   4.6480483  52.6913071  50.8042479   4.3588281  52.3539734
  51.4349556   5.3005201  53.3571720  31.7066622   5.8675927  13.9976239
  31.7488170   6.7658097  13.6695063  32.5332236   5.7440251  14.4642687
  72.5276661  69.5924330  32.1932435  71.8343115  70.0430346  31.7111087
  72.0703316  68.9196491  32.6976633  91.2281799  81.0086727  10.2925909
  91.8551826  80.2883053  10.2279413  91.6168785  81.7119312   9.7724307
  77.1981428   1.5192968  36.9424796  76.8677042   1.8745024  37.7676296
  77.3748301   0.5978472  37.1320558  83.6969185  71.0020351  69.4587088
  84.2405128  70.2687168  69.7467661  83.8619900  71.6902065  70.1032305
  26.9791484  26.2500119  56.8117905  27.5051975  26.6279817  57.5165224
  27.5839782  25.6744146  56.3437080  86.8648720  68.2345533  68.4826517
  87.3558998  68.9185381  68.0273676  86.3098049  67.8472853  67.8057766
  57.0425749  58.5234451  53.5757303  57.5044250  59.2044020  53.0866289
  56.6359997  58.9879608  54.3072701  68.0863667  53.0910873  44.1796017
  67.2598982  52.8819323  43.7443638  68.2367325  52.3560619  44.7740459
   8.5764736  71.6656923  38.3222198   8.4051478  71.2720299  39.1777372
   8.5192877  70.9349871  37.7065611  70.0421715  72.3351717  62.6275158
  69.5213175  72.5548887  61.8550730  69.4519329  72.4872494  63.3655691
  70.2825499  81.5735245  52.8687859  69.5479107  82.0758820  52.5164223
  69.8729515  80.8916187  53.4012032  58.4753180  59.6588373  36.2250423
  58.1696844  59.1539526  35.4714441  57.9052067  60.4274607  36.2455344
  50.9069777  61.3285446  71.1749363  51.6499138  61.4165831  71.7720366
  50.4731464  60.5208063  71.4498568  20.2124953  84.1110039  64.4370699
  20.0189161  83.3015251  63.9643145  19.3707216  84.5633411  64.4921732
  90.5069160  62.6290178   3.5525882  89.7536659  62.1479130   3.8951960
  91.2608528  62.0818996   3.7727425  69.6527004  38.1407380   4.1274729
  69.5064878  37.7676463   4.9967578  70.5236816  38.5343742   4.1791815
  85.4876041  46.2261915  38.7358713  84.9116516  45.8994055  39.4270468
  86.0039139  45.4639053  38.4739971  82.1023369  39.2008853  40.8553696
  82.3015308  40.1096725  40.6302881  82.4611568  39.0879655  41.7355537
  16.8964136  58.9957666  52.7343178  16.9184375  58.9723396  53.6909771
  17.6727653  58.5049915  52.4647760  82.8661728  44.2951012  57.3621082
  83.5282803  43.6046934  57.3275328  83.0087757  44.7215986  58.2070971
  87.8554440  57.7684593  29.8164415  88.4254932  58.5228157  29.9655104
  87.6328468  57.4592352  30.6945443  30.7943010  70.9845972  49.3346739
  30.3035855  71.4062309  48.6292267  31.1367655  70.1818132  48.9416313
  68.7303829  46.2573242   3.9366233  69.2277431  46.2496853   3.1188172
  67.9342842  46.7462301   3.7282363  37.3636651   6.9484329   7.8049505
  36.7317367   7.6095092   8.0875736  37.1853399   6.8300289   6.8719912
  67.5541306  79.0562725  25.5967045  66.7741108  79.4996643  25.9301758
  67.2752380  78.6745501  24.7643971  63.9937115  35.3255796  12.3530197
  64.8134279  35.6224990  11.9578815  63.5428238  36.1318564  12.6037145
  48.2623577  39.5463610   0.6208584  48.2586622  38.9872003   1.3977475
  48.9598894  40.1807928   0.7857017  22.7098966   6.9207305  41.9114542
  22.7382541   6.0744387  41.4651155  22.4957991   6.7056662  42.8192759
  19.1603231   7.9603773  59.8311186  18.7247849   7.1138686  59.9309206
  19.7687948   8.0051023  60.5686760  85.3787136  74.2017031  21.5257311
  85.7103252  73.5382366  22.1307731  84.4426346  74.2551088  21.7184234
  26.6618848  67.5708580  60.4260159  26.7624712  67.7054930  59.4836855
  27.0306778  66.7018938  60.5845213  16.4125848   1.8733379  11.8258452
  16.4160573   1.8230727  12.7817178  17.2915137   1.5952614  11.5681839
  39.2661023  36.3874674   3.0852002  38.9296722  36.5359330   3.9689448
  39.5671439  35.4788733   3.0930227  78.1828260  69.5776844  57.0291281
  77.4174786  69.0147257  57.1455097  78.0967951  70.2430344  57.7118731
  16.5801001  78.7396288  64.4440413  16.3109136  77.8961658  64.8078299
  16.1812699  78.7635612  63.5742140  89.7225857  24.2731190  46.0720921
  90.4056454  23.9762187  45.4708385  90.0855350  24.1153169  46.9436455
  75.9990072  73.8088894  34.0853715  76.6703272  73.8730860  33.4060764
  76.4456892  73.3978319  34.8254633  78.8355494  44.5430470  31.0214114
  78.8731813  43.5891390  30.9515953  79.3234110  44.7441816  31.8200183
  15.5584502  74.8470020  39.9617624  15.3588164  74.8154831  39.0261436
  16.4809585  74.5979881  40.0183535  33.8124132   1.9796821  25.0516820
  33.0394340   2.2783403  25.5307841  33.8829279   2.5822565  24.3113017
  79.4219637  83.9920425  29.5139074  79.2478991  84.9073124  29.2943478
  80.1351070  83.7367916  28.9286637  87.3744869  43.2327747  21.3978171
  87.3474884  43.7147331  22.2243881  87.5000095  43.9078569  20.7309270
  85.8279037  78.2716656  31.6630936  85.5413342  77.6359940  32.3188615
  86.2870312  77.7479553  31.0064626   3.0720866  42.3128366  25.2103424
   3.1391260  41.3977909  24.9375343   2.2699471  42.3492765  25.7313752
   3.9769208  39.8568249   6.8425667   4.7944114  39.5627904   7.2444201
   3.3962187  39.0979218   6.8980992  18.2103682  72.6607132  48.7381458
  17.9472554  73.0012846  49.5931387  17.5316060  72.9696178  48.1380701
  63.0875397  66.5520191  50.4391623  62.8221989  66.3697720  49.5377111
  62.2818470  66.8309069  50.8742571  91.3961506  20.1475811  57.6439714
  91.8317413  20.8814192  58.0775309  90.4678345  20.2681684  57.8437614
  88.4164906  16.8756831  42.9502344  88.4252834  17.5039887  43.6723042
  88.2987881  16.0254848  43.3739567  71.6090202  56.9660473  35.7309008
  71.5116787  56.2392950  35.1156044  72.3920918  56.7484951  36.2365746
  22.2051215  71.0010147  40.1100779  23.0601621  71.0889339  39.6888781
  21.5767264  71.2391949  39.4284463  83.1211567   2.5892669  63.6121988
  83.1315804   3.4227479  64.0827656  83.7962723   2.6850292  62.9404259
  35.3555083  77.2360945  42.3340940  36.2479401  76.9544840  42.5353241
  35.3238320  78.1505823  42.6150560  28.6596966  17.3941445  63.7600565
  29.1808820  17.7942705  64.4561148  29.0052104  17.7753174  62.9528666
  76.3632822  52.3992920  32.8005815  77.2063589  52.6206350  33.1961370
  75.8069038  53.1564903  32.9831338   8.7765056  34.6543813  50.9290028
   8.0288702  35.0101614  50.4486990   9.4077086  34.4185829  50.2491426
  64.5588207  55.5915356  35.4406857  64.6658564  54.8928022  34.7952795
  64.0306711  56.2523937  34.9928522  23.3772993  35.5581594  34.5781446
  23.4956741  36.2575102  35.2208948  22.9126072  34.8705912  35.0551581
  54.6963835  10.2807999   3.4205225  54.3393898  11.0787940   3.0306610
  55.5152273  10.5599546   3.8301614   2.8658655   4.2875263  67.8038549
   2.5482962   3.4688240  68.1847811   2.0738660   4.8015100  67.6464081
   4.3301082  67.9971600  46.0009336   4.0919808  68.0158520  46.9278526
   3.8020825  67.2890139  45.6322289   3.0560520  82.0585823  36.4073825
   3.2550928  81.1669827  36.6931653   3.8618544  82.3614407  35.9888291
  41.1635923   7.1686578  26.6316128  41.9951153   6.8218148  26.3083458
  41.4063311   7.7145457  27.3794889   1.4378910  68.9150810   9.3141842
   1.1669233  68.0742168   9.6826327   0.8061514  69.0851402   8.6154592
  77.0590067  12.9025102  58.0630827  77.1276379  13.8273370  57.8259802
  76.3836432  12.5553334  57.4803400  80.3768921  85.6138229  68.2253599
  80.7984257  86.4660263  68.1145191  79.5545769  85.6885719  67.7411604
   3.1271803  30.5635023  37.1655822   2.2532818  30.2279186  37.3653746
   2.9812309  31.4741063  36.9092035   3.8699284  11.1593461  31.9240069
   2.9637259  11.1548078  31.6157722   3.9665723  12.0000803  32.3712850
  53.1329775  21.8724966  12.5870049  52.6490641  21.1343718  12.2165596
  53.2406139  21.6486001  13.5114050   4.4960636  52.8490448  27.6073766
   3.6266583  52.8650522  27.2072387   4.8461419  53.7267685  27.4548030
  26.7230201  16.8792760  36.8354201  26.4088035  16.6985595  37.7213335
  27.6015854  17.2377348  36.9613671  76.6365767  44.4970798  19.2228639
  76.4927053  44.7750807  18.3182931  75.7949305  44.6426630  19.6549165
  74.5571470  17.5177991  50.3137445  73.9440441  17.2436988  50.9958076
  74.5943356  18.4708977  50.3940678  69.2877626  74.9951458  50.3848457
  69.5067644  75.9236240  50.4635382  69.8622847  74.6715212  49.6909952
  78.3349800  66.9848919   6.7261505  79.0754223  66.9056416   6.1247414
  77.9327488  67.8239441   6.5015733  17.1652091  30.1394558  22.1120358
  17.3169112  29.7881484  21.2346530  17.5934303  29.5148563  22.6974702
  34.3610501  81.4432430  17.5219488  34.6509957  82.2596931  17.1150398
  34.5065165  80.7763386  16.8508995  10.9292901  14.2504466  56.4731789
  11.3674998  13.8344646  55.7307768  11.6154730  14.7641897  56.8991566
  42.0460844   4.9133992   8.9975935  41.9699383   5.2829331   9.8772973
  41.1453104   4.8717949   8.6764902  63.0381918  11.2826240  16.1177909
  62.5605059  11.7403138  16.8095767  63.0435896  11.8968952  15.3837097
  86.7313957  58.6170006  72.8032541  86.7560291  58.9352512  73.7056637
  87.3153687  57.8585768  72.8007364  45.6624079  75.6090736   5.5779248
  45.3389311  76.4319611   5.2112496  45.1049662  74.9367666   5.1861477
  82.7425957  79.9802351  41.2790871  82.3184299  80.6498528  40.7424927
  83.6675453  80.0305080  41.0379171  22.4774003  64.8256493  51.1538839
  22.9775715  65.5475950  51.5344858  23.0465102  64.0622473  51.2516785
  21.5318322  10.6634831  37.3285937  21.6568089  10.0533772  36.6016936
  21.2806749  11.4867544  36.9098163   5.7810897  84.0543079  38.1665874
   5.3556943  83.2232952  38.3780003   6.3817513  84.2082214  38.8957977
  90.4833221  56.4699888  25.4378033  90.7685566  57.1658468  26.0299659
  90.8906174  55.6769800  25.7863283  81.2013912  73.3250284  51.1677504
  81.9153404  73.4726858  50.5474997  81.0488319  74.1820669  51.5657949
  78.8088751  79.2764521  39.0762353  78.6687469  80.0704479  39.5921469
  78.5095930  78.5661221  39.6437693  78.6056137  68.5471058  28.4456468
  77.6658964  68.4410095  28.2976389  78.6737823  69.3175983  29.0094972
   1.7801867   5.7247388   3.3955973   2.1376771   5.6284672   2.5128943
   2.5354332   5.9570062   3.9358619  55.1787901   2.2215949  49.3154001
  54.2353487   2.0621727  49.2883730  55.5014181   1.6344932  49.9991083
  38.2271814   6.4326775  10.3387201  37.8606868   7.2461253  10.6854415
  38.1717706   6.5310216   9.3881994  20.9162998   6.3197309  22.0548129
  21.8663549   6.3682026  21.9486332  20.7906723   5.8219486  22.8626895
  42.6235437   4.3388310  64.0181684  43.2984972   4.9998069  64.1723824
  42.0750856   4.7129202  63.3286142  76.5578842  67.6093531  46.3807154
  76.9833946  68.3452797  46.8206930  76.4342546  66.9570637  47.0702505
  21.8157697  70.9780121  20.3892303  20.8652282  71.0825968  20.3472447
  22.1516323  71.8707323  20.4697037   5.0819248  69.3517017  21.7889547
   5.4096591  70.1317215  22.2366047   5.5048978  69.3727160  20.9305358
  90.5620003  68.3174181  50.8628416  91.2729836  68.5889673  51.4433575
  90.0551605  67.6923037  51.3810825  16.7114663  72.2436666  63.7243891
  17.3201096  72.7526474  63.1889200  15.9657025  72.0782137  63.1475925
  46.9458771   6.4769304  37.1009374  47.1607828   6.6975743  38.0072284
  46.0015678   6.6198844  37.0370889  32.7023649  20.1455498   4.4267339
  33.3290863  19.7860062   3.7988958  32.6207829  19.4683433   5.0982738
   4.3442261  64.8782778  53.7889671   5.2763432  64.7371912  53.6231804
   3.9023945  64.2336750  53.2362413  82.5317669  52.7252531  73.3054447
  83.4609222  52.4965239  73.2813644  82.1128178  51.9803190  73.7364674
  35.6667852   0.7284086  12.7141035  36.0532665  -0.1339201  12.8665936
  36.1796069   1.3212533  13.2634473  42.3901033   3.4237158   5.1926345
  42.4795866   2.8306708   5.9386384  41.4775038   3.3292967   4.9197266
  50.6553268  14.2032695  56.6171122  51.4700222  13.7446868  56.8225574
  50.9177780  15.1160288  56.4978552  39.3389273  20.3273129   0.8339343
  39.6418238  19.6593630   1.4490183  40.0406742  20.9781957   0.8224559
  65.9596777  68.3327913  61.0477018  66.3250351  67.5848913  61.5203428
  66.6254616  68.5528088  60.3961229  12.5968540   6.3493693  66.6567564
  13.5115075   6.4175564  66.9306040  12.0949435   6.5791100  67.4387646
  62.2974110  54.8778963   2.7027506  62.8626919  54.7139311   1.9478962
  62.6388121  54.3023300   3.3871490  21.3962173   0.5327574  41.8683004
  22.0121479   1.2435888  42.0460033  20.7979417   0.5418546  42.6154375
   8.5273165  85.5089664  41.6654778   9.3386364  85.5015564  41.1576033
   8.3472228  86.4370060  41.8156385  25.4151130  32.1098423   4.7986275
  25.9814143  32.8436041   5.0376397  25.9206486  31.3312340   5.0319445
   4.4395870  83.7115097  26.2391496   3.8312718  84.2760086  26.7161369
   4.4362974  82.8886509  26.7281508  60.2196693   9.7481114   6.7953831
  59.7557545   8.9302605   6.9746393  59.6055269  10.2618289   6.2708318
  28.9026928  76.7522192  26.8797588  28.4785628  75.9069061  27.0273757
  28.2015967  77.3190498  26.5582108  53.2518911   3.6000603  36.1056828
  53.5910845   4.4294870  36.4421797  52.3697090   3.5359719  36.4715815
  47.4529505  17.7214825  21.2553215  47.6207590  18.5369778  20.7830524
  46.6465044  17.3816943  20.8674860  57.1363449  17.9918885  30.3570938
  56.4169979  18.1588888  29.7480917  56.9518661  18.5578859  31.1066580
  44.8379803  85.0666142  19.4457233  44.3774843  85.8703995  19.6867502
  45.4791927  84.9390888  20.1448798  23.9613867  74.4632101  23.5595012
  24.7267008  74.1763067  24.0577126  24.0946960  75.4029655  23.4357309
  -0.1696703  82.9840946  25.5591512   0.4725339  83.5206127  25.0944376
  -0.0834105  82.1147251  25.1680017  75.3816700  76.8684959  12.6338506
  74.5039034  76.7276287  12.2790110  75.3819132  77.7830839  12.9162645
  90.8762836  71.7261600  38.0346107  90.9198189  71.4682484  37.1138406
  90.1658726  71.1975479  38.3980799  19.3995118  65.4464531   5.5621219
  18.4800363  65.2470779   5.7383257  19.6385026  66.0865974   6.2324435
  75.7547235  26.0329556  35.5530882  76.0409403  25.5132532  34.8019409
  74.8011065  26.0612369  35.4753733  37.2303486  66.9067001  10.2725089
  36.7169070  66.1121225  10.1267087  37.9404402  66.6300964  10.8517289
   8.4591079  76.5901136  43.8861513   8.5728705  76.0805941  44.6884441
   7.8022200  76.1058140  43.3859682  30.0855613  19.1248155  29.0620422
  29.7496748  18.2694364  29.3298864  29.8372889  19.7135139  29.7748041
  20.0532937   0.7000915   8.3956242  19.2675614   0.2397851   8.6905378
  19.7546220   1.2383410   7.6626068  15.6471539  59.6731949  50.1804876
  15.9124374  59.4650030  51.0763168  14.7216558  59.4318485  50.1425457
  18.5589457  15.1234257  12.7487063  18.9692163  14.2889762  12.5215399
  17.8787482  14.8916030  13.3810210  17.2775829  12.9629135   7.9162520
  17.5868952  13.7932885   7.5542629  16.3235486  13.0184531   7.8617895
  67.9327679  16.3039088  34.8982334  67.5092411  16.8974721  34.2781234
  68.8698101  16.4447498  34.7627640   4.7964126  73.6758709  14.7939503
   5.6151855  74.1523218  14.9311924   4.1231722  74.3561172  14.7783923
  18.4544289  70.2923250  71.8651915  17.9539132  70.1353455  71.0645199
  17.8608561  70.7936335  72.4242973  32.2872663  55.4466295   5.7218421
  31.8100786  54.7348356   5.2953756  32.1668029  55.2884817   6.6581702
  77.0577240  22.3147511  14.9949753  77.1818209  23.2113028  15.3064668
  77.0146894  21.7877722  15.7928944  71.0466433  10.7319558  39.2855382
  70.2410555  10.4460168  38.8548422  71.2203741  11.5983951  38.9176631
  30.7982469  23.9569330  32.8453445  30.9337926  23.7950826  33.7789750
  30.1167607  23.3347964  32.5908756   8.1551528  16.8778384   5.5997634
   9.0323216  16.7941880   5.9736747   7.7501285  16.0228860   5.7455128
  39.1551399  10.6240416  46.4786148  38.2537127  10.9103644  46.3313770
  39.6614766  11.4355886  46.5139198  28.9796925  11.0045969  32.3517227
  29.8711538  10.8406115  32.6593542  28.9009857  11.9585156  32.3430490
  19.3575323  24.2027259  29.3803620  18.8486111  23.5884857  28.8512683
  19.5652354  23.7165451  30.1783085  19.9202681  11.6343236  62.2305918
  19.3812728  11.9291842  62.9646015  19.6962225  12.2290564  61.5148211
  23.5402489  74.7197199  35.6572127  23.5726428  74.4876814  36.5852976
  23.4184289  73.8845730  35.2056360  90.2634621  40.1398468  15.0396442
  90.1764107  39.3555140  15.5813754  90.6438160  39.8238587  14.2200637
  82.8897285  72.5671625  57.6941824  83.1180286  73.3226109  57.1525097
  82.3539066  72.0163727  57.1234274  88.1223583  20.5172944  57.7153778
  87.2529507  20.8840394  57.8761911  88.0118656  19.9716890  56.9367027
  39.3806243   1.7685173   7.5325519  40.2714157   1.8578871   7.8712797
  39.1938114   0.8317478   7.5941616  90.2962494  54.4708443  11.3409817
  90.8379364  55.0768518  11.8465018  90.0284195  54.9736118  10.5717480
  33.4812617   3.7745813   2.7190295  33.8546371   4.0578237   1.8844062
  34.1132236   4.0671664   3.3757246  27.3156261   4.2832685  60.0640631
  26.4384723   4.4393831  59.7141171  27.3919368   4.8914665  60.7992506
  86.7678928  46.7423344  55.8927059  86.4088631  47.5476456  56.2652588
  87.5162792  47.0325470  55.3712416  68.8499880  16.6091204   4.1700292
  68.1953573  16.6944456   3.4769148  68.3378220  16.5303934   4.9748385
  85.4751301  85.9827518  36.0965109  84.7994614  86.1755180  36.7465520
  84.9881363  85.7791233  35.2980113  40.7897139  13.6226952   1.6041696
  41.5863466  13.1811643   1.8985415  40.5313253  13.1487346   0.8137083
  55.5469799   8.5739535  14.2569292  55.7180882   7.7523297  13.7966180
  55.8864212   8.4288925  15.1400876  34.2872477   5.5346525  65.5692196
  35.0686169   4.9905878  65.4707861  33.6677098   5.1818311  64.9305296
  45.6340456  15.5073965  14.4982231  45.3997231  16.1027539  13.7862718
  45.7630587  14.6610749  14.0700567  32.2490048  64.7629595   6.9671506
  32.0631742  65.6159925   6.5746844  32.0636272  64.1332817   6.2704623
  13.2876813  32.8125763  23.9381838  13.3955300  32.2257805  23.1896710
  12.5656641  33.3892226  23.6883831  19.3424428  73.8415146  35.7226443
  18.7107623  74.3789911  35.2448058  19.2263567  72.9610443  35.3655314
  66.4092588  12.7058899   2.2560363  65.6021881  12.9108119   1.7839371
  67.0885992  13.1962609   1.7931506  64.7839785  10.9969711  18.4588230
  64.1737270  10.3149056  18.7392008  64.4444180  11.2891793  17.6129234
  64.4807911   7.9599196  36.5309143  64.1465616   7.6891613  35.6758046
  64.8582458   8.8260281  36.3772440  39.7730613  78.3614206   9.1882342
  39.0010095  78.9029264   9.0240979  39.4184899  77.5152969   9.4613355
  62.2699881  35.2930284   9.9728292  61.4467859  35.4725647  10.4270673
  62.8530979  34.9617314  10.6558084  90.8501148  44.3206739  39.6569943
  90.5332375  44.7183609  40.4679632  91.2593746  43.5015583  39.9358916
  33.8955426  26.5777493  56.4961147  34.0719175  25.6975889  56.1637878
  33.6399388  26.4424801  57.4085855  47.6936626  79.3954420  59.3756676
  47.3056793  80.2676105  59.4465780  46.9467926  78.8108110  59.2467451
  14.6794069  81.6834259  43.8865948  14.0994203  80.9221649  43.9050388
  14.1067195  82.4153519  43.6573839  27.1664977  78.8264370  26.3267636
  27.0261335  79.2667484  27.1650100  27.6171184  79.4762468  25.7873893
  19.1518688  19.3304765  64.8554468  19.6762967  19.9298418  64.3244410
  19.2927694  19.6225655  65.7560396  49.6314478  61.6851950  14.3594003
  49.7715330  62.1200991  13.5182893  49.7657585  62.3739147  15.0104451
  76.8620348   4.8962161  51.9612217  77.8058243   5.0511765  51.9226885
  76.7548084   4.2413509  52.6510668  90.8857346  54.4386005  33.6139369
  91.4943695  55.1280355  33.3484745  90.6607914  53.9906549  32.7984738
  40.1338196  16.4931619  45.8408880  40.9795141  16.4071238  45.4008532
  40.3432226  16.4453852  46.7736816  25.9488869  83.1515503   4.0449950
  26.0196614  82.8359222   4.9458832  25.0077868  83.2447815   3.8971087
  75.8959579  15.5359280  73.3888292  76.7323542  15.8222318  73.0218029
  75.2804327  15.5968702  72.6583195  48.7385798  32.0804882  13.8638449
  47.9053402  31.6102171  13.8357925  48.5487652  32.8745103  14.3635762
  24.7833228  75.5941343  50.9339809  24.9311948  76.1281824  51.7144632
  25.5957365  75.6710577  50.4336786  64.1971636  20.6040025  62.8079653
  64.0792704  21.0000610  63.6713696  63.4013033  20.8338046  62.3283482
  25.9114385  10.0802517  22.4225950  25.0731754   9.6648473  22.6250458
  25.8383727  10.3307605  21.5016508  73.9661551   6.3048238  33.6730790
  74.0408754   6.5448773  34.5966721  74.8507357   6.0384023  33.4225368
  56.4386225  20.3425503  25.7769680  56.9293213  19.5600212  25.5257773
  55.5565596  20.1914382  25.4373145  81.1900043  39.0589070  45.9412241
  81.9293118  38.8274431  46.5034342  81.0373306  38.2761168  45.4119158
  63.9560843   8.0472076  68.9124680  63.6789417   7.2325522  68.4932280
  63.5184479   8.7353903  68.4113598  50.5192375  14.4202566  41.6432095
  49.9745560  14.1029906  42.3635530  50.8714819  15.2527738  41.9579649
  66.8650627  21.9203544  44.0494537  66.6797161  22.8592181  44.0291786
  67.7989721  21.8649054  44.2518759   3.4620565  81.7283440  21.8920994
   3.5061428  80.8364010  21.5475535   4.3610281  82.0520306  21.8345737
  57.6938343  73.1578255  14.8899281  58.4944820  73.5177469  15.2715683
  57.1684217  73.9261961  14.6668172  41.8906641   1.8945533   8.6049646
  41.7057943   2.7664676   8.9539933  41.6242552   1.2958352   9.3026716
  29.4852781   6.2481332  53.8410234  30.2546978   6.7434776  54.1218424
  29.3976283   5.5522025  54.4923544  73.3271027  43.3252001  40.9795570
  73.9457226  44.0447569  41.1051464  72.7430487  43.6299181  40.2851057
  31.4681745   7.2631627  43.6016893  32.3624158   6.9606191  43.7599039
  31.5694189   8.0148077  43.0177259  88.7774181  84.2193222  16.8376410
  88.8083172  83.3934879  17.3206222  89.3740845  84.0882778  16.1007226
  78.8882065  29.6597528  51.6026688  78.7338257  29.3784213  50.7008648
  79.1450119  28.8603711  52.0623112  88.0133057  42.8543854   4.0910751
  88.4801006  43.6866903   4.0162233  87.9632759  42.5262451   3.1932694
  45.6821251  21.0911608  43.1379271  45.7178450  20.1450944  42.9968119
  45.5701256  21.4599562  42.2617579  50.2987814  20.8989096  33.6412764
  50.8656216  21.6360879  33.8681912  49.6756124  21.2609839  33.0113602
  16.5439832  70.5416918  10.2039742  16.4302659  70.3365707   9.2759520
  16.2600696  71.4522600  10.2845430  25.1224446  26.6891503  68.9989948
  24.9683785  26.0680914  68.2871103  25.2900267  26.1393595  69.7644234
  58.9928770  10.8284092  30.8205175  59.6038151  10.8060694  31.5570521
  58.7525654  11.7511415  30.7365704  21.2992835  72.1850204   3.3089149
  22.0248675  71.5858936   3.1334016  20.6807303  72.0275354   2.5955978
  23.5867357  51.4756489  39.7819185  23.5039186  51.5734148  38.8333344
  24.3133664  50.8632898  39.8970556  30.7792735  79.0485525  24.8134923
  30.0336003  79.4559002  24.3727326  30.4494596  78.1991005  25.1065564
  53.1259871  71.1403561  30.2035999  53.1869173  70.3109455  29.7296786
  53.7072086  71.0295391  30.9560180  72.9301167  73.8566589  38.5286474
  73.1517601  74.6569300  38.0525398  72.0480967  73.6362791  38.2291436
  44.4456100  30.2271008  36.4451241  43.8475513  30.0934052  37.1804333
  45.0258303  29.4661140  36.4668918  16.4898050  63.3584499  12.1389520
  16.2629271  63.8138866  11.3281894  17.4464417  63.3258057  12.1356869
  22.4721885  69.8526239  31.4360905  21.8843818  70.4196453  30.9368920
  23.3361673  70.0079679  31.0544634  38.0658197  12.6588047   9.0402079
  38.9584231  12.9821885   8.9180917  37.9728031  11.9614899   8.3911061
  46.9969225  25.8260393  15.3022242  47.0613337  26.7016530  14.9209309
  46.4964294  25.3217220  14.6608174  63.2101393   9.2155433  14.3001759
  62.9263353   9.8175603  14.9881172  64.1650200   9.2091542  14.3664336
  17.8089440  28.2627439  18.7330782  18.3925474  28.4461546  19.4692850
  17.5530577  27.3481274  18.8523710  57.8518295   5.1606447  16.0724688
  58.6403513   5.0798625  16.6090691  57.9685211   4.5140314  15.3764045
  81.6295528  16.9745445   8.2560599  81.6590023  16.0178626   8.2671726
  81.2013340  17.2105622   9.0789557  47.1705008  35.8184576  17.9466748
  47.2601700  35.4485822  18.8249588  46.2382364  36.0198307  17.8656268
  66.8329382   1.4473602  58.3998632  67.5712109   0.9830320  58.7942982
  66.6201973   0.9383625  57.6176262  43.7964821  80.2995872  14.5404530
  44.7204447  80.3162479  14.7899449  43.5702801  81.2186909  14.3978989
   4.3971571  78.6552620  14.9536860   4.4656071  78.1690311  14.1320240
   3.6858815  78.2248878  15.4281306  27.9673433  75.6523085  39.4506288
  27.5693965  75.0456858  40.0750351  28.8847589  75.3828239  39.4063473
  29.3273234  27.0946217  19.6913564  29.0020156  27.2803116  18.8104892
  29.5453286  27.9539537  20.0522637  44.8250151  16.9034362  20.0183058
  44.3510675  17.3944616  20.6894970  44.2075682  16.2296736  19.7336388
  21.6791272   9.5365560  19.1622829  20.7344866   9.4408643  19.0409100
  21.8641233   9.0713614  19.9781275  91.2141132  51.6015816  15.2502966
  90.7642174  50.7954073  14.9975204  91.2785721  51.5509653  16.2039816
  65.3721857  29.7675443   3.2772085  65.5520391  28.8531971   3.4959614
  66.2172651  30.1168108   2.9942149  28.8829708  75.7232857  30.0071168
  29.1867232  74.8171091  29.9540710  28.0878544  75.6786680  30.5381799
  42.2002411  31.9911599  25.7478523  42.8046560  31.9778037  26.4899683
  41.3313723  32.0327187  26.1473155  72.1167183  25.1702738  31.7438412
  71.7015409  25.9842110  32.0290852  72.9111719  25.4526496  31.2906957
   5.3161836  76.7833948  59.7384024   5.3755456  77.6007795  60.2329588
   4.4649902  76.8282509  59.3028641  30.3277755  85.8090496  20.6164670
  30.4470420  84.8813248  20.8197904  29.4104290  85.9842205  20.8262825
  55.5390978  49.2253113  38.7118530  55.5594301  48.3952618  38.2355785
  56.0112572  49.0464640  39.5250630  89.2115021  20.7519031  29.2393661
  90.1496029  20.6099963  29.3661022  88.8295269  20.6168628  30.1065946
   0.4871128  70.8985090   7.4033147  -0.1462035  70.8703279   8.1204957
  -0.0300100  70.7121801   6.6196710  62.0227575  33.5445404  26.5924501
  62.3825026  32.6716423  26.4347649  62.4635267  34.1043115  25.9532237
  43.0892992  13.0058694  27.5748968  43.3946466  12.3263991  28.1759930
  43.8909435  13.4128177  27.2462797  24.9320006  83.3615494  69.3551540
  24.8473740  84.2129421  69.7843409  25.8442378  83.3281231  69.0671682
  18.6217237  73.0495501  23.8661408  18.4650731  72.6718092  23.0006909
  18.9842057  73.9171124  23.6867690  39.6610188   5.8908707  52.6303244
  39.9838567   5.5669999  53.4712267  40.0428391   5.2982342  51.9828463
  69.0542316   4.1177213  60.1560307  68.4591055   4.2462435  59.4174242
  68.4773970   4.0026402  60.9111786  67.1278477  77.6547909  53.7201357
  66.7524958  76.7855167  53.5797739  67.0128393  77.8170061  54.6564531
  19.2893553   6.0348380  19.7629237  18.5967791   5.5715424  20.2340150
  19.9730003   6.1740822  20.4182649  57.1010160  37.9575133  23.6943150
  57.9299021  38.3849382  23.4786868  56.9509363  38.1761694  24.6140409
  69.4080687  26.8319583  40.2748537  70.1791000  27.1936870  39.8379326
  69.3492937  25.9329319  39.9515390  27.5145841  43.7256908  14.7782028
  27.2550321  43.0440903  14.1582942  27.6620746  43.2581615  15.6003332
  28.1991768   8.4946281  31.5022016  28.3349895   9.3498433  31.9101143
  28.7728572   8.5009140  30.7359862  76.2747622  50.7554722  10.9896612
  75.5597019  50.7448244  11.6259074  76.1780071  49.9346447  10.5068457
  20.8645129   8.0117148  62.8084230  21.4200687   8.2508510  62.0665312
  21.0348201   7.0796758  62.9445505  54.0253878  35.3938961  44.0069389
  53.9173079  34.8701906  44.8008442  53.8614798  34.7801065  43.2909584
  19.7242832  47.0722151  33.9542603  20.0793839  47.9498577  33.8132429
  20.1540971  46.7653608  34.7525907  56.4715862   3.1455249   2.3530035
  56.8966818   2.2949907   2.4630691  56.6413593   3.3819234   1.4411242
  40.6065035   0.3690380  71.1799908  41.4041042   0.0944896  71.6324186
  40.7775974   0.1805562  70.2572584  21.3593411  77.6059628  60.9544182
  20.9595561  76.9580078  60.3742790  21.5231681  77.1298456  61.7684841
  45.7090950   5.6526995  24.4647765  45.2317715   4.9682957  24.9338055
  45.4763746   5.5202007  23.5457993  45.7761192  13.7921655  45.2008057
  46.3378048  13.1495118  44.7675228  45.2965212  14.2114198  44.4863558
  75.8820581  85.0280380  43.5537529  76.2367582  85.8214092  43.9549923
  75.0815058  85.3181267  43.1164932  59.3810081  26.7769122  48.8523769
  59.9125195  25.9911752  48.7245274  59.4852638  26.9882607  49.7801113
  37.0086598  29.9752808  16.0445154  37.5011992  30.1632762  16.8434501
  36.0907745  30.0346613  16.3094544  36.3018417  64.8051453  41.7430735
  36.0380793  65.5572128  41.2129211  37.1628284  65.0441980  42.0862722
   7.4085844  70.1574850  72.9442453   6.8007022  70.6677914  72.4091768
   7.6376593  70.7402277  73.6682415  34.4552064  85.9448433  43.5114145
  33.5619497  85.7886410  43.8178921  34.3863940  86.7242527  42.9600382
  46.5460587  12.5514007  48.6702347  46.1893463  11.6701388  48.5590172
  45.9677267  12.9647481  49.3112516  69.3015814  30.5056477  18.4261620
  70.1467466  30.1107216  18.6405420  69.2425060  30.4422736  17.4728906
  56.8634462  27.1841264  32.9789996  56.6658258  26.2477326  32.9603601
  57.1352959  27.3536348  33.8809943  55.2993822  18.8834774  28.6533546
  54.9642897  18.2460451  28.0227804  55.4406500  19.6780527  28.1386447
  87.2222424  59.9521065  21.1327791  86.7688942  60.5431604  20.5316424
  88.1328106  60.2467918  21.1171985  77.5019741  33.4979963  16.3714516
  77.4397230  34.3489647  15.9376192  76.5933371  33.2461953  16.5363777
  86.4198589   5.0258917  34.8324442  87.3693943   4.9076736  34.8070049
  86.1664867   5.1275414  33.9150023  30.0247526  26.2115407  22.3189402
  29.4703269  26.3726258  21.5554643  29.5184898  26.5487385  23.0580115
  57.3318720  56.3583279  73.5032511  58.1722260  55.9117746  73.4001827
  56.6943073  55.6504488  73.5962486  40.6310272  19.3674898  40.1201534
  41.2761354  19.0876532  39.4707203  39.8120642  19.4372928  39.6295857
  59.0891409  14.4297099  39.9604774  58.2117748  14.7961879  39.8502254
  59.4715071  14.9353051  40.6776953  22.4890637  18.7763035  55.4926491
  22.5774693  18.4805143  54.5866013  23.1468034  18.2741857  55.9737825
  54.9421501  16.4832509  56.8823481  54.1527414  16.5431738  57.4203730
  55.6100798  16.9503975  57.3842144  19.2673850  17.2804809   8.6644870
  20.1693463  17.4534059   8.9342910  19.3492198  16.8737078   7.8018922
  65.7475853  69.7832584  46.2585497  66.6559076  69.7499466  46.5586758
  65.7894325  69.5210743  45.3389120  50.8642435  11.6633523  55.0348806
  50.7595539  12.1917892  55.8260965  51.6049337  11.0883427  55.2271652
  21.0888767  66.7424107  46.4426613  21.0747099  67.6969624  46.3729382
  21.9258809  66.5453720  46.8631697  54.1374826  28.6334395  45.0621891
  54.0968275  27.7789307  45.4916000  53.2737827  29.0179944  45.2117729
  11.3673711  30.5439281   2.8762397  10.6051219  31.1195016   2.9388633
  12.1117318  31.1088085   3.0837703  30.9190798  13.9559162  13.7144899
  30.4167819  13.4308565  14.3375790  31.4113283  13.3141518  13.2025707
  63.9354706  18.4091330  27.5242901  63.7421465  19.0405571  28.2172275
  64.7974443  18.6677980  27.1982145  65.9944057   1.1650645  14.8032105
  66.8374729   1.3830636  15.2006400  66.0426378   1.5343907  13.9214492
  58.2515955   0.1917468  30.3752375  58.2378578   0.6562077  29.5383883
  59.0399504  -0.3497039  30.3357434  69.5104074  17.9045331  32.2787261
  69.8123741  18.7188876  31.8763900  68.6588287  18.1251884  32.6560354
  36.9070435   2.8082937  14.3512154  37.6712394   2.4988319  14.8374963
  37.1977186   3.6230582  13.9414620  17.1729970  70.0438595  38.5270381
  16.7617238  69.3179703  38.9962578  18.1013167  69.9785423  38.7510681
  36.3857555   4.0174100  25.0798917  37.0915794   4.5303440  25.4735208
  35.6369972   4.6134937  25.0633264  26.8359184  83.2018661   8.6806798
  26.4440966  82.4792576   9.1711342  27.4931788  83.5654545   9.2740119
  79.6832514  47.8185844  31.3797545  79.4678164  48.5747623  31.9256616
  80.1466465  48.1895351  30.6288266  34.5369220  41.7397594   1.9539838
  33.9556980  42.0236969   2.6595244  33.9766955  41.7129326   1.1783183
  59.8955488  25.7257962  60.6812906  60.5276394  25.0281715  60.5080509
  60.3122330  26.2650537  61.3534498   5.8167595   0.2561334  24.7378135
   5.6055778  -0.6298918  25.0320816   6.3259709   0.6320092  25.4559016
  49.7468853   8.3502924  39.7974420  50.0846863   9.1303730  39.3574476
  48.8062906   8.5087985  39.8773789  73.8857746  23.5939479  39.6441936
  74.4039392  24.3726325  39.4407511  73.9962435  23.4723902  40.5871964
  16.7136681  84.9683189   6.9496220  15.8172107  85.1931763   6.7005461
  17.2534883  85.3128242   6.2381870   3.9641201  79.5918989  61.6177654
   3.8389587  80.1466084  60.8477879   3.0799234  79.4459820  61.9541216
  56.6615343  41.4404678  74.4330692  56.0790110  40.7163620  74.6623564
  56.5471077  42.0735550  75.1418257  29.7163343  12.1347475  42.3234081
  29.0812540  12.6237369  42.8466606  29.7822070  12.6270425  41.5051556
  25.9878564  41.5999794  61.6366577  26.5818048  42.0926094  62.2030258
  26.0154510  40.7068253  61.9797993  41.6978788  28.1199622   0.1833369
  41.5108490  27.4455237  -0.4696435  41.2423229  27.8234100   0.9712176
   7.0149982   4.3390119  12.3653591   6.3462782   4.9201393  12.7277625
   7.7078313   4.3299234  13.0257618  46.9963932  20.6840301  72.2309351
  47.1937466  19.7564578  72.1009636  47.0848846  21.0720015  71.3603687
   9.8243356  84.7467804  49.1886711  10.7760274  84.8156834  49.2646027
   9.4934517  85.0633430  50.0292253   2.6502100   4.5956045  64.2021418
   2.6800960   5.4641342  64.6033859   2.8438395   3.9931804  64.9203491
  57.6858950  23.9052081  45.5317783  58.0386639  23.9950871  46.4170504
  56.9386673  23.3151698  45.6304741  46.6195631  22.7003360  38.1297040
  46.1192560  23.5155606  38.0931902  46.2802792  22.1783280  37.4026394
  61.3166142  12.7115726  23.7842345  60.9177303  12.6493466  24.6521354
  60.7998753  13.3772850  23.3303165  31.1535954  84.0800762  33.0917335
  30.8077955  84.9562740  33.2618332  31.1958838  84.0203953  32.1373320
  22.2714829  72.9894829  11.8601084  22.1649837  73.7239552  11.2555945
  23.1768966  72.7053738  11.7346561   7.2631955  58.7779140  64.0557337
   6.4083070  59.2044115  63.9965868   7.8938019  59.4944763  63.9842844
  11.3547397   3.0501792  18.1613255  10.4330695   3.1112346  18.4123790
  11.5146995   3.8391656  17.6434982  46.4078426   8.1264716  21.8704796
  46.5590763   8.4632444  22.7536249  46.2176800   7.1970415  21.9978714
  31.6836643   2.6345873  59.2001104  31.1198616   3.4009638  59.0951204
  32.5425816   2.9970571  59.4171524  88.5560608  73.2435799   6.0295421
  88.5472870  74.0974569   6.4620316  89.1674900  72.7193642   6.5468210
  85.4504681  45.5449533  62.4797153  86.0766697  46.2550449  62.6206875
  84.6003246  45.9293556  62.6935530  61.6807175   0.0032321  36.3011003
  61.5242338   0.0897762  35.3607512  60.8112955   0.0706794  36.6957951
  75.9262705  12.2234595  44.5754480  76.7439508  12.5809586  44.9216127
  75.9957790  12.3406005  43.6279917   6.6853589  75.7713938  14.5232093
   6.5571040  75.7507753  13.5748637   7.6085144  75.9982777  14.6351767
  39.8272848  26.0681939  25.4429746  40.1875925  26.7718887  24.9033260
  38.9242363  26.3357329  25.6137371  46.5889774   0.3396208  38.5933661
  45.8320664   0.3373033  38.0074382  46.6042386  -0.5409067  38.9684176
   7.9419732  84.2425537  28.1370449   7.1774966  84.8152637  28.1987023
   8.6727989  84.7860718  28.4315181  20.2214432  79.0244818  32.3381305
  19.3795478  78.5728693  32.3972154  20.2698302  79.5466900  33.1388712
  80.2460957  54.9798441   8.7198120  79.9863815  54.6535254   7.8582466
  79.8192978  55.8336449   8.7911868  74.4685316   4.1370529  30.0753284
  74.9778652   3.6131388  29.4569993  74.5742321   3.6877319  30.9138799
   5.3045195  74.1376019  67.4315834   4.5644951  74.1876507  68.0366373
   5.9944254  73.7024355  67.9324770  10.8596194  65.1127577  52.9760742
  10.4440415  64.9530506  53.8234377  10.7402563  64.2951345  52.4928808
  12.1304631  41.5546322  16.5629530  12.7852285  41.6407871  15.8700669
  11.6649139  40.7450008  16.3532257  79.4409752  20.8031368  13.7425041
  78.4958410  20.7298899  13.8751376  79.6981621  21.5622020  14.2658651
  36.9508767  83.9581013  40.9034014  36.8608141  84.8220253  41.3055992
  36.5069509  84.0394402  40.0592756  35.2280426  84.5484161  36.8047166
  35.7654786  83.7565804  36.8246055  35.8229184  85.2340698  36.5010285
  61.9391298   6.0137600  27.1457887  62.3104095   5.6550872  27.9518533
  62.2248602   6.9272685  27.1362400  49.1370106   8.0415511  20.2983165
  49.8751736   8.6155289  20.0936174  48.9574671   8.2033336  21.2245011
   1.3261861  62.9189396  54.0637732   1.2135930  63.8455486  54.2757845
   1.1108626  62.4596262  54.8754978   6.8067586   8.4072369  18.3123541
   6.8209273   9.3321645  18.5584033   5.9163243   8.1194484  18.5136914
  17.1428919  84.4576550  14.0833855  16.2437928  84.7830772  14.1275430
  17.2393727  83.9136505  14.8650432  53.3140135  28.4681201  51.7534256
  54.0780592  28.9435291  52.0796919  52.5664139  28.9145660  52.1509409
  12.4028480  83.7774658  15.2297246  11.5934503  83.6558437  14.7334242
  12.6170003  82.9036427  15.5565488   3.5612977  73.9084625  47.0122623
   3.9102629  73.7728024  46.1313248   2.9677549  73.1704378  47.1510363
  42.8556776   8.2831532  19.2136753  42.6578045   8.8081205  19.9892318
  42.5293398   7.4088573  19.4266093  23.6784387   6.4059645  21.5978956
  23.8837028   5.8962065  22.3816347  24.4645238   6.3388729  21.0558605
  42.8894091  25.2820444   4.9250919  43.5846901  25.2357268   5.5813438
  42.1494913  25.6757164   5.3874528  70.5731297  53.3913183   5.6851715
  70.8838940  53.3201933   6.5877223  69.6188450  53.3786678   5.7587367
  16.6766751  56.4507389  64.7430658  16.2631869  57.0123339  64.0874195
  16.2701678  55.5936623  64.6149683  80.2491093  10.1361263  35.1184344
  81.2039757  10.1687300  35.0601578  80.0568962   9.2427117  35.4032087
  37.7179146  59.6243620  67.3365450  38.4873676  59.3599415  67.8407812
  37.2661471  60.2521515  67.9004765  38.5058260  29.5089555  18.3538914
  38.0502200  29.5521379  19.1945994  38.8405490  28.6133313  18.3085918
  37.0884204  18.0189276  11.9619000  37.9935837  18.2289052  12.1917272
  37.1616340  17.3060930  11.3272834  26.6078711   6.9058949  50.0207329
  27.4417472   7.3109931  50.2590132  26.3394499   7.3617256  49.2229843
  63.5191870  30.4324031   5.0900191  64.0112114  30.2836061   5.8974862
  64.1167355  30.1632118   4.3923762  28.3364344  74.7858906  20.6770492
  28.4518933  74.5236826  19.7637331  29.1985226  75.1032877  20.9459305
  71.0202694   1.6721407  26.7150593  70.2144623   1.3069473  27.0804882
  71.3333035   1.0016353  26.1078811  71.5376139  61.1426210  61.7853594
  71.2793684  60.2673817  62.0743132  70.8238935  61.7108250  62.0751476
  74.3510866  85.1553249  48.0616283  74.6046209  84.3892670  48.5765171
  74.2840767  85.8631611  48.7024879  89.3866444  17.0057786  40.3467560
  89.7741985  17.1875489  41.2029076  88.5229397  16.6447878  40.5465937
  81.5012550  36.2730122  41.3013124  82.3975658  36.1437654  41.6113853
  81.5628433  37.0068073  40.6897688  72.6963949   8.1022805   9.7228515
  71.9275475   7.7928752   9.2439210  72.8290081   7.4495745  10.4103255
  29.9201155  67.0177174   9.0353864  29.7797847  66.9245434   9.9776483
  29.0422344  66.9711065   8.6567247  61.4497519  24.7379518  49.2247057
  61.5509558  24.1564488  49.9782610  61.8139458  24.2438221  48.4902430
  20.5475307  68.9949512  72.9009533  20.7571912  68.3397102  72.2354221
  19.6759069  69.3095589  72.6611042  60.6665421   6.5896499  51.6862965
  60.3108311   5.7085615  51.8019915  59.9161863   7.1697462  51.8154764
  26.6300631  11.5418136  24.5856428  26.5476918  10.7897151  23.9993048
  27.0932817  11.1997879  25.3502870  59.8515177  42.9603910  28.8661337
  59.9412918  43.3178568  27.9827380  60.1200151  43.6759090  29.4424772
  80.6247425  39.6918297  12.5542307  79.9067211  39.2698717  12.0823991
  80.9117699  40.3963470  11.9732821  61.9665575  14.0149224  31.2029696
  61.2334681  14.4536829  31.6345906  61.9292593  14.3213820  30.2969217
  74.1460514  61.7888975  47.6705599  74.9837685  61.7496824  48.1319952
  74.3847799  61.8764973  46.7477560   7.5207722  27.3067069  39.0037131
   7.0964915  27.3691821  38.1479597   7.1873045  28.0595016  39.4919086
  25.5751634  12.5159872  32.3407388  25.6949353  12.6005757  33.2866406
  24.9690080  13.2206368  32.1121025  28.3837223  23.7589121   1.0365342
  29.0735602  23.5680795   1.6720971  28.6400557  24.5957017   0.6488428
  62.1474361  17.0445991  19.7622132  61.2355280  16.9071603  20.0186658
  62.2187185  16.6328466  18.9010453  24.7705770  76.4010000  39.0592527
  23.8190126  76.3189650  39.1226983  25.0129843  76.9567204  39.7999573
  38.9319682  64.8360777  52.6491356  37.9831934  64.7695780  52.5412607
  39.1247010  65.7629776  52.5079060  34.9856973  17.0649576  14.0950060
  34.5516419  16.2126923  14.0566289  35.7685089  16.9596243  13.5543215
  80.9502506  32.8983951  27.4226117  80.9995842  33.0175447  28.3710861
  80.7179546  33.7631750  27.0843410  10.1898456  68.5378551  70.5803442
   9.5510268  68.4404659  71.2865019  10.1228023  67.7229691  70.0826550
  42.1514606  42.7180529  13.1003118  42.9295540  43.2432413  12.9132831
  42.2718859  42.4247360  14.0034699  81.9294071  48.4863710  43.9642143
  81.4934731  47.7140617  43.6040306  82.4533272  48.8258886  43.2386351
  56.4047718  12.0652843  39.1822720  56.0771608  11.6730595  38.3729124
  56.4834976  12.9979181  38.9817023  49.8266172  23.4172893  27.4061608
  50.6290817  22.9866076  27.7007675  49.2619467  23.4261632  28.1790137
  20.3920746  85.4681969  50.4816580  20.1412702  84.6177959  50.8423996
  20.7992506  85.2609062  49.6405458  79.8086309  43.2551336  42.4205160
  80.3585339  43.3856630  43.1930447  78.9948082  43.7155867  42.6252460
  70.8857822  39.3251824  41.8575716  70.9945583  40.2243376  42.1672821
  71.5609980  39.2193604  41.1874056  57.5195456  79.3556261  67.2569180
  57.8433514  79.9349642  67.9466677  57.6634550  79.8442888  66.4465332
  80.2998734  19.9568748  56.3338709  79.7411776  20.4153299  55.7062531
  80.0449944  19.0376449  56.2545824  52.4780464  10.9033537  33.3444333
  52.1175432  10.7209778  32.4766731  53.3251524  11.3136995  33.1704688
  74.4369793  15.0196087  63.5318708  74.5641184  15.7000303  62.8707409
  73.9183521  15.4438019  64.2154789  11.9626462  32.5242400  42.9255438
  12.0100117  33.1367278  43.6596012  12.6944828  32.7710271  42.3600864
  27.4177575  86.6711807  54.1304111  28.2751322  86.3671398  54.4282436
  26.8007421  86.0289860  54.4812870  61.1306451  71.9308857   0.7708035
  61.4813326  71.9060139  -0.1194944  60.2829622  71.4909343   0.7067023
  58.7164879  48.4477901  23.2561636  58.7666655  48.0787659  22.3743844
  59.4775009  48.0865145  23.7106633  63.1072474  33.9411807  53.3463335
  63.2342720  33.2872558  52.6589632  63.0736589  34.7760820  52.8793812
  79.4394016  37.2200036  61.6780281  79.5945644  37.4821138  62.5854731
  79.5051479  38.0341625  61.1789799   5.9515131  45.8993244  30.4226708
   5.4205185  45.7419157  29.6419668   6.0228413  45.0412512  30.8408237
  15.4559445  57.9480886  62.5845003  15.1123035  58.6405802  63.1489468
  15.0858164  58.1363153  61.7220592  64.4190598  56.0118532  68.8648653
  63.6245441  55.7374573  69.3227720  65.0720215  55.3535843  69.1026831
  67.2206068  39.9006796  50.4755306  67.6996040  39.2476034  50.9857082
  67.8641844  40.5873823  50.3009558  61.2935829  18.6985981  53.0890560
  62.0786810  19.0335667  52.6558733  60.7364082  19.4684219  53.2037687
   2.7129093  14.9505305  41.8552685   1.9971818  15.2747393  41.3085938
   2.7285725  14.0070415  41.6945934  60.8382463  31.7862225  13.7252271
  61.3568544  31.6223121  12.9375648  61.4118624  31.5297842  14.4473326
  81.4769840  57.3677969  16.3277054  81.7336559  56.9327402  15.5146372
  82.3055649  57.5978184  16.7481577  46.6162300  24.4587588  44.5324421
  45.7353687  24.1590118  44.7570801  46.5670252  24.6693993  43.6000013
  51.2208557  25.1365900  23.8519907  51.7795515  24.5454764  24.3566489
  51.3671684  25.9974575  24.2440772  53.5743952  33.1732607  45.6154823
  52.7604198  32.7417159  45.3557825  53.5940027  33.0936193  46.5691614
  84.8400688  13.2810366  15.9373093  85.2822971  13.2880068  16.7861998
  84.6418476  12.3582220  15.7780826  81.4423656  14.4364810   8.9603180
  80.5114460  14.2675638   8.8151413  81.7988014  13.5920978   9.2363626
  83.6891460  27.0292807  21.4369822  84.6002293  27.3145056  21.5063167
  83.4020424  27.3503613  20.5821657  66.1314964  44.7270727  43.1353235
  66.3915825  45.6443310  43.0503178  66.8842554  44.2335176  42.8097582
  77.9256487  16.1307728  39.3207836  77.3347282  16.6585374  38.7836576
  77.5700569  16.1999464  40.2067852  24.3454766  19.3059349  44.8461056
  23.4973550  19.2642200  44.4043112  24.1313004  19.5062017  45.7572889
  61.0531235  23.6027718  40.9175301  60.1558971  23.4516144  41.2147903
  61.4651489  24.0844059  41.6348124  42.8380060   9.7688335   3.3725327
  43.7168884   9.3992710   3.4575111  42.6639509  10.1709402   4.2235592
  42.8881025   0.5285313  18.5867739  43.6251068   0.5492708  17.9763436
  43.2276201   0.9313732  19.3859482  58.9594746  25.6181622  65.8636427
  59.2721653  26.3029695  65.2724600  59.2715311  25.8868504  66.7277384
  31.5731454   7.1045715  28.7381220  31.6409779   6.9931638  29.6863937
  32.4262023   7.4507254  28.4760022  41.9994736  37.6826119   5.7265627
  42.1958828  37.7179575   4.7903973  41.4856195  38.4727550   5.8934814
  57.8726673  13.9722574  16.3221860  58.1107712  13.1620753  16.7728996
  58.6899710  14.2755044  15.9268582  60.6845951  28.6556435  19.4184661
  59.7949791  28.3045220  19.3793476  60.6469488  29.4613862  18.9031076
  76.5316248  21.0464883  49.7774410  75.8328629  20.5302382  50.1792479
  77.1493769  20.3954268  49.4446707  10.3731024  86.3038826  25.2693725
   9.4627625  86.3618565  24.9792862  10.8821642  86.2876320  24.4589257
  88.9145374  31.4482784  34.8901892  88.6711788  31.9274402  35.6822824
  89.4501019  32.0655894  34.3918657  88.5524940  79.0283918  15.1651657
  88.2284355  79.9109173  15.3450704  89.4812775  79.0629911  15.3940892
  47.8898621   5.2453893  53.9150667  48.8320875   5.3410906  54.0539217
  47.4908257   5.7431084  54.6287060  53.6721468  16.9668889  33.9611197
  53.3255386  17.8538537  33.8642144  54.6162176  17.0883691  34.0621305
  67.9308510  38.0817723  29.2315078  68.0554438  38.6878371  29.9618483
  68.6925125  37.5031662  29.2678118  38.6448121  14.4775057  52.5360918
  38.4338117  13.9392197  51.7732334  38.5086417  13.8963270  53.2843733
  55.9238863  21.3205004  11.4178133  55.2357292  21.9182825  11.7099178
  55.4519320  20.5756569  11.0453916  69.5013046  41.9884205  52.3452759
  69.9421835  41.1473465  52.4654818  69.3876934  42.3283005  53.2328606
  90.7622623  40.9191847  41.0398769  91.6946697  41.0682869  40.8829975
  90.6847668  40.8685970  41.9925928  81.8098545  31.1165810  73.0046892
  81.5280247  30.9689522  72.1019125  81.0341167  30.9258270  73.5320139
  29.6612287  56.6497056  -0.1942291  29.3683363  56.9051556   0.6805239
  30.4390360  57.1847967  -0.3521384  62.5327635   6.8262416  43.1186056
  63.3608818   7.2961664  43.0205154  62.5798368   6.1207449  42.4733973
  78.2502460  11.5971756  16.3431430  77.9797220  10.8667183  16.8994534
  78.8471603  11.2047446  15.7060230   3.1928477  78.8812304  21.6212821
   3.0203447  78.3545494  22.4017191   4.1439757  78.8516378  21.5177846
  68.7774038  42.4250364  49.6846724  69.0720892  42.6756334  50.5602264
  68.1278849  43.0883789  49.4515753  38.5156560   1.5115517  55.1159191
  38.7788701   1.7224306  54.2201090  39.3394089   1.3497981  55.5758095
  85.5121422   7.2948605  74.1104507  85.6128502   6.5953636  73.4648561
  84.5660973   7.3727286  74.2336226  51.9505978  33.6184359  22.1308613
  52.4751949  34.0391636  22.8120494  51.6954994  32.7774429  22.5101876
  72.0971680   2.5331321  46.5495968  72.0085001   2.1824497  47.4358177
  72.3084211   3.4578633  46.6779566  67.7921343  32.9176641  49.5228434
  66.9092846  33.2820225  49.4591904  68.2491159  33.2616401  48.7553263
  55.8167076  19.9253273  73.4328222  56.0676861  20.8288646  73.6248112
  56.6331291  19.4303191  73.5010195  86.4479733  29.9827600  70.7616234
  86.7385864  29.8031759  69.8674583  87.2014332  29.7588181  71.3078737
  59.7895908  20.0330305  56.1202812  59.8065662  20.2570844  55.1898289
  60.7054234  20.0798821  56.3946724  85.0861073   5.1823461  53.8721180
  84.6257401   5.4237705  53.0683708  84.6428394   4.3891144  54.1729879
  78.7240791   9.7239536  62.5008869  78.8500643   9.3495393  63.3727646
  77.9953718  10.3356612  62.6059198  64.5407915  21.3922429  26.2083387
  64.4528484  20.9972739  25.3408742  63.6722326  21.3040447  26.6008377
  71.5159464  12.8978372  29.8474264  70.6775999  12.4365664  29.8726201
  72.0067263  12.5433671  30.5888557  74.9977303  38.5939002  66.4235020
  75.8700943  38.6400580  66.0322475  74.5491219  37.9084730  65.9283543
  50.1488590  30.6963992  50.2066565  49.5128441  30.6758356  50.9217024
  50.4629230  29.7946906  50.1394558  82.2770882   1.5601940  74.2799616
  81.3449574   1.5760066  74.4970274  82.3839378   0.7773226  73.7396574
  77.3483992  12.6073945   3.1198606  76.7047024  12.8439581   3.7876400
  77.3488903  13.3487654   2.5143844  66.5479326  31.6737700  22.0434475
  66.2783718  32.5916767  22.0115995  67.3876333  31.6546726  21.5843487
   7.3887181  35.7997012   2.4787720   7.1214193  35.3892875   1.6563711
   7.1702766  35.1540017   3.1507736  25.4974675  78.4030724  51.6591311
  25.9358954  79.2046785  51.3737535  24.6364975  78.6947155  51.9589758
  75.9758139   6.4239955   9.8309398  76.0796690   7.2346723  10.3291869
  75.2939081   5.9413785  10.2981853  39.7204304  17.6544094  41.9945145
  40.2023363  18.1844103  41.3596201  40.0408554  16.7632985  41.8549442
  56.3248730  25.7595372  42.6204109  56.6686010  26.3174462  43.3181381
  56.0526943  26.3715124  41.9365740  75.3186941   5.1579767  66.0788250
  75.1906919   5.0788110  65.1335335  76.1885595   4.7900501  66.2343788
  52.9834270  77.9949760  31.9687319  52.7807903  77.5417471  31.1503458
  53.8995123  77.7782440  32.1420693  59.4712162  20.6663418  14.0020311
  59.1819572  20.2363896  13.1972313  59.6650219  19.9461281  14.6020019
  63.8789701   0.8822740  59.1481733  63.3247089   0.3265886  59.6961117
  64.6374655   1.0800123  59.6975517  40.3997755  85.8619976  29.3317127
  41.2237263  85.5047607  29.0004635  40.5787468  86.7927933  29.4651771
  14.1790831  82.3799992  38.0705976  13.7011909  82.5616455  37.2613645
  14.2326391  81.4250278  38.1079221  84.2144585   7.7389503  33.2518339
  83.3588600   7.4525255  33.5714293  84.0233898   8.1966418  32.4331498
  50.1696396  26.9703579  40.3495550  50.7110596  26.8341255  41.1270714
  49.3753386  27.3891068  40.6811666  52.0860338  22.1082115  30.8875728
  51.1313725  22.1551275  30.8361530  52.2926283  22.3989677  31.7758346
  53.7083817  16.5693450  30.1202869  53.6870575  17.3996115  30.5961394
  53.3832502  16.7857254  29.2463875  56.1240578  14.0596581   0.6055326
  55.2607250  14.4682741   0.6681666  56.1121941  13.3715463   1.2708090
  75.1311016  17.4375379  35.1183629  74.7761011  18.2044172  35.5679250
  75.2244425  17.7158821  34.2072964  48.8367224  36.4331913  29.4953036
  49.0672541  35.5044246  29.5171642  48.4464073  36.6033363  30.3525877
  30.4013467   1.2283083  32.1896744  30.9899902   1.1414066  31.4398885
  29.7445130   1.8642116  31.9060731  77.5294209  25.3897810  39.0886617
  76.9427204  24.6919537  38.7970304  77.7555943  25.1523423  39.9879408
  68.6094904  26.2449336  33.3096075  68.1191969  25.4353738  33.4526443
  67.9973841  26.9410253  33.5483956   2.3255792  23.2919121  31.0232067
   1.6556966  23.5875130  30.4066753   2.4386624  22.3620248  30.8263493
  59.3688250  28.2633567  57.3813486  59.3193722  27.8374338  56.5255594
  59.1224289  29.1724825  57.2110128  62.2510052  40.1170778  17.2237849
  62.1844006  39.9674010  16.2807083  61.6017818  39.5268726  17.6064062
  72.2201967  38.8211370  36.7993522  71.8015766  38.4479332  37.5750518
  72.6113081  39.6384215  37.1080780  34.6933699  69.8879099  57.5818634
  34.8230290  70.6729650  57.0497799  33.7433958  69.8152924  57.6741028
  55.1894760  33.7603998  40.6439209  55.2380180  33.4211016  41.5376520
  54.9080944  33.0115032  40.1183653  46.7557859  61.2004852  48.2437134
  46.5156698  61.3777685  47.3342371  46.6878414  62.0500946  48.6793470
  72.9218006  25.6480908  37.4212503  72.4490118  25.1772809  38.1075716
  73.6890221  26.0104585  37.8643060  53.8931704  23.1363058  47.1610117
  53.5339069  22.4278736  47.6951361  53.1252766  23.5613060  46.7789841
  69.9396420  27.2193050   5.3101182  70.5332947  26.5435863   5.6375515
  70.3142166  28.0412102   5.6269771  15.4177284  39.9542165  27.2156000
  15.0762796  40.7310152  26.7726231  16.1740816  40.2725554  27.7083731
  49.2053986  48.2555532  42.3166370  49.5098591  47.3542356  42.4222898
  48.5199833  48.2003355  41.6507626  55.0840139   3.9096650  65.8847094
  55.0842190   4.8594734  65.7659817  54.4746780   3.7587491  66.6073179
  72.4196053  30.6415129  28.8083792  73.0397558  31.3611913  28.6912966
  72.8768158  29.8733115  28.4662414  45.2314806   8.7214971  43.1284094
  45.7872009   9.3624312  42.6850080  44.5434093   8.5213548  42.4937916
  83.1208992  42.4151897  43.0891800  82.4381828  42.7272320  43.6831141
  83.7348461  41.9469500  43.6549044  65.4556227  13.0307722  49.1265106
  66.2395287  13.1664264  48.5942316  65.6306124  13.5092103  49.9368811
  59.9068785  47.9293108  33.3705044  59.9125242  48.0654287  32.4230504
  59.0770674  48.3071756  33.6618209   8.9053094  48.1276417  69.0670824
   9.3613100  47.5338554  69.6635008   9.4247037  48.1053257  68.2633638
  86.9335461  35.5342197  50.7252550  86.9080162  35.0281119  49.9132013
  87.7677250  35.2960420  51.1297989  77.5536108   4.6936449   1.9018188
  78.1211710   3.9236060   1.8679622  76.8110132   4.4686812   1.3413058
  47.5589514   6.7326134  63.4863853  47.0458508   7.0183325  64.2422438
  48.2260847   7.4106795  63.3796310  49.1411543  14.7302556  69.4956160
  49.0729666  15.1362395  70.3597689  48.4003448  15.0859249  69.0047646
  86.3009167   1.0714281   4.7445104  86.2607098   1.1478947   5.6978035
  87.0547485   0.5045648   4.5812839  28.6107969  82.9042339   3.4138283
  28.8269949  83.7345695   2.9895225  27.6659060  82.9489326   3.5601771
  83.1465721  40.1057005  27.0860100  82.5663376  39.7756839  26.3999677
  82.5874615  40.6672812  27.6229119  19.4069982  14.8802757  61.9850874
  19.0544319  14.6072841  62.8320837  19.0203154  15.7422805  61.8312836
  48.4558344  86.0252380  57.1538734  49.1271448  86.5597439  57.5780058
  47.6286840  86.3613605  57.4989367  82.5804234  24.3267417  59.8620081
  82.3923302  24.2036176  58.9315796  83.4479332  23.9410686  59.9840784
  62.4771214   0.7781184  49.2471933  61.8486261   1.4900592  49.3670511
  63.2895041   1.2160199  48.9932060  41.2429810   7.9955584   6.3104266
  40.7508039   7.7066249   7.0788747  41.9567108   7.3626667   6.2312490
  74.1654634  36.9430757  36.3213968  73.4907007  37.3951745  35.8149028
  74.4032812  37.5631690  37.0107102  51.7724562   4.6944267  63.0206919
  51.1939096   5.4567146  63.0415010  51.3007736   4.0222567  63.5125637
  59.0237570  17.6216078  34.5531583  59.8408651  17.8468430  34.1083694
  59.1562986  17.9076791  35.4569435  22.2627258   2.1650939  48.8613701
  21.8821263   2.8861246  49.3628597  21.5094543   1.6480632  48.5759020
  17.3894107   5.1201445  24.3359923  16.4494801   5.0856906  24.5136905
  17.4826145   5.8023983  23.6711073  58.4658670  25.1051426  26.2136793
  57.6682854  25.2276325  25.6988072  58.1673145  25.1121330  27.1231008
  71.5762329  28.0284667  35.6562853  72.3991489  27.8858089  35.1886392
  71.5793753  28.9621282  35.8672333  71.8117094  33.3056188  47.4773550
  71.4058065  32.9711795  48.2771206  72.3562336  34.0355158  47.7722788
  65.9503174  23.3484125  39.9467015  66.5087366  23.7334132  40.6221104
  66.4633179  22.6189494  39.5989323  46.1021280  22.7889967  15.6908524
  46.3424778  22.8379273  14.7656131  46.3733244  23.6322308  16.0536790
  89.5155239  49.7560120  14.2761648  88.6865807  49.8967075  13.8186824
  89.2755890  49.2619896  15.0601315  45.3431845  27.2361588  11.9533026
  44.4421053  27.3479319  12.2562754  45.6587315  28.1277895  11.8061304
  81.1948586  23.4886289  50.6099463  82.0863628  23.8370681  50.6169939
  80.8791256  23.6564422  49.7220421  83.6817169  29.4688630   8.1158429
  84.1627407  29.1509986   8.8799149  84.2029858  30.2041149   7.7934933
  64.4391775  29.6509314  39.5845294  65.3041887  29.5540690  39.1862798
  64.1979790  30.5615664  39.4148254   8.3795285  71.0324621  43.9459562
   9.2930132  70.7920313  44.1007805   7.8742373  70.3328276  44.3599939
  72.6813984  34.4913507  15.2465916  72.6704168  34.4531941  16.2029672
  73.5193872  34.9016309  15.0328648  69.0895033  35.1284790  60.1855469
  68.1575918  35.2150655  59.9848747  69.5339012  35.5154324  59.4312191
  79.8281670  31.0573483  54.8586559  79.3935633  31.3579202  55.6567812
  79.3447638  31.4802313  54.1489220  35.6790113   7.8032368  42.5320244
  36.4008760   7.5674260  41.9493246  35.2106452   8.4952784  42.0651817
  53.6825848  82.7537727  33.5653734  53.1986570  81.9285774  33.5321212
  54.6025753  82.4909496  33.5932255  64.1668177  22.4925804  46.0906744
  65.0537539  22.8374124  46.1939526  64.2199087  21.5938234  46.4157104
  26.8281603  46.3920879  13.8426292  27.1294928  45.4840851  13.8737142
  26.5048361  46.5675306  14.7263217  67.2570133  21.9934464  15.0731957
  67.1114302  22.5429034  14.3030417  66.9208717  21.1334610  14.8208725
  67.5350523  82.5892448   4.6478292  67.0452929  81.8725967   4.2443660
  68.2713699  82.7396965   4.0550077  51.5147829  11.8742120  35.6743956
  51.7538309  11.3031328  34.9443579  52.3238754  12.3376024  35.8908796
  84.4884396  36.0714388  59.7472286  84.5376301  35.6454730  58.8914490
  85.1966381  35.6738043  60.2537584  41.0002470  21.6660333  19.4330907
  40.0734949  21.4346218  19.4948459  41.0367346  22.3258138  18.7405670
  36.6779017  84.2034054  49.6564960  36.2222219  85.0435257  49.7091532
  36.5669322  83.9273453  48.7467098  70.9009695  51.0321569  47.2438478
  70.3135872  51.4989805  47.8382301  71.7724657  51.1610031  47.6181746
  72.2342396  45.9071207  47.1346664  72.1318817  46.2023258  48.0394363
  72.2877073  46.7148209  46.6237926  73.4797430  22.5146699  35.9624648
  73.3199406  23.3120346  35.4575849  73.8725138  21.9082856  35.3345633
  16.7995989  17.7349222  57.2725630  17.0851171  16.8213391  57.2638702
  17.2603250  18.1368661  56.5360785  77.2347069  25.5185938  49.2283773
  77.1547794  26.0471511  48.4343576  77.0882511  24.6197867  48.9335442
  73.1235504  26.4457154  57.1258783  73.2637548  27.3772097  56.9558954
  73.8766718  26.1827826  57.6549339  36.0993314  10.1808536  30.9416270
  35.7855463  10.6892288  30.1937461  36.1334991  10.8104527  31.6618133
   6.2417716  29.6644139  22.4578476   6.8822062  28.9892960  22.6820993
   5.8183366  29.8784590  23.2891846  41.9433165  21.1659265  41.6679430
  41.6518164  21.6611123  42.4334860  41.1337757  20.9073281  41.2274885
  49.5503569  33.7772584  19.5668149  48.6056185  33.9156747  19.4994724
  49.9352932  34.5953918  19.2526209  70.4415512  31.2119198  71.9695711
  70.0469971  30.6749773  71.2823677  71.2943459  30.8076668  72.1294212
  17.2511828   4.3835336   4.7209799  17.0310438   5.3004318   4.8855036
  18.1686568   4.3067813   4.9828604  78.3812428  18.0639672  62.3837852
  78.3178616  17.4094748  61.6881847  78.5718489  17.5569999  63.1730127
  48.1629133  47.4047136  36.1458802  48.4870720  47.2194910  37.0272684
  47.2541857  47.1041775  36.1568236  39.7979975   7.5023490  49.2910910
  39.8250914   7.5564456  50.2463770  40.4247379   8.1628817  48.9959192
   7.5586617  19.8954010  26.5057421   6.6836321  19.7102749  26.1647367
   8.0406535  19.0772080  26.3854289   3.2717088  82.6132870  42.4115133
   4.0880051  83.0603313  42.1878147   2.7576166  83.2724857  42.8777742
  56.4140797  29.2403364  57.7204990  56.1674833  29.6363068  58.5563421
  56.5757370  28.3203793  57.9297256  54.8705578  32.2886848  43.1064177
  54.5115662  32.3270655  43.9929199  55.3187895  31.4438915  43.0658913
  76.2232924  42.2837019  52.8096485  76.2906742  41.3925219  53.1524181
  76.2269497  42.1754408  51.8585968  37.0319700  75.8097219  34.5540452
  37.9589224  75.9413862  34.3549061  36.6421342  75.5503321  33.7191939
  63.4789038  20.1045489  59.0687132  63.8606262  19.2656922  59.3272495
  62.7103996  20.2014637  59.6310663  89.6258163  39.8555136  61.2281418
  90.4217911  39.8311090  60.6970549  89.9367523  39.7727108  62.1296406
  56.6783571  13.8676083  34.5809078  56.3851261  14.4829512  33.9088964
  57.1937418  14.4012153  35.1857853   3.1273988  47.5769615  46.7782354
   3.9094889  48.1263685  46.8303728   3.3499911  46.7948866  47.2832537
   7.2407937  29.0624642  27.8849673   7.0408303  28.4453559  27.1811056
   7.3313975  28.5150170  28.6649203   4.8039016  30.0031471   9.1232103
   4.4672543  29.9297857  10.0162494   4.0648347  29.7556448   8.5675538
  90.6272125  22.5408387  13.8865221  91.5730762  22.5839353  14.0268981
  90.5311489  22.1336532  13.0255902  59.2477131  52.9977846  25.5665922
  58.6979294  53.7141323  25.8841109  58.6420822  52.2664404  25.4458618
  14.3871593  79.3903685  10.5817735  14.1099811  80.2565479  10.2832294
  14.2477965  78.8204241   9.8254830  67.7458286  31.9086242  43.6709642
  68.2663822  31.3774538  44.2735529  67.9389429  32.8123736  43.9203167
  26.5210438  86.5409279  57.7620029  25.6583118  86.6870689  58.1500340
  26.3492823  85.9945869  56.9950342  60.5054188  34.9333692  29.5588851
  60.4195404  33.9801383  29.5444942  59.6060419  35.2557850  29.5005441
  48.5845327  55.6125498  69.8761415  48.2775497  56.1779022  70.5849266
  47.8239727  55.5116129  69.3037844  67.7898693  39.6520233  31.4362979
  68.2594633  39.9936581  32.1972179  67.9577446  40.2916288  30.7442331
  59.5881844  37.2562313  26.8495440  59.1072893  37.5322509  26.0692978
  59.9784803  36.4168692  26.6058874  45.1688051  83.8101959  15.9735429
  44.6290350  83.5811710  15.2169502  45.8226871  84.4169521  15.6264007
  67.2250366  18.0976939  66.4725494  66.7063522  18.6060405  67.0960760
  66.7070436  17.3077404  66.3180017   1.3197638  16.4940774   8.4899431
   0.5518943  15.9383345   8.6232013   1.9724372  15.9116304   8.1013495
  61.8185854  55.2598715  42.1955729  61.9663572  55.8779335  42.9113913
  62.0015812  55.7636690  41.4025211  79.2266941  52.7482748  48.9196634
  78.8588428  52.8872871  49.7923517  78.8622999  51.9095039  48.6369705
  67.4924803  57.0539808  41.0545588  67.5418329  56.5900373  40.2187634
  68.2717514  56.7701006  41.5324497  40.5216789  27.1477485  21.0163355
  40.3194809  26.4672565  21.6584253  40.4337502  27.9683304  21.5012503
  72.3792219  29.1944218  47.0797539  72.3092794  28.4528303  46.4786005
  72.4413681  29.9603510  46.5090322  25.2254295  37.9476762  74.8232317
  25.1066756  36.9978809  74.8279238  24.3357205  38.3003736  74.8391247
  65.7636166  72.9879475  52.6815557  66.3600492  72.2477961  52.5690031
  66.2670040  73.7477970  52.3892164  81.8860340  47.9086018  38.8944936
  81.8232536  47.7693129  39.8394203  81.0356712  48.2731390  38.6491060
  29.3951988  84.2781734  67.4123430  28.4785271  84.3168259  67.1394920
  29.3966603  83.6850929  68.1636620  76.0358572  37.5349379  24.4307733
  75.6962824  37.2768855  25.2877045  76.1059809  38.4883904  24.4781423
  61.6483831  31.7696142  33.1532812  61.4818430  30.8433032  33.3277631
  62.2286510  32.0463705  33.8624573  61.2235498  23.3789229  57.6895046
  61.7329693  22.7126122  57.2282553  61.7964172  24.1454411  57.7119493
  75.8146095  39.3420911  53.8044214  76.7198515  39.5626831  54.0237474
  75.8892632  38.6595654  53.1374741  66.3565636  26.9585919  34.6612573
  66.1525440  27.8536630  34.3902326  66.4987898  27.0208716  35.6057811
  18.2137418  22.6531053  45.8725166  17.8137517  22.4181509  45.0352383
  18.9490199  23.2186460  45.6363726  67.7616167  27.3974109  37.0254183
  68.1752205  26.5432954  36.9003057  67.3685312  27.3478436  37.8967738
  64.7324085  31.5076852  17.3775423  65.0992060  30.8062315  16.8393505
  64.5176792  31.0844541  18.2088053  58.9044094  29.4033313  53.1778193
  58.0113554  29.3313289  53.5147238  59.2966843  30.1115322  53.6885071
   1.0163858  43.0086946   0.8615059   1.0016420  42.2263813   1.4128666
   1.4761903  43.6634350   1.3869929  87.6818943  31.0657573  43.2205963
  87.6115417  31.3965154  42.3251200  86.9099903  30.5108476  43.3322954
  65.8464146  62.1461821  15.0994456  66.5252447  62.6083469  15.5912006
  65.9637547  62.4392653  14.1958058  65.0187111  46.8440199  16.8518806
  64.5108795  46.7857885  16.0425925  65.8708668  47.1817017  16.5761375
  59.7578049   7.2918892  57.4618912  60.4366732   6.9145614  58.0213451
  58.9997482   7.3898941  58.0380630  50.6994534  42.2656631  39.9093604
  51.5547752  42.1764946  39.4889951  50.7527256  43.0931044  40.3876257
  85.9458160  35.5063462  22.2485614  85.4497814  36.1782455  21.7808676
  86.7908764  35.4767537  21.7999840  35.5293083  53.6669254  13.2401800
  35.6791592  54.4911623  13.7032282  34.6877503  53.3549023  13.5728276
   3.4330785  56.2948084  14.4743884   4.1578153  56.9142342  14.5598269
   3.4313503  56.0545158  13.5478425  50.7468653  18.7040174  39.3588400
  51.0614300  17.8745091  38.9994049  50.8695698  18.6173081  40.3041744
  84.8802185  41.1007071  63.8137627  84.6127605  41.7076826  64.5038939
  85.7118130  40.7399130  64.1211700   8.0011296  51.1048269  39.2020941
   7.9449505  50.1500607  39.1633105   7.4266905  51.3492727  39.9276948
  11.8751192  59.1454649  40.7682419  11.3461137  58.9619255  41.5445757
  12.5846350  59.7026777  41.0881376  65.0227928  41.0614395  45.3094482
  65.1181030  40.9397125  44.3648195  64.4024658  41.7852449  45.3962898
  90.3886127  26.8872309  21.0345769  91.2861061  27.0880842  21.2998915
  89.8730469  26.9935083  21.8340325  81.8516731  19.0854800  40.5010319
  81.1039162  19.1814578  41.0908461  81.4837170  18.6918294  39.7099042
  63.2852077  42.9792833  46.2418652  63.5528946  43.7474298  45.7373619
  63.1181002  43.3169746  47.1217918  88.7909508  86.1152458  35.1689696
  89.0053558  86.5574074  35.9904003  88.6867714  85.1953506  35.4122329
  82.0273876   6.8681514  34.4661355  81.4018822   7.5396186  34.7383428
  81.4988804   6.0770661  34.3608284  33.1081796  10.5120814  15.5094707
  33.9064860  10.1651597  15.1112437  32.6358604  10.9194946  14.7834122
  63.2718801  67.1543217  18.4819758  62.9975700  67.8620577  19.0651500
  64.0893745  66.8334770  18.8627553  71.7988729  29.8056746  18.9537239
  72.0719814  30.1318669  19.8111868  72.3002815  28.9992309  18.8334334
  56.4761877  84.2961407  21.1690760  57.2628021  84.3526077  21.7115498
  56.7645836  83.8458824  20.3751421   1.3040869  45.1638508  16.4352906
   1.7669995  44.3883514  16.1181998   0.7090908  44.8298311  17.1065891
  17.9151273  37.6880717  28.8267612  18.6796486  37.1638012  29.0652537
  17.2360635  37.4159241  29.4440460  61.0643816  54.7846794  10.9045482
  61.0119486  53.8606834  11.1489034  61.3746357  55.2245188  11.6960776
  62.2066879  18.9804947  49.1742706  62.2670221  18.1432009  49.6341944
  62.3282433  18.7562823  48.2516718  72.9195023  36.6993952   4.2981780
  72.7328205  37.6351190   4.2219892  73.3232117  36.4668465   3.4620154
  63.4654427  40.0539494  48.5456944  64.2335749  40.6216955  48.4835339
  62.8842020  40.3603125  47.8496122  12.3934162  36.1739469  41.1732435
  12.4250257  35.2275681  41.3132524  11.6736472  36.4742589  41.7282009
  68.7137079  27.4867463  48.9234591  69.2168093  28.2647419  48.6829615
  69.3455887  26.9203663  49.3663788  61.6392183  29.3438721  39.5363975
  62.4446058  29.6133375  39.0948391  61.0716772  30.1132703  39.4899631
  84.9500465   4.3886751  45.1179647  84.8820019   5.2553427  44.7173500
  84.8262691   3.7783945  44.3910027  58.1640291  43.4686708  24.3144393
  57.4500227  43.0840540  24.8228621  58.8917732  43.5314846  24.9330449
  66.2861300  20.8692002  38.7038088  65.6778383  20.1319766  38.7558889
  66.6174650  20.8433771  37.8061557  81.7912006   2.7142167   3.2596916
  81.2181091   2.4331446   2.5463903  81.4567375   3.5752904   3.5105211
  56.5074110  44.1466951  14.9981117  55.8670855  43.6362076  14.5025110
  56.2052059  45.0514984  14.9191785  42.0107317  42.2620296   9.1611159
  41.7019129  41.7294741   9.8940879  42.7975655  41.8123150   8.8530946
   2.6676765  26.8629456   4.2945331   2.5518051  26.5112352   5.1772028
   3.5771385  27.1606684   4.2728177  83.9438343  26.1002851  52.8839111
  83.1788445  25.7517529  53.3416796  83.9087772  27.0435715  53.0427074
  74.8449850  38.9126348  57.8935814  75.5201721  38.2750654  58.1256628
  75.3216648  39.6173811  57.4550152  31.2497497  76.9400787  59.0902805
  30.9424329  77.4334717  59.8507786  30.4689264  76.8232632  58.5490751
  55.9758329  40.5812883  35.2968597  55.5920601  40.6544161  36.1707044
  55.2230740  40.5112982  34.7097611  77.9888630  28.4222102  29.3189573
  78.3906221  29.0920591  29.8722434  78.6648464  28.2046628  28.6771226
  46.6619396  61.2371254  18.6954033  46.5632772  62.1377277  19.0042889
  47.4210691  60.9020710  19.1725767  76.6797495  33.0059958  22.4495935
  76.7033625  33.9620090  22.4909878  77.2913027  32.7216721  23.1288528
  71.6532135  34.9554467  18.0671954  70.7083035  34.9056458  18.2117498
  71.9884777  34.1166306  18.3837640  52.5998354  58.0907249  43.9328241
  52.2045088  57.2529268  43.6918974  53.3161783  57.8566456  44.5229816
  67.6973104  27.6411009  22.6877141  67.1847010  27.9925799  21.9597530
  68.1052828  28.4097195  23.0864787  53.2435942  25.8733130   5.0300443
  52.4817562  26.2296581   4.5730409  53.3744192  26.4624739   5.7730144
  53.3079100  65.5159664  40.7312393  53.0418682  64.9231529  41.4341116
  53.3257627  64.9660206  39.9479938  82.0612526  40.7587194  36.1409950
  82.2672367  39.9303913  36.5742111  81.9377708  41.3800764  36.8585587
  68.6361694  34.5586419  25.2714872  69.0097618  34.2300391  24.4537592
  69.2778349  35.1935649  25.5898666  28.1622887  26.5146732  33.8746643
  27.4106669  25.9431815  34.0318084  27.9933572  27.2865677  34.4149184
  10.6023502  44.6242142  35.4345345   9.7960359  44.1249418  35.3048730
  10.8834398  44.3991280  36.3214159  65.3562450  24.3577361  24.1247177
  65.8505821  23.8295341  24.7515106  64.6432829  23.7862158  23.8396239
  85.5525589  54.8856831  21.7297482  86.2466335  54.9239969  21.0717058
  84.7424221  54.8470592  21.2213993  51.4999437  12.5611138  47.0375729
  51.3222361  12.1886420  46.1739111  50.6605339  12.9252517  47.3186970
  80.2599144  41.0550737  54.3155575  79.6859169  40.3571558  54.6312571
  80.5971050  41.4662695  55.1114559  58.2534027  18.2298815  24.5020986
  58.9061213  18.3811522  25.1856971  57.9498291  17.3349988  24.6546102
  13.7378991  43.6922932  24.6484876  14.4759727  44.2776775  24.8182034
  14.0571463  43.0939865  23.9729548  78.7639618  15.9392428  35.2230000
  78.1804943  15.2479470  34.9100947  78.8263845  16.5504384  34.4889855
  49.7930145  41.1250973  10.1096785  50.6550217  40.7107067  10.0715184
  49.2612743  40.6295967   9.4868135  58.6332226  24.3353510  31.6124916
  59.4722652  24.7248030  31.3663816  58.3435917  23.8734722  30.8257198
  58.7324238  84.8730755  37.3401022  57.8633356  84.9652386  36.9496846
  59.2738962  85.5086231  36.8719983  52.4449015  25.3085208  29.1952443
  53.2198763  25.3106546  29.7570610  52.0224905  24.4681692  29.3730426
  80.4496574  37.5723195  43.4633064  80.4187870  38.3376527  42.8892469
  80.5904579  36.8339348  42.8706884  84.0086555  24.2117620  28.8959622
  84.5779991  24.1360831  29.6616936  83.1327629  24.3391562  29.2604065
  69.0371466  66.6193676  38.4803724  69.4214535  67.2463465  39.0931058
  68.0926657  66.7496586  38.5652685   0.7283902  69.4488525  64.8476410
   1.5227485  69.5651102  64.3263817   0.7958875  68.5581684  65.1916742
  53.1830025  54.9917030   7.8741235  53.8431263  55.6514835   8.0866367
  53.3640099  54.7562170   6.9641709   8.7666482  80.0549221  67.6433086
   8.0369192  79.6520185  67.1727800   9.0125388  79.4072247  68.3038092
  78.7234926  45.0825071  68.0512094  78.7967730  44.5363760  67.2685242
  77.7814674  45.1992941  68.1744289  77.2922564  56.5161753  40.9360027
  76.8068981  57.0601273  40.3156996  76.8828440  56.6948080  41.7825890
   4.6454382  24.4219565  37.8328156   4.8790714  23.5085297  37.9980302
   5.4325902  24.8040891  37.4447465  83.8867950  52.6651096  42.1502209
  84.8364925  52.7227497  42.0454168  83.6477852  53.4679270  42.6134634
  64.4539452  31.2363887  11.1994517  64.7614765  31.4758992  10.3252149
  63.4999657  31.2222552  11.1222351  72.2386360  40.6706381  15.0938976
  71.3034916  40.4663372  15.0932634  72.6685333  39.8254299  14.9633420
  88.2096291  72.8999853  58.7020254  89.0662956  73.1850147  59.0200043
  87.6361942  73.6515331  58.8522768  58.4622431  35.4202080  39.2933893
  58.9955330  34.9573827  38.6471486  59.0979195  35.8630085  39.8555970
  36.3355112   1.6482809  74.2618608  37.2665787   1.6299745  74.0404797
  35.8877540   1.6265117  73.4161234  26.2627316  33.7404561  54.0698147
  25.7224727  34.1608214  54.7388792  27.1515250  34.0444469  54.2538500
  66.7924356  35.5412531  58.2814980  66.6630268  35.9595299  59.1326904
  65.9248972  35.2170944  58.0395555  11.4919281  26.0489106  54.6740341
  11.3079095  25.2074265  54.2565775  10.7204747  26.2224603  55.2134562
  71.5920973  41.9361115  42.8277063  71.4782572  41.8996811  43.7774134
  72.4059439  42.4241972  42.7025843  16.0376453  47.7203226  46.1912632
  15.4743624  47.6825094  46.9642544  16.4750123  48.5693741  46.2549210
  86.8267918  25.7586670  17.3047650  86.6188812  26.3407850  16.5739155
  86.3383102  24.9567890  17.1187305  59.5517349  41.2363911  31.0140944
  59.2706490  40.3862715  30.6756878  59.6887207  41.7718649  30.2326012
  48.9256334  48.3977365  29.7102785  48.8515949  49.2927408  29.3790388
  48.7147188  47.8455019  28.9574265  12.0020020  51.2922478  25.8093643
  12.6336610  50.8780861  26.3973331  11.3840234  51.7321205  26.3931870
   9.7281826  66.6229773  68.5920525  10.2478933  67.0527506  67.9127645
   8.8353413  66.6238308  68.2469940  82.4629498  58.8593721  28.2480001
  83.2876873  59.0798378  27.8150535  82.4444675  59.4165945  29.0260720
  -0.0467673  52.6084948  47.9512215   0.1099962  51.8909502  48.5650539
   0.6674546  52.5418615  47.3174429  54.1501141  44.4260645  40.6178856
  54.7234488  45.1604223  40.3982544  54.6471310  43.9174700  41.2586212
  86.5822601  34.8630166  42.9797983  86.0744953  34.2125034  42.4947786
  85.9698868  35.5838871  43.1267214  83.9334869  58.2701540  16.9251096
  84.4981670  58.3211422  17.6963198  84.4406605  57.7646780  16.2898970
  31.8076086  28.1541491  23.5531688  32.5978279  27.6429772  23.3785629
  31.2472177  27.9958367  22.7934766  51.4575481  26.4939737  51.5609455
  51.8930769  27.3462296  51.5753889  50.5554104  26.6815925  51.8201303
  88.6916161  49.1943121   6.2286937  87.9297543  49.6643019   6.5676743
  89.3156528  49.8831224   5.9998721  61.2551498  84.3723011  27.8268361
  60.6180334  84.9314022  27.3821855  61.9636011  84.9664593  28.0744267
   9.2256373  30.3196931  26.3799524   8.4115595  29.8665237  26.5993762
   9.2322969  31.0892391  26.9491482  76.5935993  57.7280951  29.4522715
  75.7295799  57.6989079  29.8631907  76.9059324  56.8239450  29.4868541
  80.8125019  50.8314276  25.9966993  79.9482059  50.7706594  26.4035511
  80.7410908  51.5697956  25.3917670  82.3105717  27.9905581  25.9929490
  81.7882252  28.5261106  26.5900850  83.2124043  28.2735658  26.1440730
  48.0350542  61.5978718  59.8857784  47.1124792  61.7535400  59.6836472
  48.2301092  62.2064400  60.5984020  70.1578856  54.7821617  27.2270393
  70.9840488  54.9317074  26.7673373  70.3054619  53.9815712  27.7305341
  40.7568598  43.5737419  23.9130974  40.3284788  42.8304482  24.3376327
  40.0355959  44.1072273  23.5793185  85.6747437  43.6160326   5.3288907
  86.5369797  43.4259319   4.9592501  85.2208900  42.7732849   5.3238666
  74.3688107  21.3270092  21.7333126  73.6180305  21.0428309  21.2119627
  73.9926720  21.8969917  22.4040341  66.8004751  27.1482038  39.4968724
  67.7101183  27.1105623  39.7924447  66.3033676  27.3817039  40.2808332
  66.4913368  58.9150715  42.6683664  66.9750118  58.5217714  41.9420052
  66.4535904  58.2261848  43.3318710  60.2172756  37.6011515  45.1622963
  60.5338335  38.4671926  44.9054050  59.6767807  37.3155141  44.4257450
  86.2917519  22.5337410  42.0352411  85.8088493  22.3702884  41.2251043
  86.7101383  21.6969609  42.2376776   3.1170312  77.6941156  39.6195269
   2.7798891  78.5811377  39.7450542   3.6810327  77.5426912  40.3779507
   5.2465945  21.8268704  38.0937099   4.4692147  21.6559148  38.6253905
   5.6417763  20.9648871  37.9631472  47.0538664   5.8769298  13.4176171
  47.7345753   6.0306346  12.7624536  46.6950607   6.7456919  13.5985649
  83.9098167  48.8599730  41.7076302  84.6915531  49.3181562  42.0161629
  83.5424900  49.4371319  41.0381651   8.9305824   0.9523767  33.4507513
   9.5602435   1.6715825  33.5007715   8.8990027   0.7259005  32.5212669
  71.2269974  25.7180214  11.8472075  71.8610954  26.2831283  12.2885752
  70.8985281  26.2480831  11.1210012  84.3901348  68.9936018  42.9147720
  84.4691944  69.4205809  43.7678099  84.9882221  69.4798183  42.3472166
  72.8119469  46.0608006  70.9662199  72.7573967  46.8055773  71.5650272
  71.9004822  45.8430672  70.7711363  42.7895689  43.8368654  28.3463836
  43.4242868  43.9922142  29.0458345  42.2168159  43.1515074  28.6905813
  39.3270493  79.5167828  14.3989789  39.7561455  80.0318336  15.0822270
  39.9739671  79.4661856  13.6952949  91.3288116  44.3221855  51.8361759
  90.9869480  44.3768835  52.7285719  91.0553169  43.4584045  51.5274429
  81.7027283  34.4984031  35.8152008  81.9592381  35.1348853  35.1478767
  80.9322262  34.8849702  36.2312818  62.4024534  35.2292824  15.3946090
  63.0289412  35.2941322  14.6738160  62.8853273  34.7866178  16.0925436
   5.5518186  42.5777435  30.5578685   6.4421433  42.8483677  30.7821822
   5.6645924  41.9543314  29.8403239  90.6568432  58.3207560  14.6039331
  91.3351154  57.8865957  15.1213145  91.0644913  59.1354132  14.3100154
  58.5399914  46.8193150  21.1365080  58.8059616  46.6781282  20.2279067
  57.9650354  46.0803175  21.3353586  78.7322760  25.8366585  35.5996251
  77.7940750  25.9982157  35.6991816  79.0461588  26.5680552  35.0678635
  69.2284346  53.6983490  30.1202559  69.0628052  53.7058544  31.0629869
  68.3748960  53.5131693  29.7285819  82.6560593  18.7905359  32.9957771
  82.8581905  18.5811281  33.9076591  82.4595642  19.7273219  33.0030441
  79.7835541  76.6905069  28.5124278  79.0965414  76.5988016  27.8522468
  79.8101759  75.8396864  28.9501834  89.6138382  29.3720078  51.7517853
  89.0835953  30.1652479  51.6753244  89.0169334  28.7192416  52.1176052
  52.7666521  78.3817530  73.8143301  52.4393988  78.8040781  73.0201101
  52.0357656  78.4312010  74.4304419  82.2775841  75.0126791  40.7730532
  82.2369576  75.8336973  41.2634706  81.3746166  74.8526430  40.4986906
   8.9443272  69.6707392  17.5894582   9.6324301  70.1693344  18.0300832
   8.9680958  68.8095188  18.0065548  91.2071323  13.0642116  38.0308914
  91.9465542  12.4607182  37.9581213  90.4420853  12.4959505  38.1203580
  52.4626732  54.3660784  35.2922416  52.6474953  53.9134550  36.1151671
  53.2296753  54.1931868  34.7462964  49.2561388  77.9574442  33.5623670
  50.0550032  78.4446001  33.7641740  49.0203094  77.5320435  34.3867755
  75.0582886  48.5763741  31.0549474  74.5997810  48.3246279  30.2533054
  75.7835293  47.9551935  31.1211967  79.9117374  53.7889242  12.2530365
  80.6636524  53.3060026  12.5960302  79.2224503  53.1301928  12.1682334
  70.8811951  10.1370156  26.2069845  71.4083385  10.5480611  26.8921041
  70.8128643  10.8045912  25.5244112  66.9921637  63.1351089  36.8033004
  66.6856050  62.6615858  37.5766230  67.8092146  63.5476875  37.0833611
  66.9976237  10.7021462  -0.0136508  67.5272479  11.4832293   0.1464663
  66.1661669  10.8824955   0.4249678  65.9331322  41.4327240  42.7452087
  66.7584181  41.9174147  42.7306890  66.1589670  40.5651379  42.4097586
  48.8351917  53.8466406  17.2349322  48.7068653  54.1975403  16.3536644
  47.9738188  53.5149765  17.4884498  87.4074745  38.4200478  33.7061381
  87.4199104  37.4634337  33.7372208  88.3164597  38.6765814  33.8615775
  65.1051903  11.4203894  74.8780680  64.3333626  11.7594588  74.4246912
  65.2977610  10.5929363  74.4370842  33.1292486   1.4979172  13.1369305
  32.4782300   1.2476143  12.4813735  33.9704323   1.2866253  12.7319634
  72.1726036  30.7180381  31.8550062  71.2588310  30.4346704  31.8859148
  72.4038982  30.6800199  30.9269500  62.6333570  64.6714306  20.2218699
  62.3486185  63.8284445  19.8689783  63.5779810  64.5740461  20.3419757
  49.6798611  15.7579815   8.8059485  50.0427008  16.6348779   8.9309770
  48.7438917  15.8591378   8.9790398  62.9026413  47.4100924  34.1278934
  61.9999647  47.7140760  34.2227554  62.8248453  46.5600538  33.6947417
  60.0638056  28.7642980  50.8354568  60.8178282  28.3915067  51.2923050
  59.5319414  29.1539192  51.5293932  55.3013325  20.1428628  63.5298061
  54.4305277  20.4682064  63.3015871  55.4338598  19.3893766  62.9545450
  68.3941317  13.0293417  55.4061890  68.0210543  12.3407602  54.8558283
  69.3174362  12.7923834  55.4933405  60.7082367  47.8401995  24.9867177
  60.9694672  48.7610626  24.9883533  61.2311363  47.4416637  25.6824064
  52.7284956  28.3227682  21.9869542  52.9615498  28.0702543  22.8803492
  52.2828341  29.1642642  22.0844388  45.1030827  22.4066329  40.8537769
  44.3637800  22.7874112  40.3797770  45.7115555  22.1320105  40.1677942
  86.7123127  34.4940519  47.7654314  86.4642334  34.2214513  46.8820429
  87.5340652  34.9704599  47.6471806   6.9494969  40.2800894  46.5771389
   7.4947512  39.5578790  46.2651443   6.7859513  40.8108473  45.7975340
  55.5682468  35.3694654  48.4694386  56.3979483  35.7125044  48.8013268
  55.0410032  36.1483455  48.2916927  15.8931649   2.5366378  23.8679028
  16.6752934   2.6725355  24.4027305  15.5574977   1.6846488  24.1466045
  58.7723160  43.9035416  19.2743742  59.0703487  44.7952223  19.0946245
  58.4221840  43.9428663  20.1643705   6.5342426  10.2035475  13.9880681
   7.0884526  10.3963947  13.2318318   5.7470357  10.7299244  13.8485527
  63.8788557  20.6864190  14.0030015  64.7557211  20.5128574  13.6606348
  63.7286854  19.9892354  14.6414506  54.1821289  36.0963535  36.6447234
  55.0875664  36.3542771  36.8176198  53.9792824  36.4888024  35.7955647
  90.6705093  39.9690747  18.0545330  90.2151299  40.4982519  18.7093902
  91.3349056  40.5554390  17.6926172  67.4253464   9.2901576  42.2477436
  67.5948429   8.9716494  41.3611460  68.2248545   9.7565711  42.4916172
  61.0623693  38.9327812  50.8193254  60.8388424  39.8593593  50.9071827
  61.6455030  38.8979268  50.0610542  76.9297934  31.0278845  27.3595953
  77.2967386  31.6763878  27.9604506  77.6082611  30.3564358  27.2883940
  55.3800440  40.5560827  47.0194101  54.9489212  40.7046175  46.1778021
  55.9710979  41.3021564  47.1207142  66.0055637  27.7143216  49.6659374
  66.9410372  27.5124383  49.6467733  65.9622574  28.6616254  49.5356703
  42.2833776  85.9201431  40.4548693  42.7338886  86.7111111  40.7509136
  41.3562965  86.0997391  40.6114006  60.4912996  36.4609623  40.4090357
  61.1555338  35.8095527  40.6341791  60.1137638  36.7186141  41.2500572
  20.4087973  31.2793112   0.6000476  19.7836363  31.5845537  -0.0573969
  19.8785889  31.1272907   1.3823533  78.2554483  18.2873964  21.0069871
  78.2565355  17.5391424  21.6039371  77.8999424  19.0081227  21.5269899
  60.9309387  32.5505686  58.1550074  60.1138687  32.0520401  58.1448507
  60.9907389  32.9302955  57.2783899  60.1859140  12.7819240  14.9043977
  60.9373093  12.7464759  14.3124676  59.4247150  12.8002822  14.3243408
  50.1496172  20.8746076  13.8179374  49.8157167  19.9797142  13.8804650
  50.6464720  21.0018802  14.6261275  46.5012789   8.8236028  13.8966966
  46.5924215   9.5854670  14.4689620  46.3447189   9.1939062  13.0280221
  68.9701700  71.8912840   5.5287087  69.7912884  72.2044230   5.1493210
  68.3843517  71.7868996   4.7789395  78.5858488   1.0913741  24.4809937
  78.4561777   1.6303092  25.2613568  77.7045250   0.8106461  24.2346358
  37.5226450  12.4148703  18.6944532  36.7707634  12.9741597  18.4992635
  37.6301217  12.4805963  19.6433270  89.8237514  18.1412971  66.6803503
  89.7523022  18.3249748  67.6170444  90.0924969  17.2236669  66.6360331
  77.5000525  48.1956863  23.8131237  77.6062536  47.4119282  23.2739806
  76.5620327  48.2323980  24.0002179  66.6328478  58.5046434  18.4965193
  66.1696243  57.6964617  18.2762969  66.5892601  59.0308571  17.6981258
  23.4527731  56.3501358   5.6171399  23.3210635  55.7155609   6.3215554
  22.7122426  56.9516134   5.6950575  68.3901882  64.9530935  24.6141577
  67.6455688  64.6381950  25.1266146  69.0702248  64.2931700  24.7493815
  58.8824368  39.7588253  20.1215911  58.8977098  40.1762390  20.9828496
  57.9901743  39.4236016  20.0336933  60.0441408  23.2581472  67.1716928
  60.9851933  23.2603550  66.9966459  59.6591759  23.7044144  66.4174509
  84.7897530  16.7308283  20.6738591  85.2266979  17.2967279  21.3103080
  85.3959846  16.0011554  20.5462313  89.4395065  42.5979090  50.3949594
  88.9986801  42.6551914  51.2426710  89.1268158  41.7757463  50.0174570
  45.9929276  30.0063658  34.0921712  45.5072546  30.5670500  34.6971440
  46.6983128  30.5635047  33.7631440  66.5269184  17.8970063  33.2389665
  66.2634468  18.6456013  33.7741470  66.1664343  18.0836129  32.3720980
  78.9910555  70.5312586  21.9314837  79.4712162  71.2369919  21.4983368
  78.7039566  70.9113216  22.7617598  18.2505965  41.3781118  54.4387960
  18.6194479  40.9846735  55.2296114  17.3324192  41.5382576  54.6568251
  90.5346107  62.4750662  32.3901153  90.9948158  62.7568293  31.5995145
  89.6917534  62.1500111  32.0736241  86.2118149  54.2196369  63.0723858
  86.1206150  55.1383781  63.3250380  85.4255676  54.0331554  62.5592852
  89.6112251  29.2523432   3.3341384  90.5104351  28.9319301   3.4047410
  89.3556976  29.4493175   4.2353255  57.1527767  82.4565220  52.1894169
  56.6992569  83.2808685  52.0133114  57.5099230  82.1936703  51.3411331
  75.1706362  55.1605320  35.4876161  76.1066914  55.2013445  35.6835055
  75.0161839  55.9009933  34.9010253  67.8051901  35.1097798  65.6148672
  67.0971870  35.6237149  66.0032415  68.4874773  35.0963783  66.2860870
  85.0650978  73.7168121  25.6329203  85.3518963  73.0744410  24.9838161
  85.8706856  74.1530371  25.9103537  58.9706993  68.5252476  60.4704523
  59.5602322  68.7996578  61.1728621  59.3261814  68.9391851  59.6839905
  80.7137012  43.8268328  20.4937387  81.5558624  44.2314005  20.7018709
  80.8397865  43.4444284  19.6253502  55.1409197  40.1645184  25.1384521
  54.7820139  39.3295574  24.8380232  55.7431650  39.9265838  25.8433771
  21.4892817  39.6771240  45.1659250  21.6541052  40.5175686  44.7384691
  21.3082337  39.0734339  44.4455004  90.4192162  63.4809256  28.4978104
  90.2593517  62.7324104  27.9230094  89.6430206  63.5241270  29.0562773
  25.9976482  86.0912991   9.9081403  26.3744473  85.2167606  10.0053465
  25.3056717  86.1287022  10.5684435  11.5553606  17.5773215  38.7408018
  12.3855317  17.9229653  38.4128118  11.2387121  17.0086062  38.0389977
  13.9508247  48.2910490  40.2835560  14.3767500  48.6896133  41.0424805
  14.4731688  48.5813999  39.5358348  34.7507215  13.5964727  71.4482260
  34.1614532  14.3483448  71.5089273  34.8983145  13.4830296  70.5093050
  86.6747284  74.7666883  18.6794960  85.8717346  74.5821810  19.1667211
  87.0333576  73.9035320  18.4731507  77.4166965  42.6939011  71.3716698
  76.7512703  42.9400110  70.7291174  78.1911421  43.1964970  71.1189508
   5.6950557  69.1689920  25.0686526   4.8384234  68.7736464  24.9070573
   6.3227516  68.5103464  24.7713017   0.8046241  30.4617810  23.1364393
   0.4829581  30.2278709  22.2657800   0.8610979  31.4172077  23.1222129
  78.2845449  42.0571756  39.4636035  79.1249609  42.4929333  39.6052074
  77.7613974  42.6969528  38.9806628  61.6431427  73.1185055  14.5683038
  61.1506557  73.8391113  14.9612606  62.4944305  73.1439018  15.0052178
  73.6460829  72.1515560  22.8201866  72.7813482  72.4259424  23.1254387
  73.5590982  71.2104368  22.6686788  75.5237150  42.7751875  43.1430149
  74.9863577  43.2140255  43.8024902  76.1883450  43.4221268  42.9064417
   2.7386954  79.9199057  45.8658409   2.0818722  79.5561504  46.4595556
   3.3186069  79.1839027  45.6703138  87.0110035  44.2149258  57.3136568
  87.8834343  44.1699600  57.7049160  87.0641613  44.9414253  56.6926813
  80.5920887  28.0285096  48.9072704  81.0916996  28.5690141  49.5192146
  79.7602415  27.8686070  49.3530130  71.1039400  74.1794634  42.8963757
  70.6236649  73.3574152  42.7973318  71.9727421  73.9936829  42.5401402
  75.4354572  28.0513906  51.9523573  76.3129091  27.7587295  51.7060614
  75.0877094  27.3397875  52.4898767  14.8263705  45.6173086  10.1802778
  14.5732450  46.0417128   9.3604970  15.1370037  46.3331604  10.7346213
  67.1931839  37.3403215  19.3645608  66.7077255  37.7530980  18.6502934
  67.4041080  38.0607247  19.9584973  88.0136967  32.3911428  20.2083564
  87.5246429  32.4117827  21.0309291  87.3396778  32.3977494  19.5287395
  18.0729222  53.4321499  22.3929310  18.3807492  52.5445127  22.5761509
  17.2074437  53.4742403  22.7996373  62.0904207  62.5245476  23.1331968
  61.4262486  63.1404305  22.8236914  62.2769308  61.9719839  22.3741698
  18.3854401  38.0329275  32.4131322  18.5843229  37.5329161  31.6215086
  18.3572233  37.3771644  33.1098461   2.8527069  60.1779556   2.5064239
   3.0784523  60.1817846   1.5762323   3.5184222  59.6225882   2.9121637
  91.1899471  35.8233476  45.1008368  91.4355564  36.1310840  44.2283678
  90.6239700  35.0687408  44.9381208  64.6220732  73.0094290   1.2307215
  64.2502165  73.4304810   0.4556935  65.5410051  73.2773829   1.2311967
  57.3260260   5.0790894  67.8150988  57.3412180   6.0343361  67.8742933
  57.3361206   4.8971623  66.8754005   3.8924032  77.3220539  45.5838537
   3.9956167  77.5149488  46.5157223   4.6792835  77.6834440  45.1758718
   1.2096795  76.5071821  45.4653502   2.1640074  76.5812731  45.4648638
   0.9125203  77.2439051  45.9993601  58.7004471  40.1952410  15.2157950
  58.3289289  39.4039607  15.6057763  59.1698599  40.6187773  15.9344745
  60.1842880  18.3366263  47.0101881  59.9905348  17.5202584  47.4708748
  61.0574532  18.2022905  46.6417217  34.4409394  12.2588873  55.2028131
  34.5437479  13.0908155  54.7406912  35.0595069  11.6681683  54.7730970
  66.6693544  10.0035918  59.1293621  67.3678112  10.6457484  59.0027857
  65.9119511  10.3824437  58.6832142  62.7227306  75.7111597  28.8164306
  63.6302423  75.8779716  28.5618067  62.4384022  75.0025177  28.2391787
  28.3327270  47.6141596  28.9454103  28.2654572  47.7769566  29.8862624
  28.0435586  46.7080450  28.8378477  80.2398396  37.8224993  22.3894691
  80.8657169  37.1443152  22.1353507  80.0923252  38.3247089  21.5880609
  80.3199959  33.8743114  18.0978513  79.4101858  33.6836624  17.8695047
  80.3627872  33.7388277  19.0444481  67.8440189  57.0696354  14.0851331
  68.3353424  57.8344011  14.3850791  67.1313286  56.9796133  14.7177458
  63.5152817  60.5273867  10.5361569  63.0499601  59.8184061  10.9800625
  63.1173086  61.3271856  10.8799160  72.1329069  78.0877590  43.5279942
  72.6353598  78.4030819  44.2792177  72.5272417  77.2422266  43.3139658
  91.6832698  36.1263466  54.2332077  91.9549574  37.0406961  54.1533375
  91.1982312  36.0917521  55.0576925  75.1836252  37.9095650  12.5610900
  75.4976273  38.6494803  13.0808616  74.7926378  38.3108377  11.7849851
  91.4712811  58.6012030  38.0365515  91.4333534  57.8260851  38.5968924
  91.6695023  58.2575417  37.1654391  58.3804512  54.7962904  31.6452551
  58.2347059  54.8588181  30.7012844  59.3317986  54.8345900  31.7437792
   6.7252886  20.9408188  33.8599253   6.1860681  21.3977337  34.5054483
   7.4320954  21.5547657  33.6606169  38.5734200  12.0393550  74.5676374
  38.0407166  12.7026331  74.1288662  39.4726753  12.3534358  74.4731665
  69.8744822  22.7568817  57.7693224  69.1430616  23.3583832  57.6298618
  69.7513914  22.0733356  57.1106529  32.4656940  31.9508791  15.3335822
  32.8893113  31.3015509  14.7721934  31.5876412  31.6008210  15.4842877
  75.1252651  67.5552416  15.8255804  75.2712584  68.1556892  16.5565908
  74.9160528  68.1252003  15.0855756  76.4659357  47.6791620  43.3459663
  76.3160038  47.9663134  44.2466879  76.6850185  48.4814787  42.8721237
  64.7014475  17.8631759  59.8505545  65.0989532  17.6172554  59.0152454
  65.1992226  17.3742497  60.5058432  75.8502245  68.8745070  39.6446109
  75.6834793  67.9922390  39.3129015  76.6841602  69.1259813  39.2476892
  66.5702295  17.9795277  -0.3371284  66.6864824  18.7200916   0.2580879
  65.9786510  17.3884749   0.1286244  83.0224800  49.3087387   7.1792573
  83.6706352  48.6141109   7.2959524  82.1803761  48.8536787   7.1831739
  55.0998259  24.2452049   1.9419885  54.5224667  24.8244858   1.4446761
  55.3858614  24.7739840   2.6868445   1.5012778  67.7418661  34.3547392
   1.6590656  67.0913029  33.6705613   0.7703974  67.3857212  34.8599195
   2.5782615  80.5759907  65.5607510   2.9470259  81.0547543  66.3030624
   3.1811422  79.8452425  65.4237080  59.4033766  47.0097637  38.7647462
  60.3588343  46.9671679  38.8037682  59.1083765  46.3334131  39.3744636
  64.6746492  44.1181231  40.7060003  64.0396023  44.7952700  40.9392691
  65.2625227  44.0711546  41.4599419  12.6863563  37.6283717  32.6784444
  12.4568570  37.3628020  33.5689688  13.5730922  37.2918868  32.5491786
  81.0797215  64.2380524  63.1757927  81.4953518  64.3417835  64.0317869
  81.7697525  63.8819361  62.6160765  78.3267260  49.8821068  35.2134871
  79.2821074  49.9114561  35.1623106  78.0877972  49.0698195  34.7670197
  76.8775225  65.8746099  31.8596578  76.2145138  65.1901150  31.9497466
  76.6502190  66.3224745  31.0448074  82.1205997  32.0094061  35.0216031
  82.5440121  32.2348428  34.1932702  81.8933296  32.8533554  35.4118943
  85.3568172  73.5250854  28.8010240  84.7472477  73.5381317  28.0631328
  85.2707958  74.3917799  29.1981101  59.6994543  42.3951292  41.3916445
  60.2296305  42.7900076  42.0838976  59.5431805  41.4994907  41.6910410
  68.8392687  27.9299331  44.0377665  68.3246708  27.5516987  43.3247757
  69.7478247  27.7386308  43.8050556  76.0324669  59.1555834  36.9224310
  76.9423199  59.2993402  36.6621804  76.0129166  58.2512283  37.2354627
  82.9122448  49.5472336  69.6713400  83.0437851  49.4932318  70.6179190
  82.5510311  48.6941004  69.4306660   5.6031960  35.5712128   8.4946084
   6.2085837  35.1495099   9.1044474   4.7341529  35.3653264   8.8390023
  91.0075283  52.3945951   9.6365076  90.8408928  53.0197763  10.3419244
  90.4817677  51.6284466   9.8663163  32.1869993  26.9620943  18.5611689
  31.7518950  26.4194703  17.9035425  32.3578477  26.3649344  19.2894828
  55.0185013  23.8321900  62.7262306  54.6248817  24.7021961  62.7924538
  55.9326839  23.9997125  62.4972439  28.0826211  12.3078692  70.5612850
  28.8500404  12.5363529  70.0367880  27.4309349  12.9710221  70.3337622
   5.8077836  55.9008360  39.2605519   6.2336832  55.2411604  39.8079729
   6.4862394  56.5581322  39.1059828  56.3522720   9.3035555  57.5634766
  57.1731138   9.1036141  58.0134535  55.9681273   8.4474653  57.3743391
  38.2385373  36.8658805  21.2741828  38.1917906  37.6805854  21.7744875
  39.1715741  36.7471313  21.0964942  78.3722353  52.4020767  29.4854403
  78.8590622  51.7967796  28.9261150  78.2232857  51.9131756  30.2947736
  23.0744433  57.5057173  37.8093672  23.5470080  58.0128622  38.4694552
  22.1645403  57.7903509  37.8947711   3.2929304  17.6288211  26.7949367
   4.1728386  17.6168764  26.4183044   2.7079284  17.6013005  26.0378051
   4.4935173  73.2003641  44.4158030   4.2193949  72.3158264  44.1735744
   5.4309726  73.1207609  44.5920801  30.2511001  52.2031450  69.1739655
  29.5524788  52.8161287  68.9450312  30.6591749  52.5845385  69.9513006
  24.8995686  81.7144966  53.2308531  25.1672506  82.6248264  53.1048393
  25.6237912  81.2003040  52.8740168  13.7379050  31.0914207   5.9623200
  13.2594502  30.3814912   5.5341679  14.2897320  30.6521749   6.6094518
  77.5014639  79.3562078   6.1721516  78.1380367  78.6476612   6.0774463
  77.8916788  80.0931644   5.7022029  56.6423512   1.1789152  72.9941368
  56.4180470   1.9572645  72.4841452  56.0555649   1.2103520  73.7497330
  14.2890561  42.6979113  46.3022614  15.0683558  43.2125330  46.0922861
  14.3823886  41.8992233  45.7830191  29.6979475  27.0581698  36.4063287
  29.5324540  27.5947976  35.6311679  30.6465793  27.0986104  36.5275574
  30.1127911  51.2770605   8.3245206  29.7379208  50.5892611   8.8746417
  29.6855283  52.0805740   8.6212343  54.5888424  21.8577576  69.9391365
  54.2537689  22.7384472  69.7707796  54.1869736  21.6033316  70.7697964
  84.5041656  71.0424423  59.4518089  84.0183449  71.6758490  58.9235926
  83.9774132  70.2441549  59.4130468  22.7080274  46.5610170  12.6169968
  22.3873091  47.4418640  12.8105795  22.6458669  46.0948849  13.4507179
  51.7649698  21.8921685  48.9868259  51.7200136  22.8191113  49.2213249
  52.1987009  21.4772487  49.7324467  46.7171717  81.8557835   6.4726794
  46.1841202  81.7224884   5.6888944  47.1951628  82.6673603   6.3020819
  29.3837738  63.6495352  72.2574043  29.0825200  63.5346985  71.3561296
  29.7921491  64.5152140  72.2649765  90.2769375  78.4354496  73.6020517
  90.6567097  79.2986822  73.4382343  89.4104481  78.6198664  73.9645863
  70.7533741  36.6767025  12.2254622  70.0472832  36.8153715  12.8566825
  71.2396049  35.9279346  12.5706542  38.6490130  68.6165333  49.8464394
  37.7467442  68.8834858  50.0221586  38.9723682  68.2963276  50.6885481
  91.5884686  16.9945693  26.3466239  91.1928177  17.2507620  25.5135250
  90.9032440  17.1529520  26.9959450  45.1595879  29.2298269  70.5795956
  45.9808540  29.0909195  70.1079369  44.4784212  29.0049481  69.9458265
  22.8696847   2.6623970  42.3564911  23.0589366   3.5423258  42.0306969
  23.4652305   2.5479653  43.0970716  77.9104471  62.5975800  30.1725674
  78.5317183  62.2295046  29.5442581  78.1246901  62.1682358  31.0008144
  86.4476871  46.3605690  41.8435287  86.0559273  47.1757555  41.5301180
  87.2512627  46.2687016  41.3316011  22.2631240  59.1809273  50.4091406
  21.4784336  58.7663889  50.0504637  21.9343543  59.9410868  50.8890390
  86.4918232  65.2836609  42.2660351  86.9426250  66.1270189  42.2240829
  85.9532833  65.2603388  41.4750528  91.0992336  38.8474703  12.3420000
  90.6186390  38.0995965  11.9871092  91.1640453  39.4600439  11.6093445
  67.3465729  79.7767878  47.3195028  67.0937920  78.8610840  47.4370384
  67.1194553  79.9731874  46.4106131  80.0186157  83.5770607  38.3177972
  80.3387833  83.4198093  39.2060542  80.3351784  82.8279495  37.8129745
  87.3418808  69.4450235  13.0060256  87.9582691  68.8098621  13.3705389
  87.4955654  70.2442503  13.5098624  64.3327427  83.9811039  20.1871538
  64.0446663  84.8151207  19.8161399  65.2812481  83.9766121  20.0585270
  85.4911327  48.9738035  31.6967154  84.7646141  48.3554268  31.7742729
  86.2762833  48.4294510  31.7553806  74.9258757  84.9307442  67.6049948
  74.2405415  85.1906776  66.9893789  74.9982595  83.9824772  67.4964476
  69.0310955  22.9283333   3.6782992  68.7948847  22.1290660   3.2075465
  69.9676561  22.8355503   3.8528985  11.9513547  57.1204376  23.0062079
  11.2259531  57.6315546  23.3650684  12.7277970  57.6532078  23.1780362
   9.7228414  81.1707497   5.0605261   8.8820350  81.5309429   4.7785076
   9.5155185  80.6661034   5.8470261  21.8808436  39.7135496  25.8887029
  21.7221498  39.7217560  26.8326211  22.5748682  40.3594494  25.7568860
  74.0190744  75.0585651  22.5594544  73.8694715  74.1137838  22.5946999
  73.3181858  75.3912926  21.9988465   4.5443347  47.9211569  20.3742933
   4.5690754  47.3893309  21.1697674   5.1424658  48.6468649  20.5526686
  74.6673107  63.4040213  40.8153391  75.3132629  62.7261782  40.6165791
  75.0274563  63.8629150  41.5742445  58.8389063  51.4748096   1.6130525
  59.1913891  50.6697130   1.2338426  58.4641504  51.2011671   2.4502556
  17.4110568  84.8991299  67.6100779  17.8062403  85.6793404  67.2210646
  16.7707384  85.2407837  68.2341719  45.7304049  66.2416744  17.9958510
  46.2084770  67.0698404  17.9532123  44.8860931  66.4311695  17.5866246
  70.3314257  49.4672060  33.6281300  70.7747269  48.7507486  34.0824509
  69.4523382  49.1317701  33.4523010  20.4510331  71.2095690  37.9262352
  20.3986430  70.3299427  38.3000565  20.5337191  71.0647154  36.9836783
   1.8603466  49.7199106  27.2539330   1.7482144  48.8473654  26.8766761
   1.6765703  49.6032619  28.1860542  60.7818699  64.2714024  39.1913629
  60.0585985  63.6775684  39.3925405  60.6940365  64.4470692  38.2545280
  64.2997313  65.7966995  52.8151464  63.9615917  66.3366079  52.1007299
  64.4637918  66.4159393  53.5263824  55.0457907  51.9244671  15.4368138
  55.2071428  52.4659777  16.2094474  54.6588564  51.1208057  15.7841516
  48.8923454  57.7720070  34.6585846  49.6364641  58.3740234  34.6683145
  48.4448242  57.9576874  33.8330650  69.0731001  30.3871465  23.8970518
  69.6209145  31.1720729  23.9016509  68.2712555  30.6520486  24.3477201
  67.7985764  49.6866322  31.7069697  67.6437473  48.7480354  31.8132854
  66.9494057  50.0411081  31.4433646  82.7566814  82.1984386  16.5951169
  82.7760887  81.2414646  16.5870023  82.9352188  82.4339008  17.5055623
  78.9809275  80.6128216   8.8169581  79.7403526  80.0974083   9.0887344
  79.0008783  80.5826664   7.8604412  72.0401049  63.2314730  40.4723406
  71.9717216  62.4380589  39.9412513  72.9500818  63.2433939  40.7690382
  69.4203711  52.3022079  15.3589189  69.2016888  52.7398157  14.5361733
  69.2380381  52.9560518  16.0338068  49.3135738   8.3381855  65.4572058
  49.6054935   8.6315745  66.3203049  49.0105581   9.1356081  65.0230026
  65.3103685  85.9794521  38.1899571  65.9515238  86.0819244  38.8932729
  65.7217884  85.3693104  37.5778294  64.1662455  25.0545549  40.6036949
  64.8046637  24.3914676  40.3410721  63.3588839  24.5630932  40.7549000
  80.8754635  52.6581192  42.5766802  80.4993248  52.5419426  41.7041826
  81.7620087  52.3045063  42.5043344  74.0337849  61.7633438  55.9912729
  74.9165010  61.7338181  56.3602877  73.4569550  61.5948677  56.7363310
   3.6314061  36.0778666  51.7020178   3.6387309  35.9135437  52.6449776
   3.5774043  35.2073717  51.3076115  22.1954155  11.8351257  66.4560080
  21.9039750  11.0866070  65.9354162  22.7985907  12.3063242  65.8812189
  54.7260284  31.1879921  22.7413392  54.0674877  31.1428428  22.0481491
  55.1606083  32.0297837  22.6043844  88.3391666  29.9686456  17.1755350
  89.0636253  30.5942082  17.1676385  88.6204433  29.2840719  17.7825546
  65.8757257  24.6589565  10.5354393  66.4119482  24.0901303   9.9830467
  65.7689857  25.4598212  10.0221634  79.9833775  10.4475546  38.4876657
  79.1854572  10.6690991  38.0075860  80.5961323  10.1563764  37.8124046
  24.6414208  42.8917646  42.5866842  24.6839404  43.8144350  42.3354769
  25.2836728  42.4602699  42.0231628  67.8626108  30.6783581  66.6219044
  67.7761269  30.9345508  65.7036877  67.2180939  31.2158561  67.0822573
  14.7959197   1.2669976  17.3587966  15.1539302   0.4466873  17.0194578
  14.5500112   1.7623460  16.5775216   7.7162379  20.5975676  49.5987654
   7.6657051  21.4416552  49.1502190   6.9222128  20.5618548  50.1321316
  69.8993921  33.6129403   8.3407617  69.7767305  34.3272614   8.9660072
  70.3068352  34.0275836   7.5803059  75.9787798  23.5671401  37.2601080
  75.7541084  24.2690945  36.6493607  75.4349852  22.8284454  36.9865251
  11.6137922  28.3387303   1.0367490  11.2677014  28.9190412   1.7147541
  12.4119306  28.7723923   0.7348474  56.6289568  73.5542679  62.9112816
  57.0529938  73.7485790  63.7471485  56.9796276  72.7005148  62.6575756
  51.1297321  51.6093493  72.8779078  50.9559822  52.0852375  73.6900520
  50.7446527  52.1559525  72.1929455  10.5623484  72.9272795  15.6557786
  11.2625301  72.8254032  15.0111091  10.8928955  72.4886513  16.4397275
   6.6031712  84.4627285  23.4366608   5.9278226  85.0430393  23.7879014
   6.9764292  84.0354347  24.2075896  10.6785035  48.2103014  13.8503850
   9.8086882  48.5248566  13.6039972  10.9286094  47.6177645  13.1414568
  59.9974775  52.5977087  35.7109070  59.8262882  53.5394049  35.6993413
  59.1322851  52.1959972  35.6314945  75.0327206  55.0474167   2.4983972
  74.1124058  55.3083134   2.5328422  75.4655933  55.6109571   3.1397036
   8.3568597   9.2469889  38.2097483   7.6067650   9.7254342  37.8566480
   8.9795858   9.2083687  37.4838328  70.3905535  57.5882530  28.1636262
  70.5500603  56.6755247  27.9233909  70.7313633  57.6644230  29.0548491
  47.7689552  84.3654823  73.4370136  47.9660797  84.1989326  74.3587685
  47.0135832  83.8083839  73.2491732  58.8553953  58.2341814  44.7668219
  59.3063021  59.0669823  44.9059725  59.0225554  58.0218172  43.8485670
   5.2208781  77.0785093  34.6209836   4.9274567  77.1070671  35.5316544
   6.1528581  77.2927427  34.6628022   8.9918584  14.1639113  16.9849563
   9.8734093  13.7998223  17.0658207   8.9287406  14.4375300  16.0698712
  67.1984720  38.9374328  42.7285719  67.0616055  38.2610416  42.0652533
  67.2336292  38.4577036  43.5561323  48.3081579  22.2472048  17.7234077
  48.5858631  22.9719567  17.1631873  48.2850504  21.4887309  17.1399570
   9.6771860  32.1220565  38.9733481  10.5579352  32.4912024  38.9082146
   9.2279559  32.4342322  38.1878734  70.8661032  56.9102573  50.4384136
  71.7502594  57.1245289  50.7360458  70.5507040  57.7144623  50.0260925
  80.8935738  52.0281076   0.8685718  80.4508305  51.7245197   0.0760780
  81.8239212  52.0128155   0.6439610  72.8387403  61.0990906   5.3652292
  73.3512306  61.6488028   5.9580189  72.0424843  60.8953333   5.8558285
  77.8854036  55.8139706  35.4404855  78.5498667  55.1251698  35.4568172
  78.3840752  56.6291666  35.4953718  78.3532953  32.1335697  56.9210052
  77.6683378  32.7462602  56.6532803  78.3600760  32.1846199  57.8768206
  86.3897514  57.4233866  15.6531131  86.6246033  57.4035215  14.7253835
  87.0434856  56.8678188  16.0776210  87.6195431  72.0384502   3.9322332
  87.9951191  72.4567604   4.7069502  87.0196533  71.3799906   4.2826650
  83.0563450  34.4978786  18.8355875  82.3440266  34.3070364  18.2253242
  83.2796097  33.6484909  19.2162764  17.7009881  17.2120285  73.7084770
  16.8687224  17.6848185  73.7143946  18.1361318  17.5031435  72.9071426
  78.7818003  83.0801868  45.5288363  79.1886806  82.2440815  45.3016520
  77.8512573  82.8761959  45.6221581  34.1977477   3.3164033  61.8051338
  33.4442234   2.8122860  62.1122122  34.0030861   3.5026565  60.8866310
  51.6712141  63.2410431  29.0468192  52.3626947  62.5854349  29.1377616
  50.9563255  62.7763844  28.6117792   8.6435181  39.2366457  41.5747643
   8.0712777  38.4701133  41.6094255   9.2124772  39.1455507  42.3391056
  90.4530430  58.3869886  62.2854900  90.5541039  58.7428713  61.4026737
  89.6149445  57.9251146  62.2630453   9.6848887   2.8954035  39.0843844
   9.5651364   3.4925494  39.8228335   8.9615363   2.2730723  39.1598654
  50.9821939  76.4006853  46.7525530  50.8509445  76.3910532  45.8044434
  50.3691339  77.0625114  47.0725060  91.2035585  71.2751436   4.3793753
  91.3736001  70.3394175   4.4876733  90.8143400  71.3485670   3.5079685
  21.8087149  51.6837215  26.7057204  22.3682165  51.9870949  27.4206734
  21.4030218  52.4806738  26.3643742  74.6072102  59.4781256  59.7495365
  74.5827246  59.1582203  58.8477087  73.6960649  59.6886539  59.9538136
  86.3765621  70.9534407  38.5662389  86.0029125  71.5343332  37.9035354
  85.9586811  70.1072931  38.4061146  46.6852903  63.0274868  39.6345329
  46.8072557  63.9485693  39.4043899  46.2523603  62.6451874  38.8712192
  82.4042892   0.9774487  32.6819158  81.8493938   0.9494644  33.4613609
  82.8953552   0.1562239  32.7078938  76.1816597  34.6122742   6.5506881
  75.5249262  34.7265863   7.2376138  75.6749630  34.5686769   5.7397687
  54.0139914  39.2910552  29.3748641  53.9858627  38.8376617  28.5323238
  53.7558126  38.6262703  30.0133276  66.3645315  68.7025309  16.1892903
  65.4535007  68.9944935  16.2211657  66.5179014  68.4965277  15.2671885
  70.2721834  68.3714342  33.2314467  69.5682287  68.9356565  33.5513377
  69.8400354  67.7694559  32.6255512  19.5359015  31.5629721  18.5254896
  18.6887991  31.5493059  18.9709818  20.0470448  30.8814168  18.9618933
  57.2034407  75.6169891   6.5577459  56.4467239  75.8535004   7.0940948
  57.8715181  75.3517342   7.1898401  75.4538631   9.4125545  40.6618214
  74.9929810   9.7790825  41.4164543  76.3701057   9.6518230  40.8013868
  24.0691972  76.5893221  30.6525230  23.7437272  77.4650049  30.4440022
  23.2791042  76.0637045  30.7778692  47.0015621  45.4667711  18.6246312
  46.0876465  45.7241535  18.7460816  46.9755459  44.8136091  17.9253924
  31.0445428   3.1096685  45.7590199  30.1722121   2.7473283  45.9138727
  31.3039613   2.7545071  44.9088478   8.8958156  36.2838316  16.3494813
   8.9498955  35.3331280  16.2521720   8.3011740  36.5624380  15.6530535
  80.8207512  65.2350187  10.0465906  80.6726265  64.7347784   9.2440635
  81.5864468  65.7760620   9.8536873  18.5927439  61.0325146  22.1113324
  18.2013607  60.6233120  22.8830886  17.8645837  61.1328363  21.4981866
   9.2945254  29.8683119  16.8755352   8.3744037  29.8557758  17.1390700
   9.3489474  29.2290282  16.1651933  80.0419712  21.8248081  73.6618996
  80.9670353  21.6662097  73.4739161  79.9808645  21.7828250  74.6162224
  62.0406389  71.4375734  46.8101215  62.6052189  72.2017908  46.9260979
  61.3619471  71.7312050  46.2023497  16.3730884  50.2446795  59.2790747
  17.2271609  50.6306839  59.0846729  15.8954215  50.9374189  59.7353411
  13.2758379  55.9276962  36.4521623  12.8865457  56.5242624  37.0915294
  13.1462491  56.3622665  35.6092000  88.2890701  56.4793062  19.3639505
  88.6989594  56.3817072  20.2234268  89.0146923  56.4111710  18.7434173
  22.5006270  25.8641815  21.1211753  23.1562781  26.5119576  21.3795161
  22.9306149  25.0201488  21.2588310  63.8003445  84.3098450  13.2632279
  64.1471434  83.5400867  13.7142539  64.4851112  84.9718857  13.3582866
  65.8205700   0.0124982  10.0426590  66.7641115  -0.0603844  10.1863587
  65.6649351   0.9519662   9.9456620  40.4269075  15.0871730  41.5784168
  41.3330984  15.1121736  41.2711287  40.1575136  14.1768599  41.4559937
   1.4081836  36.2571716  24.5913839   1.9649695  36.7172098  23.9632249
   1.9651037  35.5612493  24.9403310  91.6165165  61.2989902  44.3392563
  92.0319460  62.1372318  44.5417404  91.0899894  61.4748001  43.5594559
  36.3811135  21.1464310  67.5938082  35.5646849  20.7376575  67.3064375
  36.5346956  20.7864404  68.4673357  65.5718374  74.9513531   4.6268749
  65.1326799  74.5972633   3.8535759  65.8713150  74.1792202   5.1068300
  22.9076052  69.7058582  63.1342077  21.9507051  69.6986008  63.1113863
  23.1611776  70.2365541  62.3790312  60.3972149  31.2883830  54.7660160
  60.9446478  30.5032563  54.7770834  61.0134411  32.0116806  54.8815155
  84.0291691  74.4244289  59.6053648  83.3390045  74.2070293  60.2319813
  83.7269211  74.0515184  58.7772226   0.8551136  55.7655764  67.8956938
   1.2618637  56.1000156  68.6950302   0.9844863  56.4618587  67.2517300
  26.5886402  15.2416813  74.0928793  25.9226990  15.3306353  74.7746706
  26.7084789  16.1302483  73.7577343  31.8019700  69.8562098  37.6775098
  31.3369226  70.6837034  37.5541568  31.3980389  69.2583799  37.0484853
   0.7544401  42.0873356  26.4946890   0.3204420  41.6703987  27.2390246
   0.5065992  43.0096674  26.5588140  80.5368614  49.8254871  56.0553837
  79.6030903  49.6359396  56.1468840  80.9702110  49.1553450  56.5839148
   0.4778093  71.0268593  61.4087200   1.0414180  70.9299088  62.1762991
   0.8825547  71.7306995  60.9017515   5.9825224  75.4949188  38.6802864
   5.6066686  76.1848450  38.1335068   5.5296135  75.5807304  39.5191813
  21.9082308  54.3466520  14.1192865  22.2229576  54.4133043  13.2177675
  22.6872396  54.1242552  14.6291065  57.3588371  61.5163803  17.9672885
  57.1922159  60.6712723  17.5498474  57.6771498  61.2928867  18.8419080
  52.7658224  53.3399868  45.7269001  52.9642773  52.7240658  45.0215721
  53.5519981  53.3402205  46.2729406  34.9655676   4.3759164  21.5687418
  34.9283981   5.3165215  21.3952136  34.4033194   4.2510074  22.3332739
  34.2139125  30.0723839  16.4938426  34.1275001  30.0980115  17.4467897
  33.4667683  30.5767584  16.1719477  69.4095087  62.5445557  13.7952781
  70.0388098  62.6770782  14.5042574  69.0297508  63.4106207  13.6471057
  75.8699751  69.3060827  51.2965536  76.1276674  70.0498390  51.8412161
  75.2146912  68.8428020  51.8182850  15.8538783  71.5411997   2.2437619
  15.2034152  71.5482664   2.9459587  15.3844106  71.8744087   1.4790380
  73.5415554  45.9318542  12.7313840  72.9748392  45.5443811  13.3984196
  74.2367411  46.3627720  13.2286286  60.8479929  43.3172131  44.2355108
  61.5844870  43.3205271  44.8468971  60.2027559  42.7379608  44.6409416
  91.5201378  59.7393656  59.8833752  91.6725063  58.9844894  59.3148851
  91.2959385  60.4501486  59.2827463  74.5321274  29.0799904  62.8533363
  75.1204443  28.4037828  63.1892729  75.0859928  29.6215773  62.2910690
  35.3898573  70.7199812  67.2353935  34.6430421  71.3108587  67.3321676
  34.9979615  69.8682356  67.0425653  16.1527133  84.4767857  49.3151188
  16.4557099  84.9171066  48.5210562  16.2802732  85.1221848  50.0103998
  33.7443352  54.1625738  61.7733097  33.7700820  53.5883665  61.0078955
  33.1562066  53.7198734  62.3851538  64.5432997  84.0620804  34.7364688
  63.7631702  84.1851234  35.2772951  65.2746916  84.1489220  35.3478217
  86.1513901  52.5448370  28.6814547  86.6976261  52.7658796  27.9271412
  85.2576447  52.7281618  28.3918929  85.2456760  69.3427467  55.3724861
  84.7189236  69.5328093  56.1487865  84.6098232  69.0616703  54.7145224
  57.6891994  62.6422644  15.6040299  58.2229614  63.4358501  15.6434488
  57.4799252  62.4487400  16.5178049   6.2124336  67.6458502  62.6586819
   6.3782656  67.5416422  61.7217350   6.2497526  68.5910892  62.8048468
  34.9701881   7.7877665  50.3211069  34.3803072   7.2130483  50.8089304
  35.5022907   7.1924430  49.7931957  87.3323345  38.1855726  19.4685531
  87.0205498  38.6873412  20.2217126  86.6701603  37.5059032  19.3428397
  90.3361128  72.9696421  -0.0163449  89.8240946  72.5889234   0.6971846
  90.4429720  73.8885812   0.2293454  68.0533361  73.8398027  44.7792673
  67.9688644  74.7464800  44.4842625  68.9836788  73.7391472  44.9806643
   7.1837592  72.9298639   2.1971624   7.4402654  72.9593658   1.2754434
   7.7243179  72.2356462   2.5741059  88.5169983  16.3625908  37.6823187
  89.0174389  16.7045343  38.4231782  87.6881218  16.8403888  37.7122307
  26.9258404  78.4056950  32.6844192  27.7449775  78.7151670  33.0710363
  26.2418771  78.7913179  33.2318878  90.7808685  21.9562101  11.0131896
  90.6095982  22.1965170  10.1026106  91.7094517  22.1499157  11.1414337
  73.7491512  52.5470209  22.6125121  74.5162249  53.1183529  22.6500916
  73.0676413  53.0299997  23.0799580  11.2449253  42.5469971  12.4127424
  10.5653584  42.8817940  12.9978347  12.0272815  42.4913549  12.9614282
  24.9182820  12.8912842  35.3406000  24.0604687  12.7085876  34.9571824
  24.7556305  12.9320741  36.2829971  55.1232386   2.1626312  24.3806267
  54.3160152   1.7005853  24.1544986  55.0190210   2.3885310  25.3049302
  24.4007969  11.1626852  27.2554612  24.5433450  12.0699024  27.5254011
  25.2681851  10.7603657  27.3002362   2.9449371  20.3882861  68.9441729
   3.7402609  20.1945686  68.4480238   2.4940591  19.5466661  69.0121031
  33.4753561   3.6210072  35.9789586  33.1177187   4.4419003  35.6406379
  34.1229105   3.8920358  36.6296887   2.1676807  71.2366915  29.9608469
   1.5116321  70.6170988  30.2801251   1.9231403  72.0714760  30.3602982
  24.3532658  40.1444864  36.3209271  24.4975352  40.6254005  37.1358728
  24.0569544  39.2790437  36.6027761  17.5254977  17.2781885  27.0884156
  16.9194186  18.0176187  27.1347165  18.0004036  17.3053861  27.9190516
  80.9825420  27.2837567  29.8946619  80.5181885  27.4377275  29.0719175
  80.6609917  27.9671764  30.4826903  69.9480534   2.4168375  19.1277027
  69.8154926   3.3647621  19.1376317  69.2112350   2.0666987  19.6284342
  50.6066275  77.7735138  22.1707368  51.2602615  77.3385763  21.6231728
  51.0939503  78.4605265  22.6254511  69.1956995   0.5779440  59.2211962
  69.5134543   1.1558706  59.9149227  69.9865053   0.1702578  58.8681364
  23.3466125  61.9218779  18.1310976  22.9618645  61.3302708  17.4844158
  24.2314625  62.0888281  17.8064382  55.7989836  63.2451630  46.0795641
  55.7063103  63.2495785  45.1268721  56.1138582  64.1233683  46.2936497
  67.9405165  84.0322876  46.5852547  67.7462482  84.2784119  45.6808710
  68.8325644  83.6866760  46.5530825  72.5163889   9.3379223   5.7268500
  72.8545570  10.0386643   5.1693261  72.4639273   8.5764784   5.1491970
  76.6858101  36.7451000  34.3448949  75.7405519  36.8531156  34.2397738
  77.0381689  37.6317978  34.2684650  87.6226997  81.6130638  32.5931096
  88.5610580  81.7807198  32.5059462  87.3956585  81.1098099  31.8111706
  72.4676657  77.6584482  38.1779194  72.4567366  77.4428225  37.2453880
  73.3907032  77.8158665  38.3765459  55.7080889   3.4282425  12.3085535
  54.7741842   3.2428524  12.4069357  55.9566498   2.9829070  11.4985371
  25.6226230  78.2896948   4.2865720  26.3878489  77.7553940   4.4991305
  24.8807859  77.6911592   4.3741411  80.6604862  45.9210777  26.1324191
  80.7508183  46.8280554  25.8400750  80.8009338  45.3995848  25.3421330
  68.8803148  39.9373627  36.1502600  68.4529400  39.8228025  36.9990587
  68.1942844  40.2876520  35.5820227  45.7103968  81.7887402  42.7645683
  45.8223581  81.7206573  41.8163776  46.4525938  81.3062286  43.1286383
  60.1278543  11.0952938  19.2934716  60.1228952  10.6221080  20.1255178
  60.2346563  10.4130769  18.6305940  46.7040634  21.4703727  45.6479836
  45.7842207  21.2206340  45.5599213  46.9649172  21.7383027  44.7668457
  48.8511562  39.0960646  22.8929782  48.0545187  39.2867041  23.3882093
  49.2392063  39.9545646  22.7237773  55.0763416   4.5520872  18.7013412
  54.6458054   5.3001964  19.1151106  54.8855495   4.6516907  17.7686524
  43.0483675  17.8440988  55.7597494  43.8879967  18.0676675  56.1613464
  43.2400656  17.7792561  54.8241854  62.2384499   0.5390722   5.5647910
  62.2702573  -0.2880018   5.0839996  61.3346360   0.6019575   5.8736563
  49.8641109   3.0881974  56.0006094  49.1090775   2.7118951  56.4528894
  50.1649857   3.7889904  56.5790558  55.8947515   2.1445803  15.0716352
  56.0132408   2.7990651  14.3832731  55.3462076   1.4709155  14.6697521
  47.8604794  15.1897526  32.4724722  47.4498606  14.3879008  32.7959776
  48.7758446  14.9491966  32.3294067  68.4066439  15.8763564  54.4245911
  69.0899181  16.3252866  53.9267683  68.7970018  15.0353789  54.6625137
  43.9796257  72.1365356  35.3248405  43.5879278  71.4293242  34.8123431
  44.5896196  71.6947651  35.9155846  87.6728058  38.0277705  43.4490204
  88.5490990  38.0515742  43.0646133  87.8250504  38.0489826  44.3937969
  20.2154875  49.0782452  74.3047142  20.7403994  48.7215805  75.0212955
  19.4364941  49.4338751  74.7324181  41.7912102  81.4095402  26.2055087
  41.9481230  80.5579853  25.7975173  41.4887857  81.1996937  27.0891023
  70.4410076   2.4869743   4.4537598  69.8868752   1.7493531   4.1986361
  70.0344515   3.2471177   4.0376747  62.9066467   0.4476294  19.3865430
  62.1963501   0.3580037  20.0218987  62.4829578   0.3331349  18.5358894
  62.6911974   1.9564494  32.9118490  62.4798870   2.8871155  32.8380990
  63.5110235   1.9353724  33.4054875  78.7521029  32.5195765  44.8227835
  78.4853268  32.6367092  45.7345629  78.8942814  33.4089470  44.4986868
  29.1748285   9.3190676  40.0831604  28.5310984   9.6827847  39.4752526
  28.7568045   9.3840080  40.9418058  22.1643114  61.6438341  41.9386292
  21.5539861  62.3678064  41.7986250  22.8618002  61.7916584  41.2999678
  59.5515966  46.7881918  73.5546350  60.4206514  46.8117762  73.9551544
  59.7146654  46.9197273  72.6206446  67.0174360   9.9489897  25.4080462
  66.1476326  10.3484607  25.4181623  67.3433256  10.1070976  24.5220280
  74.6333218  22.2150469  44.6005344  74.1562843  21.6625810  45.2197647
  75.3670835  21.6725373  44.3115520  58.8689804  11.1812747  47.7729988
  59.5348358  10.4953957  47.8223419  58.0589247  10.7485342  48.0427837
  10.5318499  48.2084131  62.4491787   9.5794052  48.2076216  62.5444746
  10.8439553  48.7589216  63.1673431  59.5518494  16.9941664  10.5110312
  59.3609715  16.3077354  11.1502588  58.7140894  17.4378717  10.3786910
  33.0376077  78.4967375   7.1775168  32.2467542  78.3165646   7.6857680
  32.8460670  79.3144417   6.7182702  34.9959064  78.6843538  32.3821235
  34.6149778  78.0305719  31.7958713  34.3568397  79.3968773  32.3938298
  56.8098021  20.1280236   4.9052829  57.5803757  20.1013041   5.4725015
  56.1341715  20.5466509   5.4386729  76.6108179  28.1601691  36.9785953
  75.9016323  28.6786294  37.3587108  76.2441349  27.2802925  36.8914557
  63.2031631  47.1860743   4.3163800  63.2799435  48.1391478   4.3609181
  62.3323107  47.0328093   3.9498365  72.1293736  24.9278688  52.1871996
  71.9285965  24.0657949  52.5515509  73.0364561  24.8568916  51.8898821
  45.2292395  72.7599001  41.0131121  44.9822140  72.4773645  40.1325560
  44.5501709  72.3955584  41.5808725  68.9147663  11.5322971  33.4122896
  68.4645844  12.3519123  33.6167383  69.4055128  11.7216146  32.6125669
  13.9859951  55.9796143  28.6802912  14.8990536  55.7003117  28.7477016
  13.4794092  55.1856756  28.8513613  62.3924017   9.5856267  57.8460789
  61.7852736   9.6732748  58.5808897  61.8889666   9.8719406  57.0839691
  60.8764076   2.9842883  49.1270971  60.4627800   3.7994677  48.8431406
  61.4731121   3.2495984  49.8269415  48.7540913  24.5849466  31.6096187
  49.1844749  25.4227328  31.7802572  47.8285551  24.8073053  31.5087342
  88.3888817   0.8145677  45.1037836  88.1980610   1.0500801  44.1958427
  87.7650356   0.1174864  45.3065825  36.8921924   7.7762246  23.3731318
  36.1544538   7.4404192  23.8822556  36.5903568   8.6228001  23.0438352
  46.3074160  23.7742782  19.3476558  47.1024036  23.3689356  19.0013492
  45.6745481  23.0577493  19.3955278  79.7014952  21.5400314  30.5406523
  79.7922802  22.4428821  30.8453655  80.5680466  21.3127542  30.2035046
  39.4474244   6.3247746  33.9369678  38.7475634   6.6534650  34.5012283
  39.5850873   5.4229373  34.2267418  11.8212655  48.0721645  74.1041456
  12.1344045  48.9722957  74.1932514  11.6299776  47.9763715  73.1711589
  34.4045997  82.4755955  21.8856573  34.2360210  83.0165005  21.1141396
  34.0176749  81.6265297  21.6720915  53.2307005  20.0219703   8.9765602
  53.5503387  19.6656954   9.8054957  53.9557743  19.8932219   8.3650661
  44.5492840  43.0303907  30.5072236  45.0318289  43.1094265  31.3301039
  43.6724615  42.7501869  30.7697058  65.0901842  77.3640823  39.2774844
  65.4088879  76.4723492  39.4170570  65.2823877  77.8182697  40.0978518
  10.5582976  65.7595015  20.9311557  11.1408687  66.4494181  20.6135774
  11.1305249  65.1702499  21.4226532  42.5203657  45.5068445  74.7258425
  41.6244459  45.2869558  74.9811983  42.4328518  45.8950806  73.8552999
  18.6609685  70.4742479  18.0401492  18.0780327  69.8212433  18.4274578
  19.0671253  70.9078836  18.7906325  57.5284767   7.0050132   8.8477767
  57.5721073   7.4373907   9.7006404  56.8652439   6.3237339   8.9582849
  15.0046015  41.2514353  49.2940998  15.7248783  41.8059635  49.5939827
  14.4490051  41.8375397  48.7802649  57.5525808   0.3143407  66.4333487
  56.9024038   0.7006572  65.8466101  58.3779335   0.7293367  66.1827374
  60.9316397  49.6935940  42.8778887  60.1128531  50.1661110  42.7277184
  61.3739491  49.7050905  42.0290899  44.1960859  29.5192409   1.3720009
  43.5937071  28.8230872   1.1098143  45.0591516  29.2018318   1.1062881
  16.7380297  69.8947144  43.6766148  15.9837675  69.6125507  43.1592131
  17.0529580  69.0945148  44.0970039  50.1273727  19.5612919  29.0448141
  50.2511263  20.2068567  29.7406316  50.2571678  18.7165940  29.4759417
  15.5238175  18.7992263  45.5680275  14.6375942  19.1081989  45.3799391
  15.9606671  19.5523500  45.9657669  43.6785603  72.8545666  24.9422455
  43.5706854  73.4613848  25.6746125  44.6191025  72.8584623  24.7645092
  71.2646914  45.2385235   3.2194209  71.3465261  44.7859430   4.0588877
  71.4994526  46.1461258   3.4127474  33.7417793   1.7194308  65.5697107
  33.9507508   0.8153780  65.8047676  33.0147862   1.9548559  66.1461592
  69.5118761  39.2001867  44.3711376  70.3609562  39.5813370  44.5947742
  69.4717264  39.2485452  43.4160042  12.2042716  75.8591127  74.3480635
  11.6011000  75.7000446  73.6220407  11.6974962  75.6458235  75.1315928
  27.9906607  69.6639824  73.1272221  27.5339150  70.4519653  73.4216833
  27.5950503  68.9545155  73.6335611  60.1272345  10.6157005  22.0962310
  60.4660749  11.2291646  22.7482104  60.6586027   9.8276907  22.2098923
  78.9988947  14.7816968  12.2550023  79.3617964  15.0608444  13.0956030
  78.9272213  13.8300741  12.3292267  57.0724916  81.2210560   7.2093129
  56.5642500  82.0316696   7.2381276  56.4444017  80.5543041   6.9314963
  37.8595018  77.3305655  14.5754480  38.4712458  76.6119528  14.7354364
  38.4191823  78.0904675  14.4156444  69.3918371  58.7081432  38.6717606
  69.3184805  59.3971872  39.3321180  69.9926376  59.0658569  38.0180717
  76.6394949  23.2230115  30.2990437  77.2194195  23.6937404  29.7004366
  76.0720682  23.9011669  30.6656003   3.7982818  67.1291256  64.2803717
   4.4994944  66.6532421  64.7254229   4.2331344  67.5677633  63.5491180
   2.6548541  68.8036776  22.5585771   2.0891345  68.2513428  22.0190191
   3.4535140  68.9063025  22.0410442  36.5689278  69.8014450   7.1627051
  36.0449100  70.0871658   7.9110360  37.4070525  69.5390749   7.5434142
  88.3770084  75.0647974  33.5588789  87.8128147  74.9936533  34.3288493
  88.4375668  76.0054636  33.3924174  88.3496666  37.8992724  64.3886423
  88.7084866  37.9066610  63.5012722  88.4820461  37.0014739  64.6930552
  67.6825094   9.7942686   7.4407065  67.5625801  10.6844175   7.7715886
  68.5380554   9.8114198   7.0117801  78.7926292  50.4767847  27.8055143
  77.9216003  50.6517696  27.4492574  78.7101507  49.6236467  28.2316470
  65.8678055  42.2668028  29.2019653  65.5282879  41.7019844  29.8961854
  65.3461552  42.0400238  28.4321022  49.4685078  80.8717918   7.5132197
  49.4935799  81.6411686   6.9443059  48.5952950  80.8918095   7.9047972
  85.5031967  61.8623209  45.2376747  86.0992146  62.5312948  45.5745173
  85.6206131  61.1178684  45.8277893  33.0986810  19.3752933  52.0151520
  33.6253881  20.1739144  51.9832468  32.2004700  19.6852338  52.1308470
  27.7728963  80.4923630  24.3346429  27.3177576  80.4146862  23.4961629
  28.0991840  81.3921452  24.3476033  79.7654819  30.0956440  35.4836750
  80.5392647  30.4177976  35.9459543  79.4159317  30.8660793  35.0359297
  73.6431026  41.5364408   4.8940483  74.4954014  41.9055891   4.6626318
  73.8466454  40.6775093   5.2642286  66.3011599  85.6136227   6.6333759
  66.7835712  86.2121964   6.0630929  65.5427790  85.3468323   6.1138386
   2.3396818  25.3401375  68.5589170   1.8915305  24.8612118  67.8617620
   3.1770942  24.8877001  68.6602688   2.8918976   8.1131274  10.7888412
   3.5445103   7.4535441  10.5537271   2.2142194   8.0293036  10.1180518
  31.8926191  22.5085783  50.5907106  32.1761703  22.9710436  49.8020697
  32.6933074  22.3952723  51.1028528   5.6533962  12.6811099  15.5815804
   5.8061701  13.5840821  15.8600283   6.4688993  12.2251081  15.7895470
  37.2603774  82.0109081  10.9543049  37.3815608  82.8779697  11.3412797
  38.1199074  81.7850590  10.5987346  88.0762672  23.3353066  33.4743071
  87.8125000  22.5032544  33.0814385  87.3102474  23.6177588  33.9739704
  45.7308340  76.9996405  61.0865068  45.1671219  76.8605423  61.8475056
  46.6129780  76.8052721  61.4031696  16.7507708   9.5601535  22.7802658
  16.3410509  10.3800023  23.0563235  16.5499842   9.4945323  21.8466640
  39.3045568   8.2909936  44.6350956  39.7311449   8.7059426  43.8853788
  39.3983150   8.9256322  45.3454971  18.7627423  53.3176661  16.8232179
  18.4840989  52.4724722  16.4707410  19.4031489  53.0958843  17.4991798
  87.6740170  40.6883574  12.7291858  87.2123241  40.2407312  13.4382010
  88.5889816  40.7017231  13.0100775  72.0750761   3.5026112  14.9772811
  72.5041962   2.9711992  14.3066895  72.6730776   3.4744215  15.7241631
  70.4624007   0.5749876  37.5061846  70.1595519  -0.2483290  37.1232224
  71.3975571   0.6035311  37.3039460  52.2578955   3.2281160  49.3880749
  51.8764925   3.5865834  48.5866594  51.5046406   3.0349264  49.9462128
  48.8173580  24.4198871  24.7593141  48.9964199  23.7035799  25.3684711
  49.6513700  24.5698738  24.3141627  67.0695877   5.5112600  41.7963362
  66.7382812   6.0660183  41.0901403  67.5362873   4.8059848  41.3479948
  59.6333265  10.9485686  36.9124913  59.4682550  10.4271710  36.1269140
  59.5783567  10.3205061  37.6327324   8.4880269  85.3414345  57.7199221
   9.3351525  85.5384254  57.3201656   8.3543849  86.0438251  58.3563328
  71.1943102  40.6008196  34.7495008  71.9088173  39.9820113  34.9004292
  70.4939175  40.3043556  35.3307033  62.4566603  27.1895576  35.6282735
  63.0823946  26.9768357  36.3206935  61.7327452  27.6196194  36.0834908
  59.8751974  16.4197838  15.8074582  59.1396570  16.9605255  16.0952246
  60.0432777  16.7027712  14.9086261  63.5440588  23.1266665  54.8876286
  64.3977070  23.5355806  55.0301313  63.4358025  22.5330567  55.6306887
  29.1484141  21.2976694  26.9625854  29.2435479  20.9762502  27.8591728
  28.8182449  22.1906042  27.0620227  13.4282756  11.1770618  31.5873170
  12.9262459  10.4356647  31.9257379  13.3182383  11.8618989  32.2469544
  17.8834605  32.1850610  35.3983259  17.6138675  32.0652199  34.4877267
  17.0632195  32.1950865  35.8916163  12.8771091  43.9602518  73.3569622
  12.4455988  43.1921387  72.9827595  13.8010418  43.7151957  73.4072304
  26.4057875  72.4570036  16.5112019  25.9516597  73.1268167  15.9999812
  26.5430617  72.8615570  17.3677778  32.6696897  24.5046377  28.8639045
  32.5043917  23.7448382  29.4221306  33.6236501  24.5535684  28.8022852
   1.4838722  56.1286688  32.8793240   1.5604691  55.9227180  31.9476843
   2.3238885  56.5275240  33.1062984  61.8181610  15.0552297  11.8278611
  61.9357395  15.5652487  11.0264325  61.4257336  15.6701136  12.4476576
  88.5412407  12.2934842  30.6284046  88.3368492  12.8803802  31.3564229
  89.3392754  11.8412983  30.9020710  15.9814453  16.2637556  31.7429662
  15.2284431  16.8061256  31.5083289  15.8928621  15.4821277  31.1975813
  47.9185200  75.0308371   6.8394560  47.0616579  75.1637650   6.4340538
  47.8330994  74.2042160   7.3144680  72.9173279   0.2743922  52.5428820
  73.8216734   0.0471272  52.7590752  72.6308346   0.8315691  53.2665586
  13.9255059  11.8399107  63.7075424  13.7030375  11.0250068  64.1577291
  14.7524118  12.1144557  64.1038799  43.7425089   6.5256608   6.5439534
  44.6518278   6.8246096   6.5441674  43.6494923   6.0411131   7.3641932
  77.0757055   5.9729940  46.4711666  76.7661190   6.4464349  47.2433329
  77.2625875   5.0901836  46.7904663  78.4410429  45.1475430  27.5032377
  79.0847635  45.4374504  26.8568587  78.5147762  45.7821846  28.2159972
  59.5698690  38.8623309  23.4750628  60.4353333  38.7185407  23.8578510
  59.5592213  39.7925448  23.2496285  22.3301673   7.8861231   2.0474556
  22.3770499   7.3288143   1.2706408  22.2085428   7.2747511   2.7738598
  37.9015374  76.7916155  31.2495542  37.0333529  77.1927261  31.2096500
  38.1295848  76.6227007  30.3353906  35.7652736  14.1518176  51.0115051
  35.2850032  13.3696949  50.7397413  35.7467747  14.7230947  50.2436924
  80.4026604  10.1003230  56.8575811  79.9227333  10.5001402  56.1322880
  80.9355545   9.4199795  56.4460182  52.3455381  24.0365458  17.6243985
  51.7253637  24.2446971  16.9256246  53.2065773  24.1680312  17.2274637
  48.6023283  32.9314351  22.2818232  48.8939047  32.7998471  21.3796592
  48.6280107  32.0576096  22.6716995  61.9951725  25.3230977  53.5172987
  62.0915270  25.1537204  54.4544506  62.7083349  24.8310900  53.1104136
  73.7672663   6.6952133  30.0664949  74.5829010   7.0753413  29.7401881
  74.0029860   5.8022392  30.3180218  81.6926479  14.7070193  49.2516899
  82.5605297  14.3722677  49.4774437  81.1489582  14.4937837  50.0100851
  33.2977128  76.5523577  19.2502189  32.8088784  75.7691383  19.5028925
  33.2709622  77.1121168  20.0262260  63.2980680  62.1654367  70.1383924
  63.1578064  62.8844070  70.7545424  64.1635132  61.8233490  70.3624916
  33.4132361  51.6218233  64.8051691  33.2273245  50.7377911  64.4886875
  33.3221459  51.5599155  65.7560110  35.7749653  29.0558195  39.2028403
  36.0509062  29.1331553  38.2895446  35.6320071  29.9585819  39.4871187
  44.8606586   3.1279445   4.0407234  43.9714193   3.4051692   4.2612463
  45.2555370   2.8984350   4.8819304  71.3059139  83.1138134  21.8130422
  72.1290159  83.5733700  21.6470671  71.0879660  82.7031136  20.9763503
  73.1477785  13.4392464  56.2860680  73.3595324  13.1631565  57.1777916
  73.1252384  14.3951583  56.3302898  48.4534979  11.5960515   9.7772312
  48.1611109  12.3231506   9.2276239  48.8786077  12.0166469  10.5246341
  72.7416754  35.3058887  23.2029676  73.0030632  36.1473060  22.8288984
  72.7071285  34.7110915  22.4537992  43.6162758  25.5218649  47.8360844
  44.5043039  25.4897308  48.1919003  43.5436964  26.3955259  47.4517965
  68.6362600  56.4118195  18.5648692  69.3970156  56.8620634  18.1977618
  68.1577301  57.0945692  19.0350795   8.2484180  80.7426453  70.8388567
   8.6180973  81.5727806  71.1396122   7.6618797  80.4717922  71.5451384
   3.6720943   7.8903973  17.0604026   3.8967478   8.3787930  17.8523827
   2.9313928   8.3677810  16.6866410  75.4362011  32.5052619  25.4576993
  76.0890293  32.6418972  24.7711277  75.9206390  32.0858526  26.1687851
  73.8919783  61.3726044  71.3531017  73.6464024  61.9161510  72.1017551
  74.5483971  61.8899822  70.8865547  89.0895653  78.4759331  62.8213787
  89.5677185  78.7364244  62.0341396  88.1733418  78.6647081  62.6185656
  18.8430369  22.4568319  20.4699135  18.0169785  22.9093957  20.6403446
  19.4534504  22.8235459  21.1095595  74.5071793  13.7439299  47.0548773
  74.4247437  13.3686078  46.1781931  73.6762619  14.1961217  47.2009277
  67.4507809  21.0624361  19.1343260  67.3522329  21.3710880  20.0350237
  66.6347980  21.3167524  18.7033606  26.6325450  74.0196466  24.7602344
  26.9412208  73.5350847  23.9946270  27.1235299  73.6478138  25.4929733
  28.5551357  83.1250668  24.9859858  29.4685721  82.9339886  25.1989460
  28.5794115  83.9938068  24.5848179  39.0639307  85.9886285  43.2322311
  39.6920063  86.5708072  43.6598063  39.2155601  86.1187665  42.2961187
  60.0835419  52.0617390  16.8520832  59.3519068  52.0714140  17.4692118
  59.8950481  52.7781296  16.2458825  63.9746761  26.0789371  37.8707933
  64.2312431  25.1568913  37.8554535  64.7059345  26.5239358  38.2991242
  68.9469767  65.3310776  18.7323976  69.4116831  64.5325184  18.9825571
  69.0293884  65.9047699  19.4941843  88.2565880  26.0331368  22.8884006
  88.2344913  25.8106685  23.8191271  87.6129532  26.7354012  22.7946544
  64.7151709  24.3802500  -0.0164785  64.6372557  24.2765379   0.9318909
  65.6579208  24.4258118  -0.1757826  86.1534405   0.3797566  14.2496562
  85.3103065   0.8312960  14.2113185  86.2566280  -0.0090400  13.3810818
  45.8408451  84.8844910  22.0159268  46.3147449  84.3100643  22.6173306
  45.0398159  85.1152992  22.4863720  57.6842451  34.5689964  16.1419189
  58.3741188  34.4348383  15.4920685  58.1493998  34.6273828  16.9764578
  82.8317356  18.8059735  22.5379443  83.6569786  18.5326648  22.9385829
  83.0654430  19.5629299  22.0007014  26.4789438  64.5145750  73.2242250
  26.9690180  64.7455120  74.0133572  26.5027022  63.5580063  73.1988811
  89.1669464   5.0112104  31.9009066  89.9522495   5.3219628  31.4503813
  88.7011433   5.8098620  32.1487141  60.4583406   1.2729818  24.1735697
  59.9133396   1.2165678  23.3886981  60.1491117   2.0589916  24.6238995
  28.5735488   3.2754317  31.4009047  27.9927254   3.8257068  31.9263315
  28.0894685   3.1227329  30.5893755  80.8374310  33.2075119   3.7558672
  81.2109566  34.0318012   4.0677303  79.9075460  33.2679510   3.9747310
  74.7000074  80.8820820  54.3024397  75.2528143  80.1561832  54.0131283
  73.9288616  80.8359051  53.7372541  74.7777605  36.0920572  14.4354761
  75.6222010  36.3709188  14.7895765  74.6389008  36.6562891  13.6748230
  39.3909001  25.1758170  13.5901022  39.5716572  24.4386649  14.1733384
  39.8544431  25.9137726  13.9860582  70.5892611  41.4594173  22.2973728
  70.3710890  41.9337368  23.0996537  71.3908100  40.9821463  22.5117517
  12.9439306  30.2892470  58.0938816  12.5697780  29.5964193  57.5496101
  13.8282979  29.9838114  58.2959604  64.2792797  38.2203293  19.0586698
  63.5426569  38.4701920  19.6165109  65.0317860  38.6742473  19.4380510
  36.6331792  32.0506549  19.1748583  36.8121910  31.2202811  19.6160650
  37.4876690  32.4773669  19.1116393  14.7422957  85.0980282  34.4717073
  15.4754639  84.7237110  33.9832592  14.9800849  86.0171700  34.5936155
  37.9528642  41.0217619  70.8729696  38.5741806  41.7147636  70.6494904
  37.2682261  41.0901642  70.2075195   0.7894845  84.6543884  29.0111113
   0.7188568  85.2396297  28.2569671   1.0694230  85.2219009  29.7293043
  11.7862976   8.3191311   2.9958302  10.8525360   8.5087103   3.0873817
  12.2146153   9.1686642   3.1010395  77.6958561  38.3987164  27.2011495
  78.2319117  37.8919268  26.5911984  76.8798780  37.9032803  27.2715330
  58.8931322  46.7473650  29.2249179  59.6290302  47.3427963  29.3668675
  58.6106205  46.9253540  28.3278441  29.9874616   2.8194046  14.0320706
  30.7419324   2.9556814  14.6051633  30.0286245   3.5422546  13.4059513
  37.0454121  65.5660391  18.6751938  36.4186954  66.2850809  18.7554133
  37.0782351  65.1782417  19.5497036  64.1704130  75.9457779  23.1176090
  64.2606783  76.6393089  22.4640799  64.9244499  75.3755856  22.9674625
  56.0715103  36.1964464  32.9792285  56.7574358  36.6579652  32.4967957
  55.9155607  35.4003572  32.4711394  90.9491475  21.4582443  45.1723099
  91.8523428  21.6682482  44.9348879  90.6178752  20.9523940  44.4302845
  46.1598063  25.1455641  31.1424661  46.0259056  24.5219612  31.8562055
  45.5895567  25.8832860  31.3588309  76.9813299  33.6032891  13.6813319
  77.8966331  33.3904982  13.4991920  76.9822550  34.5468497  13.8423514
  81.3197613  15.9966290  22.5876284  81.6286469  16.4095759  23.3940387
  81.2812042  16.7113638  21.9520974  88.6591339  17.6922965  31.0252047
  89.3156528  17.1189773  31.4208317  88.8398552  18.5556507  31.3969445
  36.0472250  29.3857884  23.4356093  35.5225968  29.1470909  22.6713967
  35.4344726  29.8390341  24.0146899  81.5095520  38.8416290  29.3994236
  81.2247658  39.0771985  30.2823925  81.3299942  39.6212316  28.8738680
  72.1887112   0.4371573  16.1705899  71.5773726  -0.2120240  16.5185297
  72.1485710   1.1623034  16.7941153   8.1899256  46.8641138  32.5781059
   8.9722317  46.3805389  32.3128152   8.1506658  47.6058912  31.9743991
  70.8824158  51.3489246  18.9928257  71.7211962  51.7325783  19.2487359
  70.2459526  52.0502710  19.1316116  56.9397926  72.4585867  69.7504330
  57.3219013  71.7319536  69.2582607  56.0307884  72.1968746  69.8969030
  89.4476891  24.8708057  38.3055115  88.8929653  25.6415272  38.4259629
  89.9866676  24.8377490  39.0958524  53.2185078  20.9791923  43.9771986
  53.1156826  21.2277579  43.0585718  52.5568676  21.4933228  44.4399405
  63.9686728  15.8314049  55.7328558  63.2647943  15.2848995  56.0823107
  64.7630739  15.4906690  56.1440182   6.5928388  14.2503262   6.3913572
   6.3349134  13.3629751   6.1417282   6.9966614  14.1488457   7.2532511
   5.3141493  17.2316253  28.6068273   4.7485074  16.6798055  29.1469908
   5.8425498  16.6124535  28.1031895  80.7211876   5.5855685  44.8393345
  80.5085564   5.3240389  45.7352257  80.3539753   6.4653105  44.7530890
  79.7484255  20.8944774  11.0509956  80.3617859  21.6285968  11.0839748
  79.7676516  20.5264354  11.9344020  20.4936552  42.8548002  22.3034835
  20.1703954  42.4081564  21.5210199  20.7066965  43.7386179  22.0039701
  63.1889629  78.3407736  31.4829087  63.8145304  79.0191889  31.2286472
  63.7315321  77.6323414  31.8292737  59.1543245   0.7148273  36.8742919
  59.1204929   0.1998301  37.6804328  58.3840942   1.2813431  36.9194889
  24.9674535  33.2328343  31.0461664  24.4906950  34.0412164  30.8578825
  24.5764732  32.9075122  31.8570518   0.3285499  25.7680488  52.3408222
   0.0180927  25.0183177  52.8485155  -0.0352457  26.5299177  52.7918673
  73.7138987  15.2616107  29.5476174  74.0136766  16.1297178  29.2778873
  73.4055138  14.8527467  28.7389398  38.4833479  44.6001053   3.2350793
  37.9840255  44.1491079   2.5542626  38.1193137  44.2709208   4.0568751
  13.0736721  58.7811279  44.3778753  13.9992893  58.7219429  44.6144390
  12.6375937  59.0570831  45.1840496   3.6832824  82.7614212  45.7080650
   3.7302908  82.7659225  44.7520351   3.4636384  81.8572712  45.9328079
  89.0056801  34.7216797  14.3058574  88.7264538  34.9635363  13.4228122
  89.8609352  34.3099713  14.1822839  72.7563143  20.6897020  59.9516726
  73.2069159  20.3809166  59.1656399  72.4557590  21.5698409  59.7252893
  53.1062984  13.5530865  26.5767670  52.4286985  12.9589653  26.2541056
  52.7218580  14.4252563  26.4886951  16.4297640  20.4492402  21.2153625
  17.0133650  21.1344767  20.8896470  16.5936816  20.4231620  22.1580625
   5.2828354  20.8201718  41.0592270   5.1720279  21.6064811  41.5937090
   4.5927519  20.8803892  40.3986263   4.5571709  63.7425470  15.0635266
   4.6230361  62.8129721  15.2821124   4.0604338  64.1241741  15.7872987
  77.9511642  31.5041447  20.6338143  77.8923130  30.5978560  20.9361553
  77.2741222  31.9660354  21.1282897  39.0011644  81.2335682  41.4361668
  38.8903260  82.1488476  41.1788559  39.1176319  81.2641525  42.3857641
  80.2207375   4.9463987  47.5395679  79.5054245   4.3333390  47.3700953
  80.3141880   4.9479818  48.4921932  71.0309124  63.5797977  15.6017184
  71.8884850  63.2367897  15.8530092  71.1584044  64.5268965  15.5470741
  65.9310102  13.2261026  31.4308357  64.9873114  13.3862782  31.4281058
  66.0163069  12.2939038  31.2309313  29.1348028  73.8496351  23.2875466
  28.5371566  74.1316509  22.5950766  29.3515158  74.6539211  23.7591362
  84.5749092  24.3618631  18.7152362  84.2648888  25.2634287  18.8006711
  83.7807465  23.8485503  18.5667741  22.0624971  30.2097154  19.0587199
  22.6996803  30.2701116  19.7704661  22.2439075  30.9723878  18.5094881
  68.2837105   7.7060622  23.0564404  68.7967873   8.1294930  23.7446928
  68.7316513   7.9421860  22.2441411  35.7257318  27.7101254  73.6849165
  36.1815858  28.0070591  74.4724798  36.2721181  28.0176163  72.9616261
  59.9178743  15.3241110  32.6170993  60.2880764  16.1988544  32.7354527
  59.0516233  15.3739452  33.0212688  32.7676821  81.9305325  46.6848516
  31.8820953  82.0898533  47.0113277  33.1133389  82.8026390  46.4946413
  11.5768182  66.7763233  18.2852674  11.6972840  67.7245951  18.2352352
  12.3941255  66.4506197  18.6623073  53.8285398  47.2882986  41.8661308
  53.7775850  46.7614222  42.6636505  54.6883774  47.0838642  41.4985466
  15.2073336   8.7708110  25.5938339  15.0223243   8.7030298  24.6571326
  15.1706958   7.8684694  25.9111190  64.5209980  31.7794514  65.9705639
  64.7063923  32.6638651  65.6548500  63.5985041  31.8043470  66.2247658
   4.9384686  73.6080408  63.5181713   4.7994059  72.9776812  64.2249537
   5.1506358  74.4270039  63.9659548  47.0887995   2.0596309  56.3319921
  47.2741604   1.1774712  56.6539669  46.2599087   2.2970708  56.7476797
   0.2166277  36.5007162  47.7933168   0.2100895  36.2417650  46.8718338
   1.1126137  36.3300848  48.0837059  69.9867392  22.1324563  28.8533306
  70.6388092  22.8301668  28.7882066  69.7355318  21.9540501  27.9470778
  87.0742798  21.8104959  16.0211945  87.6199055  22.5609398  15.7859159
  86.1763382  22.1242237  15.9139001  65.3665972  50.4653311  30.4685092
  65.0355959  51.3403606  30.6709909  64.7569895  49.8713779  30.9064841
  33.2955933   8.9468163  56.6816998  34.1980529   8.6332798  56.7407894
  33.0662799   9.1871643  57.5794077  26.9071484  51.2657881  47.5496674
  26.6965127  51.2987137  48.4828234  27.7136731  50.7522917  47.5041533
  66.1381483  31.4066243   0.4403791  66.9369030  31.9274759   0.5236366
  65.4842520  32.0221925   0.1091266  55.8789682  81.9054699  17.6515007
  56.1097288  81.0034370  17.4294174  56.5317440  82.4384022  17.1975136
  72.0991611  22.1885586  52.4852657  72.0228148  22.0186257  51.5463686
  71.2772608  21.8657279  52.8547096   0.6023290  50.6503439  49.6978331
   0.8447244  49.8835278  49.1787338   0.0812414  50.2966356  50.4186630
  11.7855871  50.9622955  22.8188086  11.6499639  51.1346436  23.7505460
  12.4080694  51.6335344  22.5391936  64.2771864  83.2391071  26.4876342
  65.1302719  83.4076214  26.0875368  64.0012550  84.0891838  26.8303537
  63.9402103   8.7745136   6.3943559  63.4023619   8.2772553   5.7781672
  64.8132086   8.3901453   6.3145930  68.4185600  41.6923952  29.4424820
  68.3807898  42.4602318  30.0127769  67.5336170  41.6150999  29.0859342
  14.0024436   2.6729065  54.9695921  13.1533432   2.5102428  55.3804445
  13.7926745   3.1511566  54.1674042  39.7291827  75.8629179  43.6145306
  40.2778387  76.5518236  43.2395411  39.0413857  75.7235670  42.9635715
  21.3602805   4.7985047  35.9879446  20.4172969   4.9294764  36.0872459
  21.4808989   3.8526735  36.0721231   7.0020372  26.3247943  22.6117063
   7.3571855  25.4673815  22.8461051   7.7143133  26.9373631  22.7951550
   5.5397445   3.0678609   9.5536667   6.4186722   2.8817669   9.8839492
   5.1546133   2.2054093   9.3984789  57.4900675  78.8518238  37.2251010
  56.5675545  78.5990334  37.1889830  57.9276657  78.1037521  37.6314664
   6.8137437   6.4204532  44.6978569   7.5190514   6.6132468  45.3155994
   7.0277894   6.9371927  43.9210749  79.6825075   5.9007955  27.6642823
  80.2677155   5.5818939  26.9772053  79.1611481   5.1361835  27.9087877
  19.3875623  25.1504874  13.3299172  18.8407719  25.5988836  13.9750481
  19.0034246  25.3858662  12.4853659   0.5030869  47.2115517  20.8793545
   0.3697037  48.1196594  21.1509871   1.2401957  47.2496653  20.2698874
  81.7739010  42.8955507  51.4951944  80.9250069  42.9462433  51.9345760
  82.4138832  43.0274630  52.1946573  67.8395081  34.7012568  44.6015930
  66.9724464  35.0991535  44.6797609  68.4490681  35.4260492  44.7406864
  85.5875397  72.0004606  36.0350418  85.2684402  71.0988617  36.0740614
  84.8235416  72.5345516  36.2525082  67.0073414  28.7287545  17.8816879
  67.6500416  29.3857741  18.1490767  67.3965406  28.3119822  17.1128845
  72.1590185  25.2326798  18.6212158  71.3771296  24.9290013  18.1600618
  72.7597904  24.4881415  18.5900438  68.6948490  50.5873251  17.5959122
  69.3539762  50.4047203  18.2655692  69.1726446  51.0547447  16.9107378
  17.4512053  20.3271699   2.9202422  17.4179184  21.0093117   3.5909188
  16.6108358  19.8752618   2.9963315  10.4449570  32.8014207  35.6304502
  10.1883948  31.8842697  35.7265902  10.2100050  33.0226541  34.7292924
  87.1101570  50.3852415   9.5294678  86.6787815  50.4489088   8.6773539
  88.0422306  50.3195524   9.3217564  87.6727867  35.3935337  33.4960485
  87.4534893  34.9577951  34.3196225  87.2162151  34.8840690  32.8265548
  66.1049461  10.1425242  14.3985176  66.4051723  10.6260896  15.1681030
  66.9038725   9.7769243  14.0186691   6.5648848  35.2806830  19.5527196
   5.8205920  34.8230362  19.9436414   6.3425624  35.3501487  18.6242914
  85.3302860  13.8469481  27.4887371  84.4385719  13.7847674  27.1463728
  85.3455734  13.2400525  28.2287884  13.4337986  10.0953186  22.0128155
  13.4118617  10.0585091  21.0565758  13.7306738   9.2251986  22.2792530
  49.1357040  83.7508488  46.7396069  48.4708786  84.0072060  46.1004543
  49.0114975  84.3564510  47.4703932  73.8507891  23.6257172   3.9962965
  73.7797213  23.7843943   4.9375737  74.0366793  24.4867039   3.6216253
  11.8226016  38.9735889  21.4668655  12.6196241  39.2716384  21.0285115
  11.7406631  38.0536532  21.2153935  56.5096617  14.8358202  38.5719228
  55.6178999  15.1009405  38.3467555  57.0153713  14.9952805  37.7750158
   1.6038486  15.1902425  22.2888255   0.6514616  15.1226640  22.3568225
   1.7606430  16.0923731  22.0098877   5.3933293  47.5632000  40.8405256
   5.5413556  46.7455959  40.3653002   6.2566638  47.8050470  41.1757803
  90.4105473  29.2889786  32.4689937  90.0495338  29.0791869  31.6076636
  90.2592659  28.5007405  32.9905581  75.0727129  50.9113216  49.3058014
  74.2003965  51.3006783  49.2450190  75.0947285  50.5072498  50.1732540
  22.4417591  17.0869517  31.2988853  22.4546289  17.7856946  31.9529676
  21.7781711  16.4742827  31.6159368  13.4781897  47.2903013  43.6732292
  13.0266953  47.8693295  44.2873240  14.1229773  47.8525305  43.2438326
   1.2513328  75.6883764  39.2021489   1.6880020  74.8905468  38.9037895
   1.9247293  76.3661385  39.1437483  84.1735649  16.9217753  14.7651935
  83.9665222  17.7954078  15.0970578  83.6894417  16.3270259  15.3380191
  82.5648689  79.3328810  71.5226412  81.7187119  78.9068222  71.3857746
  83.1947708  78.7608051  71.0842562   9.1591841  13.9985108  13.7313473
   9.0171891  13.0621850  13.8705027   8.9408779  14.1395545  12.8101087
  88.8022995  25.2822685  31.1070609  89.2256355  24.6184540  31.6514611
  88.3416653  25.8446050  31.7298174  77.8379965  38.3956242  13.5903335
  78.0713272  39.0992355  14.1959059  77.7260828  38.8332343  12.7464116
  88.8135815  68.1565094  56.5114069  89.1800117  68.0757284  57.3919964
  87.8658295  68.1308365  56.6430855  30.3412962  60.8549881  71.7022038
  29.8951530  61.4937019  72.2582912  29.6348333  60.3294754  71.3267326
   0.7794168  24.7855592   6.9214422   0.1127699  25.2173471   6.3872409
   0.8389070  23.9007378   6.5611845  74.1217232  49.5978069   0.1818619
  75.0123310  49.2470407   0.1846295  74.0068054  49.9665403   1.0576826
  72.3196936  37.8238583  15.2512324  71.4442921  37.4986982  15.0410509
  72.8598022  37.0358944  15.3114843  34.2387843  42.4041080  64.6521521
  33.2901382  42.4177599  64.5251989  34.5971560  42.6854801  63.8103485
  87.5417328  27.0074677  33.1395125  88.0581284  27.5539351  33.7319160
  87.1035671  26.3794231  33.7137985  53.4789801   0.6227246   2.1804692
  54.3442297   0.5307857   1.7815773  52.8697872   0.3371260   1.4996213
  87.7341270  49.3108654  61.0934305  86.8598843  49.5645237  61.3893747
  88.0245781  50.0428867  60.5493593  32.8307199  69.7383022  69.0067244
  32.5555611  70.4029989  68.3752966  33.3665037  70.2164173  69.6396351
  90.7837582   9.2985928  36.2111068  90.5113029  10.1058376  35.7748103
  91.7377853   9.2945570  36.1333418  82.8617382  54.0796375  15.6356645
  83.4713268  53.5146379  16.1104333  82.0312119  53.9804268  16.1010826
  26.3755417  49.0760612   9.9100280  26.7771578  48.9467573  10.7692230
  25.5217218  48.6487341   9.9779898   6.4354157  25.8928394  36.3201547
   6.3019878  25.9230947  35.3727818   7.3383409  25.5930400  36.4254069
  71.8483734  37.3656774  39.3333650  71.7983055  36.4097905  39.3346357
  72.7593899  37.5580907  39.5553136  80.1180458  37.5071168   1.9853123
  80.5717278  38.3058548   2.2544137  80.1890278  37.5013614   1.0307653
  52.4931955  48.1880760  10.8028448  53.3201551  48.4371519  10.3901267
  51.8213558  48.6074162  10.2652478  42.3262835   1.9840862  73.8943529
  41.4303255   1.7272364  74.1123390  42.4350119   2.8433144  74.3019533
  75.9365511  14.0960038  26.2864041  76.1222982  13.5668504  27.0621157
  76.7825508  14.4737673  26.0459685  67.5008440   5.6363857  15.7710266
  68.3169222   5.1480252  15.8794367  67.3173523   5.9922242  16.6404772
  54.0510416  15.2518046  10.9811521  53.8453770  15.4275012  11.8993366
  54.8624229  15.7337236  10.8209908  30.0666094  38.3240104   3.7500146
  30.7443857  38.9302397   3.4511188  29.4630671  38.2558489   3.0102012
  87.4720001  54.3525410  32.1564436  87.2211742  55.2379465  31.8930578
  86.8687916  53.7812948  31.6809940  35.5585384  14.6050584  18.2531571
  35.4643130  15.2655149  17.5667524  34.6705580  14.2758834  18.3923244
  84.6296692  81.4271641  14.4010091  84.2530346  82.0135117  13.7448215
  84.0813732  81.5510273  15.1757765  17.0563126  81.8057346  60.6460476
  16.1275244  81.8187332  60.4149294  17.4833107  81.3872719  59.8985195
  83.2915688  46.6909313  37.1710443  82.7601051  47.1552134  37.8177381
  84.1095352  46.4962769  37.6285052   9.2428911  28.4179449  14.6918905
   9.2959052  27.4707437  14.5644891   9.5870435  28.7885547  13.8792157
  58.0414581  83.2712269  16.5217996  58.1322956  83.9325237  15.8357525
  58.2406092  82.4434185  16.0844028  80.3355122  36.0443401  14.0355527
  81.1338902  36.5506220  13.8855755  79.8544788  36.5452194  14.6943104
  89.2434311  27.8734827   1.1212809  89.3310738  28.5107708   1.8300939
  88.5754585  27.2616100   1.4305566  91.6073799   1.7918944  19.9658298
  91.2372017   2.5975978  19.6052110  90.8607006   1.3404515  20.3594065
  19.4464934  38.5939264  16.1694419  20.3907800  38.7089324  16.2758684
  19.1205132  38.4542513  17.0585191  83.3272743  55.3984404  42.7395010
  84.0145397  55.7522297  42.1749353  83.2442474  56.0389948  43.4459257
  27.7782226  68.2502604  54.4850397  27.8091741  68.9744806  53.8599157
  27.1774578  67.6183891  54.0900040  70.5270338  43.2894468  39.9487853
  70.8008337  43.4483814  40.8521175  69.9943352  42.4955845  39.9961257
  89.8200798  15.0764132  20.2262211  88.9157867  14.7666919  20.2767992
  90.1558113  14.7033024  19.4111693  79.0807056  57.0678425  45.1524782
  78.3901310  56.4216375  45.2999878  79.7417355  56.5997696  44.6424007
  77.2370815  18.8379872  28.1336164  78.0358887  18.3347881  28.2915258
  76.9191599  19.0632725  29.0079188  15.8980465  36.1486554  58.9782238
  15.8485961  35.8424950  58.0726576  16.3586521  36.9859385  58.9231634
  83.7462997  36.0989523  37.2935009  83.2625580  36.1027503  36.4675403
  83.5857296  35.2298665  37.6611161  55.2261448   5.7543188  59.2769098
  54.8140669   5.2163666  59.9529457  55.0982523   5.2605575  58.4669209
  73.5584545  37.6480889  61.7770672  74.4738770  37.8357124  61.5696192
  73.0876350  38.4415793  61.5222454  60.7413244  22.7692437  24.8056054
  60.0966120  22.0865273  24.9912810  60.2205515  23.5174513  24.5137024
  78.1086779  40.0693893  22.1982646  77.7319479  39.6680999  21.4151478
  78.9789820  40.3586197  21.9241333  85.3094959  19.7598028  14.2725527
  86.1235332  20.1263547  14.6178305  84.7182655  19.7385609  15.0250292
  86.2241650  42.0286274  27.2193003  86.2136936  41.1423397  27.5807071
  87.0338058  42.0702171  26.7103910  75.1026392  33.6141205  11.6994274
  75.1548481  34.4923687  11.3223481  75.7337427  33.6245275  12.4190331
  78.4548140  75.7309914  54.2563009  79.0850258  75.5508041  53.5587358
  78.9932871  75.9847593  55.0058889  14.3120039  27.2094202  11.4142966
  14.0030956  28.0509090  11.7500091  13.5816276  26.8770385  10.8924675
  86.7694950  38.3272886  50.5386257  86.6660118  37.3828506  50.6550694
  85.9442234  38.6120725  50.1461267  76.3866615  16.1046267  17.7967548
  75.8829737  15.5838823  18.4223402  76.7283297  15.4644692  17.1724999
   3.1971872   7.0185512  47.0603514   3.9754233   7.5732458  47.0065498
   2.5130492   7.5976628  47.3962307  83.7699699  63.2198763  36.5323472
  83.3893108  62.6160908  35.8945537  83.7943840  64.0627289  36.0793233
  86.2474632  25.2119613  42.5104427  86.3279915  24.2728615  42.3435926
  86.2581348  25.2874851  43.4645987  76.6825294  16.2301600  10.9766579
  77.0064831  16.8819177  10.3549683  77.3954391  16.1250126  11.6066837
  72.1419430  33.8332915  64.2593622  71.4873314  33.8150406  63.5612345
  72.9782152  33.9178228  63.8013935   7.8221214  85.0494194  74.0012932
   7.5741863  85.9315586  74.2780447   8.6838120  85.1579666  73.5988760
  30.1195645  83.2566547  37.2649956  30.4861498  82.7524281  37.9913592
  30.3748775  84.1608047  37.4481583  86.2015533  13.9729726  44.3363762
  86.3434315  13.0489349  44.5419407  85.3333187  13.9982975  43.9341736
  75.6309175  14.6580219  21.2441945  75.3977013  14.6250749  20.3164244
  74.8311806  14.3982780  21.7015624  67.8073740  41.0239029  72.1484804
  66.9156504  41.3535690  72.2597551  68.0412102  40.6711817  73.0070496
  78.1537008  52.9933453  38.0230379  77.5973988  52.2189999  37.9384780
  78.6320257  53.0361938  37.1950293  47.7155781  80.4451180  72.7076769
  46.9825697  81.0559464  72.7839279  47.7248144  80.1962471  71.7834425
  68.4896135  10.9624875  12.0018852  68.3708763  10.3501523  11.2758136
  69.1054916  10.5225992  12.5879085  83.3490849  51.2454224  19.9670994
  83.3830547  51.4906979  20.8917165  82.9760838  50.3638840  19.9667048
  65.1864195  10.2076554  28.3812881  65.9269762  10.8019757  28.5020781
  65.3472853   9.4956177  29.0004444   8.1220543  45.4938459  12.2103810
   8.2596982  44.9429464  12.9809606   8.8149911  45.2339840  11.6033053
   4.4156763  39.6617651  59.2717409   4.7195876  39.0373373  58.6129856
   3.9709091  40.3436136  58.7682581  12.1866989  40.9783316  29.0969205
  12.2944212  40.1259327  29.5188737  12.2597373  41.6104794  29.8119617
  79.8057032  18.6449361  34.2525339  79.9656391  19.5192122  33.8971543
  79.4241953  18.1560946  33.5233450   0.3938101   7.4265426  19.0079284
   0.5015766   8.0434471  18.2840180  -0.5521139   7.3849958  19.1484046
  74.0618849  53.7530899   5.7085377  73.2599688  53.7041950   5.1881826
  74.0291834  54.6175385   6.1182898  90.2688503  37.4601579  15.4291034
  89.8893547  37.1816659  16.2625623  89.8795509  36.8734121  14.7807157
   9.0956694  72.6573896  66.5601683   9.9741733  72.6216650  66.9385672
   9.1867751  72.2403669  65.7034159  36.6587281   0.3481035  37.7265239
  35.7731485   0.6883556  37.8538418  36.5602541  -0.6024473  37.7811861
  56.1514807  25.7094789  24.2162871  56.2373686  26.3984966  23.5574198
  56.3025904  24.8966384  23.7339115   6.5458471  57.8781366  61.2431192
   7.4452686  58.0895472  61.4932775   6.0184735  58.5747433  61.6340780
  18.6120105  86.5174961  11.1148906  18.0042934  87.0897484  11.5833366
  18.3635366  85.6330299  11.3836002  76.7432404  18.6792207  18.6489177
  77.3568392  18.5131299  19.3645608  76.8220758  17.9114318  18.0827749
  12.1712017  42.8266239  31.2845325  12.3566556  42.0952368  31.8735242
  12.9581130  43.3702755  31.3226008  50.7413435  28.2325673  74.7619677
  51.1987638  27.4000788  74.8801184  50.3312349  28.1603026  73.9000940
   2.1213239  12.0008767  10.3263628   2.1983488  12.0091879  11.2804234
   1.1807501  12.0668173  10.1614249  63.0347681  51.0393095  10.1705086
  63.1935692  51.1011314  11.1124170  63.2456350  51.9103956   9.8343873
  24.5612860  73.8179398  30.4893208  25.0277328  74.4744253  29.9719310
  23.6375570  73.9645910  30.2857304  12.4115551  54.6545219  61.0774326
  11.4815354  54.7621584  60.8781576  12.8512990  55.3003120  60.5244255
  73.0292463  13.3167243   9.3804348  73.3164501  12.7231991  10.0743186
  72.5645065  14.0158033   9.8403627  46.5792704  46.0875273  10.0893223
  46.5333462  45.2849197  10.6088829  47.3488855  46.5467644  10.4255128
  53.2404423  41.5907526  11.0302484  53.1704569  41.5131330  10.0787711
  53.5720634  42.4770117  11.1745083  30.1021361  26.4239407  56.0486555
  30.9344530  26.6373062  55.6268120  30.2047491  25.5165577  56.3356400
  26.0379744   9.6116787  33.3301115  26.9831395   9.4750184  33.2651472
  25.7883263   9.9679744  32.4774909  77.3032045  45.5902386  39.9939322
  77.4146175  45.7118702  39.0510488  77.8143883  46.2967443  40.3886175
   8.1478357  82.0104313  74.6272659   8.5817015  82.2352219  73.8041878
   7.7368140  82.8266335  74.9120617  26.5523553  48.7700653  12.5964844
  26.4592886  49.2306137  13.4304297  26.7946696  47.8771162  12.8417516
  84.0830040  64.9607849  58.5526943  83.2866859  64.5460796  58.8845491
  84.3855667  65.5108452  59.2752743  29.9117136  33.3518004  72.7138329
  29.9051332  34.2984962  72.5725651  30.5157232  33.0150723  72.0520067
  53.5809469  37.9439998  27.0637298  54.0142632  37.3834324  26.4201188
  52.7357388  37.5221515  27.2183180  56.2726498  76.8425226  46.7745018
  56.5128231  77.4594593  47.4658346  55.3314352  76.7102575  46.8878937
   2.4070548  77.5201178  71.4362526   1.9694003  77.7793789  70.6254053
   2.7608183  78.3365631  71.7891026  76.2590456  54.1802168  39.7617865
  76.9193506  53.8235617  39.1676235  76.6764259  54.9492598  40.1498556
   9.1960227  11.6838765  27.4925089   9.1247451  11.8075490  28.4390068
  10.0250626  11.2205136  27.3732662  70.8621359   7.2256058   7.6896220
  70.7841301   6.5081280   7.0608354  71.5958977   7.7485180   7.3665315
  44.7614861   0.7676243  64.1843033  43.8809824   0.9100259  63.8369226
  44.7085285  -0.0765256  64.6324539  88.7341499  13.2099414  15.9978652
  88.6577988  13.2125139  15.0437188  88.8890934  12.2926545  16.2232733
  75.5952549  34.1773438   3.8200238  75.7913876  34.2566919   2.8864989
  75.2257109  33.2993007   3.9133370  54.8178196  42.4889088   4.5107323
  55.5079603  41.9542122   4.1182628  55.1416302  42.6913786   5.3884470
  53.2840109  72.7394390  17.3485315  52.8878212  73.5691023  17.0822239
  54.2233133  72.8698921  17.2184265  18.8070178  47.6753664  24.2790270
  19.5154214  48.2860708  24.0754700  18.3185971  48.1013203  24.9834704
  23.6094689  42.9266787  29.9890900  23.1115079  43.5395670  30.5300450
  23.3542800  42.0618248  30.3102350  75.8304071  13.1155157  54.9190044
  75.5997276  12.1869421  54.8912764  75.1599455  13.5123634  55.4750872
  51.5752268  39.8573112  26.5080070  51.6038799  39.4765091  25.6302810
  51.3811684  39.1176677  27.0837665  54.2383242  25.1135111  52.1698380
  53.4082556  25.4325986  51.8157148  54.0045071  24.3185258  52.6489687
  16.4301336  24.3647742  28.4918904  15.9431112  23.5414314  28.5257959
  16.2699926  24.7729897  29.3427396  17.1378660  71.4774466  54.2480135
  16.6709673  71.4360142  53.4134340  17.7150726  70.7139301  54.2377043
   9.6180928  57.0378685  54.2513180   8.8623947  57.6087141  54.3901873
   9.6398687  56.8952799  53.3050489  35.4606199  20.8756113   6.6516829
  36.2565899  21.2498021   7.0293665  35.7448053  20.0462699   6.2674135
  69.3464184  23.3277225  44.2399168  69.2351151  24.1013432  44.7925091
  70.2902174  23.1681347  44.2385530  63.0849504  48.6495209  44.1064548
  62.7866697  47.7405310  44.1380310  62.3212194  49.1419029  43.8056135
  79.6155262  41.6659689   4.3010199  79.3075228  42.3747778   4.8657829
  79.7947598  42.0893526   3.4614629  55.1281786   1.5388288  58.8957834
  54.1724491   1.5224756  58.9462280  55.4158211   1.5626012  59.8084354
  48.2277584  23.2522607  47.6037550  48.7959766  23.7157512  46.9885015
  47.6930332  22.6811337  47.0522881  86.7264366  32.5127769   9.1340315
  86.1778831  32.5645614   8.3513188  86.7064667  31.5878654   9.3797392
  23.1852126  48.0460882  40.2395773  22.7120161  48.4002733  40.9924793
  23.9715219  48.5880184  40.1743269  78.2937765  53.2036018  43.5198975
  79.1712618  53.0840063  43.1566429  78.4143066  53.8256264  44.2373848
  27.7999544  60.0449800  21.2499166  28.3764267  60.7659817  20.9968042
  28.1819487  59.2742109  20.8301234  -0.0907919  10.9222627  17.1306801
   0.2214410  10.4787874  16.3419628   0.3832605  10.4994631  17.8467453
  40.5342913  50.7589483   9.3038976  40.0815153  51.5552616   9.0261942
  39.9757624  50.0456858   8.9948177  90.0218487  53.9113188  30.9412766
  89.1270542  53.8295078  31.2712336  89.9923038  54.6662235  30.3535008
  33.5065818  52.6076078  14.5811129  32.7154422  52.4655676  15.1008773
  34.0113401  51.8013668  14.6880031  70.0955439  52.1019888  41.0755491
  69.2775583  51.9976997  40.5894947  70.7622099  52.2227478  40.3993797
  77.3106813  57.2377777  26.6667175  77.0090389  58.0434036  27.0864916
  78.1952953  57.4423313  26.3636518  87.0438480  58.5812569  10.6210649
  87.1150017  59.5311832  10.5271816  87.8873634  58.3127165  10.9852004
  81.3317680  83.5504627  14.2524803  82.1073437  83.9175415  14.6767104
  80.7086754  84.2764950  14.2229939  69.9045420  27.5139689   9.9494296
  69.1221380  27.5701261  10.4979932  69.8473644  28.2752562   9.3720174
   7.5918615  23.9797640  49.7751522   8.3818322  23.7893271  49.2692757
   7.4085009  24.9017859  49.5949173   1.3383932  62.5778770  18.4915316
   1.3768256  63.2890797  19.1310179   1.9587629  62.8352356  17.8095198
  23.2501721  46.3274956  51.9252920  23.2532930  45.4176378  51.6279936
  23.5266829  46.8306732  51.1594057  15.4504311  48.8986301  21.7776108
  14.5016205  48.8253641  21.8806720  15.5716884  49.6605778  21.2110758
  86.4018536  33.0503416  32.5854468  87.1488667  32.4656129  32.4577975
  85.7143593  32.4866676  32.9401970  60.0374508  68.7322092  41.7687988
  60.6310081  69.4664574  41.6113138  60.5928421  68.0531311  42.1517181
  90.2863979  63.3290720  16.9527221  89.3378448  63.2095098  16.9995785
  90.6429863  62.6346636  17.5066841  83.6048794  32.7860069  25.3366613
  84.3267918  32.2902846  25.7231021  82.9450989  32.8273034  26.0289145
  85.8225918  68.6807823  48.3040953  86.6937828  68.5530329  48.6795235
  85.8026695  68.1013107  47.5424862  82.5438499  74.0070486  14.7575021
  82.4547386  74.9594545  14.7922647  82.1484089  73.7598419  13.9215899
  15.5320501  56.5738010  47.2265530  15.7986414  55.8392334  46.6737652
  14.6215379  56.7394304  46.9820786  70.6702948  25.3882670  74.7527361
  70.1079226  24.6392512  74.5553970  70.2057457  26.1400390  74.3849516
  14.9992836  76.2388182  68.8612318  15.5609953  77.0062160  68.7525511
  15.5937898  75.4931927  68.7785292   2.4960402  47.3098803  15.2330494
   2.0085594  46.5470123  15.5438948   2.1768078  48.0338812  15.7717013
  63.6168337  35.2694798  24.8654413  63.7720823  36.1420321  24.5038009
  64.2724705  34.7148490  24.4426489   5.0346464  83.6176872  72.8834581
   4.6678758  84.0803528  72.1300316   5.9282339  83.9525318  72.9583693
   8.9939886   5.4472166  68.3488417   9.8271006   5.2277815  68.7659788
   8.4798139   4.6416169  68.4023666  81.3916874   6.3882273  18.9691043
  80.4705524   6.1310434  19.0089834  81.4154434   7.0944625  18.3234262
  91.5167809  31.0900879  16.2955129  91.6873074  30.1835608  16.5511763
  90.9208488  31.4204836  16.9677746  49.2562389  27.5013256  52.4400473
  49.0886450  28.4314489  52.2883415  49.1492176  27.3896265  53.3846617
   1.1474920  64.0327120  51.3757420   1.1615750  63.4118128  52.1041059
   2.0687494  64.1521358  51.1449718  16.7192113  69.6544456  24.8328161
  17.3716652  70.0457001  25.4137230  15.8809865  69.9816275  25.1592517
  81.6542435  77.9261827  30.2787709  81.0113621  77.4045467  29.7983217
  81.6652393  77.5439215  31.1562634  87.5348854  54.3075371   5.6605846
  88.1495380  54.1448593   6.3761067  88.0890656  54.4045067   4.8861694
  14.3812490  24.1360450  42.2595739  14.1113126  24.2074776  43.1751394
  14.4744742  23.1952024  42.1100616  45.7893658  81.7880154  39.9087381
  45.8215618  81.3013935  39.0850925  45.3330708  82.6003456  39.6893096
  69.7812405   5.1675354   0.8357154  69.7879079   5.9754072   1.3490687
  70.3940758   5.3338276   0.1194678  63.1820917  56.5922070  27.0358324
  63.2031631  56.3874245  27.9706335  64.0745354  56.8716621  26.8316817
  15.1669014  44.5694351  57.6290989  15.7422781  45.3249168  57.5089931
  15.3836131  44.2395544  58.5011339   4.1784450  53.9948606  22.6928782
   4.7549883  53.5266542  22.0890450   3.8128933  54.7085428  22.1701407
  89.8620319  49.9431419  10.2860200  90.3246880  49.3897724   9.6567655
  89.4492531  49.3256998  10.8898473  62.4477816  31.8447924  45.0289583
  62.6202488  30.9100175  44.9163294  63.3002663  32.2622156  44.9054623
   7.6123601  23.4187174  32.1063876   8.2889092  22.7549171  31.9726634
   6.8567961  23.0924892  31.6175818  86.2375355   0.8237810  17.0842266
  87.1446514   0.5262128  17.0146835  85.9312916   0.8723071  16.1786377
  81.2605572  78.8843679   9.3005913  81.7451859  78.4561110   8.5949254
  81.9097042  79.0154743   9.9917173  69.5933485  40.0170517  47.9523277
  69.2184496  39.1365194  47.9336596  68.9603424  40.5569601  47.4790096
   2.5173923  59.0747595  16.9984913   2.9200503  58.4322071  17.5826383
   2.9936299  59.8869324  17.1711206   8.9257473  70.3779078   5.9137040
   8.8567728  70.7911921   6.7743272   9.6684712  69.7794819   5.9942120
  74.1414213  50.0270891  21.2855744  73.9074850  50.8330107  21.7460084
  73.5180283  49.3767881  21.6091800   6.4365166  67.4849272  59.9184752
   5.5651176  67.0892715  59.8997211   6.6559267  67.6247978  58.9973211
  89.3568134  59.1936302  25.4845357  90.1212978  59.7241879  25.2602386
  89.4534588  58.3998394  24.9584317  83.4006786  51.4155817  47.1008348
  82.6054859  50.9501982  46.8413639  83.9117908  51.4844608  46.2944603
  80.2094269   2.6469895   0.8483084  80.5202675   3.4109429   0.3625254
  80.5671120   1.8980941   0.3713970  67.8897810  43.2175589  41.8854380
  68.0448532  42.5943613  41.1756420  68.7420940  43.6265373  42.0355606
  89.7742462  84.9814796  62.1878958  90.3118801  85.5528545  61.6395187
  89.1284180  85.5671501  62.5830269  64.0812349  61.8443298   7.9638594
  63.6220551  61.2137890   8.5186613  63.8336325  62.6988888   8.3169222
  43.4364939   7.9136229  59.9092674  43.0274868   7.8512812  60.7724380
  44.0988731   8.5976875  60.0069332  16.2772512   4.7298869  12.1537638
  16.0539389   4.9385387  11.2466657  16.2490523   3.7739304  12.1935558
  65.2497101  26.7163730   8.8105685  64.4814825  26.4232516   8.3205283
  65.7826090  27.1808243   8.1651747  90.3021622   5.1524961  26.2970495
  89.9793816   5.4860324  25.4599142  90.2212048   5.8936077  26.8974090
  76.8128824  37.5614953   6.7997664  77.6079464  37.9197073   6.4050633
  76.8170309  36.6373873   6.5502852  68.7661409  46.1266708  34.8200750
  68.5588074  46.4605761  33.9472890  68.0434227  45.5344391  35.0278640
  87.0190239  81.1292458  16.0024965  86.7284107  81.9814682  16.3272977
  86.2637901  80.7841873  15.5262733  81.3057899  39.4231415   4.8470044
  81.1132908  39.7912431   3.9846361  82.0861626  39.8939204   5.1396132
  62.7361107  65.2133274  29.8699403  62.1659899  65.4929924  29.1537166
  62.2127724  64.5780277  30.3585505  66.6159630  42.6992750  52.1851730
  66.6321087  43.6536121  52.2573614  67.4707317  42.4722815  51.8190098
  68.7388277  60.3025961   2.5819853  69.0280151  60.8411598   3.3185670
  67.9076385  59.9267006   2.8719097  12.2632658  62.4573421  13.2832468
  12.7347851  63.0351686  12.6832306  12.1516001  62.9777956  14.0787911
   8.9148301  35.4946780  21.0380840   8.9413595  36.4126134  21.3081336
   8.0181915  35.3612590  20.7307243   7.2326207  62.7965450   4.4220179
   6.3663828  62.5820017   4.7681916   7.7389038  63.0605745   5.1902616
  87.2557640  71.2479258  34.0945625  87.4157333  72.0526171  33.6015010
  86.7520809  71.5307999  34.8577857  75.6651831  38.1114435  38.2305861
  75.4043198  37.5727701  38.9775920  76.2674570  38.7573528  38.5997725
   5.0934166  57.4266243  17.7899206   5.6523794  58.1348085  18.1097102
   5.6237847  56.6367674  17.8951371  61.3354635  41.0686493  46.4078617
  61.9677782  41.7868423  46.3832521  61.6167879  40.4778099  45.7092905
  14.9840355  65.6047153  25.2005458  14.6439135  65.8251953  24.3334007
  15.8822858  65.9354162  25.1966929  23.8870478  45.4119444  68.4610033
  23.9409041  44.7221518  69.1224575  23.0113888  45.7822847  68.5719013
  77.3956060  18.6932194  65.9371471  76.7903471  18.9597070  65.2451372
  77.7706861  19.5139503  66.2564421  23.7677813  85.3667736  21.9345784
  24.5615602  84.8985863  22.1933293  23.9118576  85.5928898  21.0156965
  26.3289189  80.6313992  22.0066810  26.7355061  81.1070538  21.2823415
  25.5336237  81.1269093  22.2021604   9.7388399  31.6629791  28.7368751
   9.0250808  31.7647195  29.3665004  10.1913035  32.5063944  28.7493873
  19.9859571  53.3810472  62.6966333  20.4413533  53.3128452  63.5357952
  19.8253727  52.4738789  62.4368477  88.2308006  13.7681592   8.4324503
  87.8733253  14.5735252   8.0585134  88.0155563  13.8203299   9.3636769
  91.0971832  51.8621349  75.0228643  91.1348629  50.9838867  74.6440554
  90.5045986  52.3459148  74.4475079  83.4509468  56.7639637  53.1547165
  82.5712967  56.3934326  53.2265234  83.4700966  57.1692085  52.2877455
   7.1388572  45.9403181  57.2597075   7.3468286  45.9296656  58.1939793
   6.4164537  45.3190613  57.1680450  81.4681053  12.7462554   4.0056512
  80.7686138  12.5373220   4.6247512  81.4896965  13.7029338   3.9825916
  21.1991787  38.4983492  72.2780991  20.4776073  39.1270041  72.2591496
  21.0223770  37.9086351  71.5451527  66.2496710   6.9206786   5.8212465
  66.0697794   6.0487354   6.1727941  66.9756699   7.2479498   6.3523334
  89.0119553  72.7452850  46.9826174  89.4925499  73.5562468  46.8164825
  88.3291340  72.7298594  46.3119793  81.8286514  60.1210737  43.6039162
  80.8896828  60.2268124  43.4509850  82.1674061  59.7699451  42.7803946
  23.0287933  31.4135790  54.7443581  22.3610830  31.6096520  55.4015875
  23.8405657  31.3311887  55.2448273  17.6530945  74.0637445  54.6069098
  16.9811606  74.5290041  54.1086483  17.5507700  73.1475067  54.3494701
  29.6797538  73.5934210   4.7208449  29.7460556  74.5387936   4.8554143
  30.4621100  73.3676672   4.2176729  86.8170738  19.9517119  61.5112162
  87.3662949  20.6743813  61.2073278  87.0634842  19.8329306  62.4284983
  20.3470588  10.0177908  52.7772141  20.6612659  10.7759130  53.2699203
  20.9722137   9.3226945  52.9827690  49.0496397   9.2597467   4.4923577
  49.2868662   8.4022534   4.8454320  48.8400507   9.0908980   3.5737747
   4.6799093  78.3847666  12.3407865   5.6308335  78.4452963  12.4319530
   4.5473620  77.9420471  11.5025353  88.0297947  64.7644138  23.0651355
  88.3200455  65.5021858  23.6014938  87.4958611  65.1632357  22.3780465
  87.6492023  15.9488392  66.9776058  88.1330395  16.1603844  66.1792421
  87.1791077  16.7542708  67.1932936  15.3518927  56.5343523  38.0998516
  14.7267425  56.0930157  37.5248361  14.8230124  56.8461943  38.8342023
  70.4494810  75.0181770  45.7395792  70.7122850  74.9039173  44.8262882
  70.1304960  75.9194660  45.7860565  85.1734543  74.1614103   5.1590717
  84.7118282  73.9236355   4.3549597  85.2597809  73.3373308   5.6383061
  26.7492795  80.0966835   9.4047391  27.4613500  79.5078707   9.1547680
  26.0288191  79.8632908   8.8193321  51.6979647   4.9577218   3.5249960
  51.0879326   4.2378476   3.6858666  52.5641346   4.5704868   3.6515996
  30.3364921  71.4885902  22.2193503  29.7866964  72.2487736  22.4092913
  30.0979543  71.2374449  21.3270187  25.9121418  60.7050133  51.0186052
  26.8268156  60.8855343  50.8017683  25.6083989  60.1301813  50.3160810
  35.9542561  46.6388321  10.7771158  36.6395736  46.2829971  11.3427627
  36.1091089  47.5834179  10.7784057  23.3983970  66.5687513  66.5427160
  23.7039471  66.6540241  65.6396103  23.0250955  65.6884623  66.5871525
  20.5926871  39.8241568  32.5973129  20.3736639  39.9790335  33.5161567
  19.7454989  39.7323036  32.1613455  15.2812874  35.5196476  70.2671051
  14.4141459  35.2293515  69.9842167  15.2633166  36.4703298  70.1570463
  47.4608231  79.9854183  26.7290545  47.5778103  80.5509758  27.4923992
  48.1713295  80.2321720  26.1370063  75.6130552  26.6438890  64.2635870
  75.9596586  26.7068934  65.1536036  74.7383308  26.2709141  64.3730497
  77.0309973  21.3261509   1.6226214  76.2567139  21.8221998   1.3568223
  77.4069643  21.0105133   0.8008835  90.5447006  18.1659138  46.0610914
  90.2707767  18.6139250  45.2607870  89.8381615  18.3353746  46.6842508
  59.2695618   1.3365731   5.1807201  59.9615908   1.8969055   4.8295045
  59.0289593   1.7456180   6.0119987  62.9373503  82.5873852  71.8009043
  62.0626307  82.2860336  72.0464182  63.5325623  82.0060539  72.2741985
  73.0930519  66.6263723  70.3280640  72.9448509  67.5362873  70.5856037
  73.6541319  66.6846752  69.5547438  25.2095199  56.1824894  57.8586817
  26.1287713  56.2166882  57.5940323  25.2376962  56.0930252  58.8112736
  55.0637436  59.0218115   1.0501805  55.0487471  59.6013260   1.8118685
  54.3870926  59.3710327   0.4701676  42.9474974  13.0875921  36.2110066
  42.7169180  13.8196433  36.7829919  42.4510241  13.2454658  35.4079986
  55.3213787  18.6861718  17.9276264  55.4538822  19.5870268  17.6324391
  54.5027208  18.7143624  18.4228384  10.3108266  63.6507977  75.0863623
  10.0598005  64.3471969  74.4795288   9.6293167  62.9865278  74.9837634
   9.5127672  65.3851604  72.9438448   9.2173517  66.2288952  73.2860088
  10.2646911  65.6004810  72.3920488  79.6895266  28.3151007  58.6573648
  80.3147888  28.8471103  59.1495466  80.2285862  27.6581335  58.2168674
  79.5576191  22.5248408  71.0647249  79.6245718  22.1061707  71.9228983
  80.4447460  22.8322530  70.8783388  74.4757700  36.3583589  56.5210819
  73.7430954  36.0750580  55.9741306  74.1860008  37.1890903  56.8981171
   2.2387849   7.3060346  27.8830171   2.7263007   6.4855087  27.8102326
   2.2947946   7.5364584  28.8103795   3.5294527   9.3471557  65.6076288
   2.9747620   9.7902590  66.2496662   4.0178812  10.0535822  65.1849842
  76.9182396  68.5695171  34.4336867  76.3843679  68.7218475  33.6539388
  76.3170433  68.7058163  35.1659560  18.6838841  60.7778597  12.4070215
  19.1088474  59.9251127  12.4990213  18.0313826  60.6473017  11.7189610
  82.7542019  21.4059949  73.3959484  83.2412815  20.6601286  73.0457067
  83.1746769  21.5939283  74.2350626  27.8171849  40.2165270  59.5817566
  27.1249795  40.5764580  60.1363087  27.3891354  39.5170856  59.0880108
  25.4700303  63.7134933  30.2852297  26.4123678  63.8268471  30.1612043
  25.3060460  62.7996016  30.0525331  23.9428425  54.9347353  53.9218903
  23.4944296  55.7599783  54.1066313  23.3796573  54.4932175  53.2861853
  17.3872387  68.3747768  28.0380416  16.4802337  68.6453676  28.1807113
  17.4482095  67.5137520  28.4517479  36.0141802  43.6224699  56.5007639
  36.6228819  44.0886927  57.0737839  36.1288142  42.7000666  56.7293882
  28.8235021  80.4911327   2.3898870  28.6803579  81.2539387   2.9501304
  27.9470801  80.1372814   2.2385351  24.6040893   5.1036781   3.4123793
  25.0156617   5.8621782   2.9982319  24.1443157   5.4647422   4.1703182
  22.6213861  26.6773891  71.4665127  23.3303356  27.2454429  71.1649561
  22.7435064  26.6245961  72.4144220  85.4916573  23.9724469  55.7428598
  85.4311466  23.2862210  56.4074421  84.7487164  24.5480061  55.9245491
  43.9521837  24.9245143  18.3956349  44.0710878  25.7833171  17.9899836
  44.8157167  24.7024703  18.7438262  48.8817215   1.4062724   6.3933682
  49.2156887   0.7914536   7.0465887  49.5366430   1.3933581   5.6954092
   2.6153240  36.6551304  71.4902544   3.0109462  37.0884085  70.7339573
   1.9605997  37.2772574  71.8073130  31.0079598  81.6401100  15.3250968
  31.0859179  81.5258026  14.3779480  31.1245990  80.7600117  15.6829596
  81.7469978  54.6518517  50.6243944  80.8257961  54.7399759  50.8690500
  81.8993950  53.7071419  50.6014347   6.4786953   2.0328382  29.0999889
   6.8957543   1.7145240  28.2993817   5.7381660   1.4416932  29.2356181
  89.6647358  59.4996500  51.5098619  89.0974426  59.5103598  52.2807693
  90.2735519  58.7787008  51.6705036  13.2965970  62.7920580  24.2006302
  13.3046913  63.6263609  24.6697879  13.9677167  62.2661352  24.6356416
  52.0936203   1.0574284  23.7233377  51.7887974   0.6199335  24.5182657
  51.8959427   0.4398461  23.0192423  47.5843763  76.0424185   9.7978944
  47.1494532  76.6572666  10.3886878  47.0596123  76.0671902   8.9977443
  23.0227780  83.7914371  14.9471998  23.7959623  83.2447815  15.0871563
  22.2843623  83.1884956  15.0334251  44.4771004  10.8601081   7.4631745
  44.8592997  11.1551011   8.2896942  45.2244568  10.7720816   6.8716180
  32.3364258  86.0828495   9.3201441  33.0752802  86.6685677   9.1550243
  32.0768142  86.2730598  10.2216184  17.2784197  34.4725132  43.8520432
  16.4571297  33.9963150  43.9743233  17.8024185  34.2476416  44.6208668
  17.6274419  59.3904209  55.5212498  18.4830236  59.4210529  55.0931454
  17.4007535  60.3085136  55.6694126  42.4264717  73.1987476  22.5643587
  43.2406473  73.4014273  22.1036267  42.7074242  72.9208612  23.4361839
  79.9286270  40.4101133  42.5662184  79.7542381  41.3244677  42.3431206
  79.9608517  40.3989267  43.5228109  28.5633564  65.3291130  59.7425604
  29.1765070  64.7215557  60.1562643  28.6096787  65.1182222  58.8100290
  24.7836637   4.7384450  59.3208790  25.4014587   5.3824270  58.9746857
  23.9287090   5.1623094  59.2458820  60.6349087  18.9412260  17.8429723
  60.1097059  19.7152305  18.0462277  60.6125402  18.4192324  18.6450040
  25.0025654  52.2005129  61.6793919  25.6135321  51.6943312  62.2148657
  25.3215432  52.0908117  60.7835960  85.9985161  53.7867975  46.9319057
  85.5338860  53.3074093  46.2459469  85.3652954  54.4337463  47.2429037
  24.9883938  57.1675634  43.6185360  24.8183417  56.8713570  42.7243471
  24.4753075  57.9708385  43.7064075  89.3095493  50.7092047  55.6226730
  88.4407139  50.8183765  56.0092402  89.3835831  51.4266682  54.9933863
  91.6351223  60.3594732  54.2186689  91.1542988  61.1694288  54.3889952
  91.9098759  60.4317522  53.3046007  62.7104616  36.6730452  51.8770266
  62.3821688  36.0326385  51.2458897  62.3508406  37.5087047  51.5794086
  54.3985510  13.1023955  44.1702223  54.6280718  13.8964641  44.6529341
  55.0827265  12.4746180  44.4026804  38.9888000  12.4030566  54.2253065
  39.3219995  12.7123380  55.0676584  39.6551132  11.7900789  53.9146376
  16.3230884  31.7715645  13.6649001  16.9426465  32.4641466  13.8944888
  15.8309710  31.6136885  14.4705844  13.0777514  47.6954222  55.2661943
  13.3741140  48.2054520  54.5123577  12.8687775  48.3509398  55.9316683
  25.4132009  26.6165400  61.7772007  24.8442602  26.7956543  62.5258398
  25.8525801  27.4494457  61.6056013  22.2000408  42.1349955  41.3683701
  21.3796616  42.6097822  41.5017414  22.8364992  42.5990868  41.9122171
  42.3676062  15.4122865  47.4506474  43.3217573  15.3767574  47.3830891
  42.2012138  15.6750560  48.3559084  18.9414430  40.9097672  69.3971872
  19.7677135  40.4883003  69.1608095  18.6494756  41.3338900  68.5902739
   1.5882486  82.2679424  70.4832411   1.5005204  82.2850895  69.5302248
   2.2033949  81.5548134  70.6543493  28.2753515  38.4754515  74.0973234
  27.3913097  38.2052636  74.3457127  28.2106972  39.4225216  73.9744043
  62.7827883  63.8997412  72.3146725  62.8589201  63.0375767  72.7234554
  62.2499990  64.4084167  72.9259157  34.1941810  78.1373262   1.2247671
  34.4811249  78.8546419   0.6596556  33.2710886  78.0131102   1.0040739
  18.3633447  41.1134434  30.7849908  18.7572443  40.7069159  30.0131035
  18.4191990  42.0538139  30.6152439  21.6301346  54.9108887  34.9136114
  21.5132189  55.7477999  34.4640160  20.7399201  54.5898485  35.0574327
  27.6872635  48.0662203  46.5933084  27.9026198  48.0161572  47.5246239
  28.5189223  47.9087067  46.1463594  31.0566044  27.9608488  67.9352427
  30.4078889  27.7297401  67.2704172  31.1154318  28.9152098  67.8909254
  12.9922974  63.6238384  66.8379736  12.5218809  62.8450489  66.5406132
  12.3734522  64.0718365  67.4146557  61.5812826  79.3447685  23.9376426
  60.9048080  79.9763823  24.1819263  62.2428942  79.8661995  23.4830928
  23.1882095  31.9952822  61.6761351  22.5128293  31.3180614  61.6378450
  22.7038860  32.8088784  61.8165779  83.7846851  78.9908743  62.7804518
  83.9936543  79.4993687  63.5640287  83.1029129  79.4984818  62.3402834
   9.5884740  73.7839460  59.7293282   8.8520455  74.3938017  59.6848726
   9.2965102  73.0192852  59.2330551  21.6460156  46.4849472  69.1614771
  21.1550665  45.8015776  68.7051821  21.2022209  46.5762663  70.0046444
  26.1594462  53.8073254  10.8691943  25.6916952  53.7909174  11.7041612
  26.6789818  54.6106148  10.9014523  15.7746828  38.2212877  34.9887395
  15.6278729  37.4661851  34.4190907  15.7500339  37.8609610  35.8751869
  43.8195038  77.7234268  49.9357700  44.1631556  77.5219631  49.0653992
  44.2131710  78.5667849  50.1593971  84.6002674  54.6952248  30.6940603
  84.5291424  55.6456900  30.7823277  84.8222637  54.5561266  29.7734070
  78.5451078  49.1613340  61.2963295  78.1458235  49.7255564  60.6341648
  79.2354822  48.6928844  60.8271027  42.9742050  19.4191515  73.0532026
  42.5368690  18.6969900  73.5042572  43.6990595  19.6583951  73.6307716
  67.9124784  12.2989309   8.7019914  67.0624065  12.6389849   8.4227473
  68.5011053  13.0518115   8.6479384  48.1454468  62.3742914  41.9175720
  49.0621471  62.2172737  41.6912222  47.7404833  62.6537323  41.0965061
  79.0141392  66.2558603  47.3740768  79.5211172  66.5219116  46.6069889
  79.1665840  66.9505930  48.0146551  62.8084850   3.9857036  59.1548300
  62.5332546   3.3910719  58.4570503  63.7150240   3.7381113  59.3368053
  73.0871344   5.8138049  11.2888217  73.6382675   5.0323170  11.3307619
  72.2678995   5.5084997  10.8991063   9.9102402  64.7747278  35.8708787
   9.2773724  65.4865313  35.9659624  10.7503784  65.2162266  35.7464767
  16.6132406  72.9853047  74.2731800  16.0294918  73.4680404  74.8583568
  17.1253828  72.4240102  74.8553258   4.0751877  72.2424793  65.7018375
   4.6606517  72.7999496  66.2143755   4.3718156  71.3510752  65.8852530
   6.6137195  31.9527173  60.8800268   5.8336043  31.4190602  61.0312319
   7.3412430  31.3325715  60.9286213  86.4857864  35.4713488  66.5640688
  85.9783268  35.9578776  67.2136879  86.5673923  34.5920658  66.9334412
  26.3185859  72.0308113  43.5606384  25.6392860  72.3294544  44.1652870
  26.4297724  71.1023140  43.7649870  28.7381148  45.8650446  52.9917622
  29.2911887  45.2957821  53.5268116  28.9846182  46.7524242  53.2525921
   3.6174214  26.2894511  13.3172381   2.9010576  26.4196754  12.6958716
   4.4113237  26.3923359  12.7924860  10.8596861  78.8785696  55.3816128
  10.4242504  78.0741644  55.6636810  11.4818645  79.0726089  56.0826635
  29.4466281   3.3407179   9.9335051  30.2417326   3.8358653  10.1306546
  29.7568130   2.4554104   9.7431207  15.2894115  64.3306637  40.9712267
  14.3965614  64.1175032  40.6999111  15.8444488  63.9416265  40.2953434
   7.8642987  41.6306721  -0.0032176   7.6579999  40.6959759   0.0003444
   8.3163833  41.7793404   0.8272897   1.5966947   4.4938093   7.7049822
   1.4010631   3.9964384   8.4990746   1.6168301   5.4064685   7.9928690
  90.1570511  44.1458654  61.8539619  89.3984699  44.4740200  61.3711548
  89.7829723  43.7042427  62.6163769  67.4100637  23.1829095   6.1960846
  66.4576435  23.1313920   6.2765360  67.5690889  23.2202649   5.2529263
  91.6738891  71.0798073  49.1317940  90.7916371  71.2855673  49.4408655
  92.2539495  71.5262270  49.7486210  83.8069439  63.1157494  32.2980857
  83.2362080  63.1333017  33.0663204  83.2130909  63.2285833  31.5558982
   9.4493556  56.5724611  63.5027122   9.3635404  56.8576622  62.5930309
   8.5563159  56.5962410  63.8464355  47.9459810  73.3453894   9.9354792
  48.1267166  72.9800129   9.0694147  47.6761770  74.2474937   9.7633117
  20.6895399  43.9616776  74.5261574  20.9468365  43.0650616  74.7408867
  20.6204224  43.9689064  73.5714817  71.0696936  32.7485490  11.3699806
  71.5108824  33.4783149  11.8047547  70.1398516  32.8911614  11.5468585
  16.8777120  52.6176834  40.3088903  16.0701609  52.1524286  40.5271387
  17.4201262  51.9628048  39.8694015  69.6837651   3.6661955  74.4914236
  69.7110634   3.9061685  73.5651955  69.4033860   4.4652315  74.9377011
  71.9479322   7.3279917  15.7704496  72.3337555   7.0737910  16.6087544
  71.3096094   6.6400123  15.5821335  62.9466295   7.3582721  46.4702702
  62.4975300   8.1205940  46.1050177  63.0216742   6.7496121  45.7353306
  50.5626678   5.9910733   0.9746472  51.0554028   5.7773620   1.7669667
  50.9363461   5.4241294   0.2999843  42.5329351  62.6802349  68.7631512
  43.0126429  63.3181000  68.2347202  42.1057129  63.2037592  69.4411182
  25.8066988  71.7445850   7.8423446  25.4382229  71.6519833   6.9637775
  25.4400635  71.0100079   8.3344901  20.9382343  61.2482929  48.3716679
  20.0586653  61.2249708  48.7485600  20.8889961  61.9183922  47.6899290
  61.1161613  35.4878187  32.5241518  60.9354925  35.3563142  31.5934014
  61.9223118  36.0036302  32.5411105  75.7209730  34.4839334  68.9770746
  75.5888414  34.7697163  68.0731392  76.0354710  33.5831690  68.8999510
  15.9229386  55.2599239   5.3514725  16.6439593  54.6372938   5.4446912
  15.1348674  54.7382641   5.5032742   9.6883386  14.3553460  53.4145451
  10.5289876  14.7693396  53.2192230   9.8430920  13.8695359  54.2246485
  91.3797402  20.9875894  22.8278518  90.6757691  21.6361594  22.8313828
  91.8277191  21.1157966  23.6639786  33.9334893  70.9224415  71.2369394
  33.2286358  71.4665365  71.5881872  34.7096324  71.4812851  71.2760687
  80.3787327  23.2440662   8.5218811  80.4762840  22.9832649   7.6060766
  79.5026445  23.6266756   8.5699409  59.3140602  68.6858320  29.1145301
  59.7116089  68.0639219  29.7239637  58.3800697  68.6613131  29.3225884
  56.7374325   6.3184458  29.5650077  57.2612953   6.6435593  30.2971959
  56.3022614   5.5385917  29.9095201  19.0917802  63.8594294  63.3327341
  19.9256802  63.4735250  63.0645514  18.5965562  63.9492130  62.5185347
  30.9763813   7.9380506  63.6334276  31.3693452   8.2688069  62.8257036
  30.0422311   8.1243002  63.5390568  33.7053227  59.0674686  57.7251768
  33.2109714  58.3999968  57.2494411  33.3572912  59.0336180  58.6162233
  78.6105108   5.1599485   9.6154737  77.9563904   5.8578992   9.6504909
  79.3147993   5.5186224   9.0755135  86.1783981  73.5342598  41.3077879
  86.5118885  72.9867792  40.5969572  85.8578777  74.3238354  40.8718204
  88.0664349  23.2250905  72.3537111  88.6527252  23.3958459  73.0908203
  87.6622963  24.0726423  72.1677971  19.6832192  44.9686146  71.3983965
  19.0969312  44.6320009  70.7207632  19.1120386  45.4656649  71.9840002
  75.6363630  28.4607768   6.3815004  75.8779907  29.3575263   6.6132045
  74.6816301  28.4794426   6.3154244  64.8802757  21.1898947   4.2560747
  64.8176050  21.9625139   4.8176479  63.9759874  20.8923602   4.1562590
   2.2181933  80.5745316  73.1721354   2.4150199  79.7312212  73.5799456
   2.8971115  81.1638069  73.5008574  19.5330226  31.9298172  66.9567680
  20.2385283  31.6424465  67.5363493  18.9198434  31.1949301  66.9432354
  74.1332817   9.5268679   7.7882713  73.7107658   9.2058271   8.5849166
  73.4742165   9.4103003   7.1039635  16.0703337  63.2202864  67.3540354
  16.5312564  62.9854250  66.5486670  15.1490068  63.0450344  67.1625233
  20.3248358  78.8208437   4.4426036  19.9782372  77.9874039   4.1240460
  19.7645605  79.0449095   5.1856482  23.7786317  77.7174950  68.1058073
  23.4997869  76.8018341  68.1117392  23.1095314  78.1682968  67.5907183
  23.4123373  49.5104694  73.3298159  24.1829038  49.3790102  72.7773857
  23.2230043  48.6429024  73.6871767   9.7021867  39.2674871  74.4042125
  10.0220682  38.4119268  74.1179984   9.9083997  39.3000456  75.3383693
  69.9091959   7.6506621  25.3978944  70.1753473   8.5687292  25.4483962
  70.7291079   7.1693558  25.2868772   8.6435616  48.5128593  51.4678621
   7.8632605  48.7741470  50.9788895   8.5875779  49.0031528  52.2880554
  48.1805038  64.9021006  33.6643386  48.6483479  64.2264557  33.1735659
  47.7367973  64.4248772  34.3654919  17.8806007  71.0616589  60.9475708
  17.7564883  71.3640499  60.0479126  17.9206324  71.8647814  61.4668226
  85.0193882  60.8655214  59.6952295  85.7876110  60.3102970  59.5618057
  85.3725147  61.6822004  60.0481844  49.0933990  75.2734041  54.8340511
  48.6119223  75.9156656  55.3555012  49.4148540  74.6380520  55.4737568
  89.3658543  33.8929486  50.9258413  90.0169373  33.8002920  51.6213512
  89.4740486  33.1070471  50.3902292  91.1921501  49.9585915  65.4544783
  92.0282459  50.3049421  65.7662773  91.1513329  49.0721464  65.8133316
  24.4450665  66.3608551  34.0629339  25.1429081  65.9767675  34.5937133
  23.7182903  65.7426119  34.1391516  34.1142344  47.3636055  71.1724901
  34.9406052  47.6979256  70.8238125  33.4716821  48.0387640  70.9544945
   4.7258708  24.0162778  68.8906479   4.3318003  23.5527754  68.1516600
   5.6662858  23.9935994  68.7136269  81.6174412  28.1628132  66.5977526
  82.3583031  28.3448672  67.1758699  81.9990444  28.1370234  65.7202864
  70.0260782  68.2032490  40.4744864  69.9834824  68.6555624  41.3170004
  70.5113173  67.3989820  40.6586838  47.0696259  77.5520658  64.7506762
  46.6952467  78.3249521  65.1734257  47.5583982  77.9001188  64.0048933
  76.3207579  59.1080332  71.2903738  76.6825342  59.6621704  71.9819498
  75.3726149  59.2101145  71.3730669   4.4507077  26.8505740  48.3262300
   4.5796019  27.7379513  47.9912996   4.2227742  26.9731498  49.2477798
  90.0893497  49.2697048  43.4087753  90.9382725  49.2284060  42.9684973
  90.0051785  48.4226990  43.8466406   6.2000251  59.8258400  46.9366646
   6.6130900  59.8315859  46.0731983   5.7811749  60.6836128  47.0075130
  11.1242151  53.8200474  55.3706074  12.0196068  53.9978838  55.0827217
  10.8804536  54.5899773  55.8844280  87.6139641  67.9100323  42.0628738
  88.4842491  67.7350903  42.4209690  87.2259808  68.5379267  42.6723433
  91.1847115  55.3834009  53.8518381  91.5537453  54.7251129  54.4406557
  90.7121372  55.9831095  54.4291162  85.1951122  66.0552692  71.1811256
  84.8544693  66.2422466  70.3063488  84.7427750  65.2551317  71.4483261
  86.0858727  43.9165783  64.8822546  85.2318573  44.0108395  65.3041601
  85.8929253  43.9320993  63.9448309  83.8925838   6.2233377   3.2229027
  83.3504677   6.8411547   3.7134656  84.5943737   5.9865826   3.8292608
  52.9320431   5.1294082  10.1860344  53.6494637   5.7528949  10.0728881
  53.2436943   4.5254099  10.8600450   2.1449243  66.7875195  42.1288395
   2.9109487  66.8984699  41.5656948   1.5284516  67.4555683  41.8289995
  16.1827648  39.6238947  70.8096075  16.3157368  39.3407083  69.9049759
  16.4320409  38.8651228  71.3372040   4.0421921  63.3663416  50.8851433
   4.1699132  62.4245596  50.9990406   4.8775721  63.6813211  50.5399513
   2.7504334  29.5018601   7.4882275   2.1771337  28.8166404   7.1446711
   2.6700231  30.2190113   6.8593717  88.1522846  84.9330521  66.9118595
  88.7057304  85.4414940  67.5046730  87.5310707  85.5699825  66.5588093
  17.6333332   9.1073781  53.2174921  18.4550548   9.5714849  53.3775234
  17.4587321   8.6407173  54.0347862  58.6181211   8.0263746   2.8969759
  57.7754164   7.7719527   3.2729465  58.6548185   7.5665325   2.0582688
  51.7744255  73.0891991  25.6101513  52.0148802  73.9421034  25.2482533
  51.9690228  73.1620073  26.5445280  12.9018164   3.2414764   2.2632527
  13.0522835   2.3501599   2.5781274  12.8353524   3.1516355   1.3125989
  24.1004324  58.5827827  73.4719896  24.4369268  59.4670725  73.3269691
  23.2502174  58.5749483  73.0323267  22.8065658  78.2070065  72.8046083
  23.3829737  78.6141777  72.1579266  22.5076747  77.4003601  72.3848248
  16.0630286  80.2160454  34.0532708  16.0491908  79.8365498  34.9319196
  15.1800776  80.0680923  33.7145376  76.6014481   9.0279549  66.7474174
  75.7135963   9.2766768  66.4903402  76.4894485   8.2140273  67.2385502
  87.8037548  49.5717716  51.2037659  87.0594978  49.9845552  50.7656765
  87.6643562  48.6329842  51.0793543   9.7476953  36.7110920  42.6247215
   9.4288212  36.3749671  41.7871237   9.0344805  36.5383029  43.2392931
  89.7194386  22.5597906   0.6514714  90.3557682  22.2865891  -0.0093449
  89.2697430  21.7519784   0.8993474  65.7472849  16.5255046  70.1471043
  66.6842031  16.3843310  70.0111485  65.4453993  16.9294834  69.3335342
  86.7492580  57.8545666  39.2560506  87.4658298  57.2796822  38.9872193
  87.1677494  58.5190392  39.8033881  79.2122459  52.4326372  54.3675804
  79.4830942  51.7162418  53.7934303  80.0103569  52.9421997  54.5075798
  16.8295717  58.6728621  21.9629812  17.0170915  58.7869263  22.8946757
  17.3434424  57.9068470  21.7072701  72.4824190  77.1001482  21.2735248
  72.9350042  77.9095554  21.5107012  71.5769339  77.2423744  21.5493941
  71.2766123  15.5076909  60.3398037  71.2902784  16.4646518  60.3562737
  70.9903765  15.2570903  61.2181568  39.6435094  71.0614824  51.1264610
  39.4019842  70.1434946  51.0031986  39.4857001  71.4672089  50.2739859
  22.8032994  50.0585699  49.1239500  23.0455923  49.1333199  49.0860844
  22.7478981  50.3293514  48.2075214  77.9930925   3.9969298  16.4103031
  78.7721109   3.7650508  15.9047365  77.3303843   4.1991407  15.7498801
   3.3315548  64.7750950  38.7484765   2.9227671  65.1238871  37.9563475
   2.7396137  64.0806580  39.0376043  77.0346642  66.6442776  50.0875139
  76.9786406  67.5875521  50.2402496  77.1718645  66.2685728  50.9571457
   2.0604035  14.9117994  19.3877852   2.1957743  14.0515983  18.9903438
   2.0087102  14.7360981  20.3273010  68.8312244  31.3622832   9.3977118
  68.9247036  31.7225480  10.2795863  68.7982893  32.1303678   8.8274544
  39.5440054  57.1261311  71.9822168  39.9770379  56.5783978  72.6369715
  38.6169100  56.8995667  72.0556879   4.8218301  29.4934344  47.8316021
   5.1017064  29.4541240  46.9170761   3.9471534  29.8807836  47.7979565
  11.5481150  66.6735363  58.6320066  12.1325207  66.3555670  59.3201923
  10.7189453  66.8405104  59.0801430  31.4152336  74.7533703  54.1996622
  31.4750361  75.6375551  54.5614290  30.4971504  74.6602297  53.9453459
  36.4541888  83.4455395  28.3835173  37.1366382  83.0576134  28.9312458
  36.2224698  84.2597294  28.8303137  14.2024779  33.4595418  11.7359459
  14.9683678  33.1862354  12.2408712  14.2865086  32.9952431  10.9031200
  33.2135582  27.5449610  33.4529471  33.1113505  28.0757165  32.6629591
  33.8297367  28.0379915  33.9946795   3.4149969  64.5472622   9.3963516
   3.2484874  64.7810793  10.3094983   2.8150454  65.0990963   8.8945848
  91.5516376  63.5296440  13.1612670  90.7339859  63.0621386  12.9906476
  91.6812897  64.0761518  12.3861849  27.3126030  58.8000488  57.4852133
  28.0275106  59.2309141  57.9537153  26.5273786  59.2751217  57.7571630
  16.1098647  29.9076653  11.6747844  16.3598549  30.4925346  10.9594774
  16.4483809  30.3339386  12.4621403   6.5222210  43.7416220  20.3048682
   7.0206052  43.4414053  21.0649443   6.3144588  44.6553230  20.5003691
  29.3935490  67.0836926  43.6178970  29.8535037  67.1740675  42.7833271
  28.9523172  67.9242468  43.7404490  11.0341954  30.6166625  65.7338715
  11.0000229  30.6785107  64.7792864  11.9389307  30.8366346  65.9559059
  15.4430234  29.4903946  67.0091915  15.9606540  29.3174767  67.7955675
  15.1398635  28.6273026  66.7274189  51.9962931   2.3155335  73.0940390
  51.8683195   2.8590924  72.3166084  52.5082016   2.8642091  73.6882877
   3.8688472  51.0795355  64.5585203   3.1028089  50.7773924  64.0705395
   4.1346076  51.8839931  64.1130400   6.0026413  22.3842406  51.0515690
   6.5515101  22.8849101  50.4479885   5.7509810  23.0152059  51.7259407
   4.4533145  56.3123560  50.3187323   3.6036897  56.2186050  49.8879433
   4.6807945  55.4247141  50.5954504  44.1576624  20.3998852   2.3723289
  43.5945272  20.3575826   3.1451929  44.2056751  21.3323927   2.1617153
  43.5904646  82.5110054  20.3013635  43.8155937  82.1649837  19.4377565
  43.5481882  83.4590149  20.1759744  35.8460999  58.3239794  56.0031176
  36.1521983  59.0480709  55.4570150  35.0208449  58.6361361  56.3742542
  83.0484676  69.9779987  67.1054602  82.2127819  70.4437256  67.0744753
  83.4372616  70.2389050  67.9403257  44.8389244  84.2342949   2.9223964
  44.0692854  84.3798733   3.4725732  44.9263668  83.2820415   2.8799897
   0.8311986  28.8218594   9.9981052   1.5265365  28.5495496   9.3992859
   1.0844734  28.4513259  10.8435571  42.8183699   8.1443924  56.5231800
  42.4539280   8.9019579  56.9809055  43.3137751   7.6746958  57.1941423
  83.3716106  40.9176207  10.0335324  83.9521885  41.2140226  10.7344639
  82.5111771  41.2613726  10.2737856  84.5559597  69.4814920  13.2517779
  84.3319702  70.0336123  14.0009308  85.5128765  69.4852686  13.2290697
  26.2731409  69.1976976  58.1988811  25.4673910  69.5085001  58.6116791
  26.0720491  69.1814947  57.2631836  61.6506195   2.3678549  57.1317434
  61.1923361   1.7120920  57.6572800  61.1628628   2.3987533  56.3087177
  16.6553736  63.0594492  58.1817245  17.3150492  63.4554815  57.6123238
  17.1017361  62.3137093  58.5828018  38.6426997  68.0923605  44.6281195
  38.3306885  68.4562731  45.4566383  39.3747997  67.5273991  44.8752594
  62.6141167   1.8357985  69.4000721  62.8959322   1.5732543  68.5237837
  61.6674423   1.6942556  69.3996525  37.0796251  65.7819700  44.3489933
  36.1499047  65.6419992  44.5286083  37.3343444  66.4888859  44.9419689
  43.8427401  32.5800800  17.2370982  42.9572439  32.8900504  17.0472562
  43.8838720  32.5432253  18.1927037   8.1471771  63.7828493  66.7780447
   7.7289343  63.3165836  66.0542393   7.8038150  64.6743870  66.7188835
  89.0385246   7.5694096  33.1796741  88.3680153   8.1246907  32.7817988
  89.8194122   8.1220955  33.2112551  49.5672321  84.3863392  31.3907003
  50.1127005  84.8261452  30.7385707  48.6699390  84.5373440  31.0935616
  67.7356005  19.4597149   9.1787261  68.5691595  19.0168154   9.0198427
  67.1595097  18.7727976   9.5141333  13.7029099  21.1725450  12.0110178
  14.5387089  21.4118528  12.4115217  13.1877303  20.8087540  12.7310729
  83.4741306  41.0964012   5.3600538  83.2719517  41.7593956   4.6999049
  83.5982513  41.5935087   6.1685777  29.8486280  34.3050241  20.5556679
  29.5161057  33.6978817  19.8945808  30.1523066  35.0619340  20.0545669
  69.1433191   5.3694373  11.8640864  68.3219385   5.4546928  12.3481286
  68.9244890   4.8121053  11.1172760  33.4339452  19.4896793  60.8262587
  34.0007591  19.1629064  60.1275682  33.8578057  19.1995072  61.6339588
  13.2253277   6.7864603  70.0243711  13.6347258   7.6514989  70.0426435
  13.7504435   6.2601739  70.6272888  85.9633541  43.3745337   8.7479204
  85.3888893  42.8517962   9.3073559  86.8306732  43.2818556   9.1421354
  36.1422253  50.8146143  54.3519735  36.1861610  49.8723125  54.1895819
  36.9789028  51.0255098  54.7663689  58.9039040  16.3767087  29.0055919
  58.3829880  17.0226073  29.4827604  59.8060083  16.6845369  29.0932679
  86.5062618  27.5161552  48.4301758  86.5181255  28.3572793  47.9734468
  87.3050785  27.0752263  48.1408644  38.4648538  39.9736500  73.3589506
  38.4525418  39.0167952  73.3364201  38.2524800  40.2370596  72.4635458
  84.5786095  33.3891344   4.6430913  84.6423149  34.1485620   4.0639177
  84.1561031  32.7159119   4.1097149  72.6127052  50.4859877  38.3484793
  72.0919180  49.7354555  38.6343431  73.2946968  50.1070118  37.7939558
  70.0009489  20.2056980   5.9546381  70.4672098  19.7111821   5.2806270
  70.3106785  21.1052275   5.8490634  50.8346701  74.3628836  37.0274138
  50.3399038  73.6946487  37.5016546  51.0520792  75.0166082  37.6919460
  23.6807179  71.1495876  60.5715466  23.6908841  72.1067190  60.5663919
  23.7940073  70.9039164  59.6533728   2.3381172  44.3085289  23.5129237
   2.2478156  43.8210297  22.6941299   2.7709430  43.6973763  24.1090631
  74.2106915  43.6357403   2.2384700  73.3477402  43.9507771   1.9695836
  74.1737986  42.6892471   2.1005723  15.1049328  10.3606319  61.3569593
  14.6176934  10.8978117  61.9816732  14.9229479   9.4593459  61.6230345
   6.7241716  82.0128345  67.8470373   7.5386178  81.5123940  67.8967953
   6.2648344  81.8042755  68.6605167  34.6474457  14.1910589  14.6402919
  34.5695424  13.2417870  14.5451903  34.0060306  14.4177473  15.3136659
  76.3767290  34.8298120   1.3634668  77.3260927  34.9472547   1.3973303
  76.1900282  34.6527791   0.4414943   2.0549279  25.6011486  34.2541051
   2.2361389  25.6420851  33.3151054   2.6279369  26.2649894  34.6377826
  72.1888590  17.7903676  33.9712596  71.5835714  17.2395313  33.4748340
  71.9631577  18.6848116  33.7157965  91.2943268   8.9213872  11.4568901
  91.2647533   9.7656292  11.9070137  91.4070797   9.1461980  10.5333209
  55.8659983  57.5627184  29.1919088  55.0865269  57.7378511  28.6646652
  56.5278339  57.2883272  28.5571480  46.4703178  73.4155130  67.3042536
  47.0583534  73.4516573  68.0586672  46.6813231  74.2001963  66.7983055
  82.7518082  44.2751503  11.5835094  83.1938744  44.7890568  10.9076977
  83.3928967  44.2081594  12.2911489   0.0644890  27.6594615   4.1208470
  -0.0569986  27.4774528   5.0526977   1.0032521  27.5431252   3.9744857
  65.0215006  14.2378938  38.7799287  65.1885414  13.2988071  38.8602185
  65.2013206  14.4354248  37.8607559  17.5354826  55.1841211  55.3200483
  18.3189988  54.6912289  55.5637550  16.8292284  54.5384741  55.3441286
  78.7461519  11.1403215  29.0809846  79.0381145  10.3780234  28.5810947
  79.4698715  11.7630529  29.0126824  19.6490359  50.7699966  62.1403170
  20.4070711  50.4221630  62.6100206  19.6353197  50.2849960  61.3151979
  76.3955116  60.0329399  45.9164810  77.0422363  60.6539249  46.2516737
  76.4542818  59.2830229  46.5084267  51.6356659  30.5939579  18.1381619
  52.0072556  31.0187078  17.3650265  51.8952227  31.1559892  18.8682187
   2.2196539  24.2246270  23.9961648   1.7734492  23.9334655  24.7913742
   2.4177012  25.1472354  24.1567969   5.7444096  42.8376389   5.7661629
   4.9398816  42.8531361   5.2477747   5.4476160  42.9276180   6.6717279
  81.2948036  73.1809282  54.5681620  82.2498608  73.1635094  54.5065546
  81.0079765  73.5579300  53.7364006  90.6533337  73.1058645  59.7000360
  91.4388943  73.0120897  59.1612196  90.9711933  73.4724474  60.5251503
  32.3809099  67.3917103  56.4511395  32.2289515  68.2247257  56.8974829
  33.0304050  66.9443226  56.9935703  33.2364249  80.9064007  12.9378521
  33.1337047  79.9906826  12.6787329  33.1461763  81.3978958  12.1214509
  31.1239052  78.1683111  61.4817905  32.0630431  78.1198692  61.6604090
  30.7118940  78.0839348  62.3416519  61.3267136  83.2859612  20.9172487
  60.4283619  83.6049747  20.8311057  61.8684673  84.0708637  20.8356524
  34.8463345  42.9364681  62.2717953  35.0088191  42.0911741  61.8530989
  35.1827979  43.5808325  61.6490459  68.8401937  16.7237532  43.8731337
  69.1379929  16.7527974  44.7823668  69.4089365  16.0770416  43.4553671
  50.0698328  -0.0211979  34.2520022  50.1076078   0.4321129  33.4097958
  49.8486423   0.6637696  34.8829746  62.2621155   7.0846272  24.5895910
  61.9382954   6.6110921  25.3558373  62.8616190   6.4712191  24.1646624
   1.8875918  15.1646006  26.8681860   2.3994942  15.0952661  26.0623455
   1.3271815  15.9283710  26.7309761  76.3533020  43.8880539   4.7727823
  76.1633348  43.0474615   4.3561885  77.2882462  43.8496017   4.9743596
  66.2477970  59.7001934   4.0191704  65.4354811  59.2094183   4.1437337
  66.0481215  60.5794191   4.3406087  32.6845598  58.4155798  67.8325176
  32.7984571  57.9457617  68.6586714  33.5752583  58.6245489  67.5510550
   6.4941597  54.6411419  13.5056508   6.2595397  55.4950762  13.1423604
   5.6587732  54.1836548  13.6008823  52.2951746  12.2396040  64.0175343
  52.9298306  12.8374040  63.6224651  52.2892189  11.4786708  63.4368658
  90.5294800  55.2987909  20.9406018  90.2133369  54.5959949  21.5083742
  91.2469006  55.6991100  21.4318037  88.8270092  35.9043884  21.4898539
  89.4963074  36.4269757  21.9316363  89.0580273  34.9979925  21.6930962
  12.5987113  10.2069306  73.4059334  12.5027680  11.0293722  73.8861561
  11.9444680   9.6255565  73.7934923  64.9278831  31.5668726  14.0751851
  64.8812962  30.6869054  14.4489741  64.8246241  31.4326859  13.1330788
  25.8080983  75.1278353  61.3401270  26.7496061  75.2562475  61.2247753
  25.5648685  75.7453871  62.0298386  17.3448896  25.1716352  26.1484909
  16.9682884  24.7789335  26.9360113  17.4250305  26.1018324  26.3595462
   8.9361769  62.2339630  53.2089281   9.5882070  61.5338659  53.2398129
   8.7154746  62.3149490  52.2810459  24.1245365  25.3090286  53.3497429
  24.2112994  26.1622667  53.7748194  23.2891870  24.9667430  53.6679649
  75.5764294  47.8083515  47.2643805  75.2996588  47.7411985  48.1782341
  76.5315199  47.8560543  47.3062754  51.9678164   9.6626097  56.7057705
  51.1861277   9.1156518  56.7834330  52.6348114   9.0775281  56.3465595
  32.8881526   5.6914186  67.9506779  33.4680820   5.5914831  67.1957445
  33.1946898   5.0353783  68.5766792  34.2316318   3.8304970  58.7155104
  35.1542807   3.5872754  58.7916136  34.2324853   4.7870803  58.7498617
  36.9418263   2.6750976   0.5694625  36.9015384   1.9106841   1.1441632
  36.4454317   2.4172109  -0.2072736  77.9467916  25.4069972  29.4680738
  78.3396101  25.6140208  28.6200953  77.4356222  26.1848140  29.6915364
  84.2925453  31.4454484  54.4692373  84.5791245  31.6336155  55.3629398
  84.5340729  32.2261715  53.9708757  77.3858786  37.5442433   2.5133669
  77.4537516  36.6504216   2.8490850  78.2923365  37.8443098   2.4461007
  86.8096256  50.0264597  44.0984201  87.6687336  50.4285288  43.9699459
  86.4666462  49.9061680  43.2129145   3.6486810  70.3976583  44.5983315
   3.7955469  69.5105457  44.9264956   3.2440597  70.2716160  43.7400627
   6.7489231  78.4745932  45.0839233   7.4892896  77.9749918  44.7397089
   7.1434397  79.0977383  45.6940699   0.5945934  29.1305208  56.8600655
   0.1928380  28.5321641  57.4899817  -0.0400453  29.8409033  56.7661381
  24.4407392  82.2329521  72.8836155  24.5087528  81.4586639  73.4422588
  24.0631580  81.9065762  72.0668316  66.9644308   4.6586877  48.8100529
  66.0484123   4.7665223  48.5541010  67.4619770   5.0307709  48.0818796
  63.0372286  40.9820509   7.7307415  62.4859285  40.2033424   7.8076482
  63.7727594  40.7019281   7.1859872  21.2134886  65.4084635  71.7579985
  21.5997624  64.9734449  70.9978771  20.2690244  65.3175449  71.6316891
  77.5085688   5.5553758  29.8524523  77.5855732   4.6136209  30.0054216
  78.2293367   5.9389085  30.3520799  66.6932917  29.8500133   9.3782508
  67.5711250  30.2316403   9.3791020  66.4654303  29.7713304  10.3045988
  61.7687225  74.9619341  67.3695374  62.6370811  74.6753073  67.6524305
  61.9247437  75.7945156  66.9237804  42.5211716  75.5938339  66.6653681
  42.2132158  76.0504961  65.8825159  42.1155310  76.0654259  67.3928881
  59.4696283  31.4873075  69.6060658  60.3771114  31.6623044  69.3568993
  58.9482260  31.9901657  68.9803648  78.8413620  83.3110332  17.1441603
  78.8015652  82.6304531  16.4722502  79.6759558  83.7530422  16.9882238
  12.4478638  74.6931314  59.4370079  11.5673649  74.3920135  59.2127752
  12.4533939  74.7259665  60.3936291  40.3008747  52.9127502  58.8495827
  40.4784107  53.2018566  57.9545212  39.4338465  52.5097895  58.8035870
  40.7135487   4.8276663  68.2393408  40.7533932   5.7804352  68.3222675
  41.4249563   4.6096987  67.6371622  51.0536194  12.2327507   0.9126552
  51.1422777  12.6091337   0.0370367  50.2999830  12.6845062   1.2923631
  19.8773956  27.2322440   5.2586639  19.6885717  28.1550431   5.4290098
  19.5384908  27.0772099   4.3769947  20.3691006  82.2223949  60.4436684
  20.5567288  82.9042053  59.7985649  20.3675699  81.4090443  59.9389839
  17.8970444  85.6858730  20.7039022  17.1536589  85.1019478  20.8543491
  18.3825040  85.2760029  19.9879622  18.4588635  64.5283079  70.8362579
  18.7098432  64.1633606  69.9876976  18.2451844  65.4425764  70.6500292
  37.1551728   7.0710772  55.1702309  37.4942064   6.1847615  55.2956629
  37.8931737   7.6422000  55.3833103  22.0518136  13.3297229  58.4410238
  22.8541470  13.5519493  58.9133692  21.4270401  13.0952108  59.1272402
  61.5473080  23.8838935   4.8190990  61.7779922  24.8126030   4.8417759
  61.5074778  23.6696863   3.8870257  57.6833582  56.6757298   7.2915626
  57.9322433  57.1188688   6.4804435  57.9874754  55.7755470   7.1757287
  13.8082254  56.4653111  68.3311033  14.7526026  56.4985323  68.1785250
  13.4223557  56.7816496  67.5142384  36.7880273  42.5704956  65.8348417
  37.2955227  41.8575573  65.4470253  36.1389256  42.7930403  65.1674747
  11.5363920  49.9340677  33.3620954  11.2398255  50.1648235  34.2424536
  11.6142607  48.9801741  33.3779407  37.4439788   4.2229813  31.5335369
  36.9144797   4.3162873  30.7416058  38.2257795   4.7480071  31.3621688
  39.4139290   0.9329634  59.5677328  39.0178919   1.6568057  60.0529528
  39.2907405   0.1701368  60.1326704  10.5971384  64.2668962  67.8910732
  10.4269600  65.1490593  68.2213116   9.8018008  64.0326452  67.4127483
  12.7551532  53.5331631  66.0339069  12.1067166  53.5532045  66.7377234
  12.2592628  53.7523460  65.2450562  81.2425423  26.7821026  44.9200106
  81.6405773  26.5321136  45.7538605  81.2815857  25.9872365  44.3881273
  69.5855856  35.1178265  14.4154215  69.5952177  35.8278084  15.0573444
  69.4066954  34.3313313  14.9308407  11.4982307  24.2243600   8.6645788
  11.8636501  24.0610456   7.7950799  12.1697390  23.9093566   9.2696255
  13.9684308  63.9364052  50.1652098  13.4629118  64.6874952  49.8544979
  13.3632326  63.4583950  50.7321978  27.4448991  79.7892094  17.0227838
  26.9929981  78.9492416  17.1032345  27.1010613  80.3162193  17.7440810
  42.0938444  85.6024647  74.1385174  41.9409084  84.6803856  74.3449593
  41.4041710  86.0707951  74.6088886  20.3295040  50.4141569  71.7083168
  21.0800290  49.9759865  71.3071203  20.2222395  49.9791574  72.5541878
   3.2687759  56.0338831  38.5543251   4.1775507  55.8649063  38.8029361
   2.7777767  55.9530354  39.3720150  28.7864637  51.3038206  49.8354530
  29.2656612  52.0776796  50.1316690  28.3472419  50.9787226  50.6213474
  16.4109421  38.0530882  14.7073698  15.7786655  37.9487872  13.9963293
  17.2559345  37.8444457  14.3090141  50.7733393  32.1189666  47.6172781
  51.6259956  32.4233460  47.9280281  50.3102922  31.8521476  48.4113979
  87.8015137  37.5422311   2.2469510  87.3750019  37.4283838   3.0962786
  87.9120541  36.6519403   1.9131877  32.7152944  81.8408775  72.9690409
  32.9236484  82.7626610  72.8169060  33.2876635  81.5819836  73.6912584
  91.4068794  69.3526173  56.6458511  90.6686497  68.8073063  56.9176579
  91.0335159  70.2281952  56.5449286  78.2601738  32.3747706  24.6499252
  78.3465195  31.6588998  25.2794552  79.1545057  32.6916146  24.5233846
  71.3868093  62.2770596  12.0323277  71.6369867  63.1957912  11.9344425
  70.7490253  62.2772408  12.7460968  26.2551117  30.8332253  25.3203154
  26.6560793  30.1812458  25.8951020  26.2290907  31.6325498  25.8462787
  16.4889228  23.8271642  14.5632970  15.7981336  23.3350253  15.0069642
  17.0581079  24.1313601  15.2702093  83.2072926  61.3244390  73.4522915
  83.0750656  62.1820927  73.0483389  83.5696030  61.5199900  74.3164206
  10.3429592  28.2657337  46.7193699  11.1906123  28.0109262  47.0837736
  10.0106633  28.9274788  47.3259211  89.6463394  53.9520216  73.7512875
  89.0590572  54.4956017  73.2260609  89.5890331  54.3202496  74.6329641
  91.1100769  80.7613182  55.3228617  91.3091946  81.6898727  55.4427195
  90.1570320  80.7295322  55.2395725   1.0236275   5.6485033  13.5974360
   0.9914184   5.3055257  14.4904983   1.6792539   6.3450658  13.6318803
  58.3061266   6.9339293  31.8150735  58.7916279   6.2173253  32.2237301
  58.7188053   7.7276361  32.1555996  87.5159550  59.3725204  59.8554230
  88.0605125  58.6616421  59.5172882  88.1203938  59.9193287  60.3572989
  40.5012894   3.1401536  41.4907742  39.8959923   2.5084129  41.8790388
  40.0789213   3.4056842  40.6738710  35.5485439  74.4103479  66.5914440
  36.1944103  73.8376713  66.1777592  36.0369658  74.8665047  67.2767162
  79.3005466  44.5089102  70.6986427  78.9325190  44.8128986  69.8689604
  79.3951368  45.3033829  71.2240934  31.5166354   7.4783611  69.4875050
  31.9205904   6.8162447  68.9265633  31.8817616   7.3112482  70.3564072
  43.2641315  13.6166346  68.1458139  44.0509272  13.7431180  68.6760855
  43.1147623  14.4668818  67.7322912  66.5035391  26.4584756  14.2761850
  65.8173656  26.6859841  13.6487782  66.2376881  25.6070971  14.6236193
  37.5375748  33.7661791  11.8525350  36.8691182  34.2208266  11.3400006
  37.1414471  33.6536026  12.7166200  34.2690611  78.3330679  47.4327135
  34.4232368  77.4149370  47.2102451  34.0244555  78.3174992  48.3580017
  66.2623739   8.0317193  30.0227761  66.6186571   7.5921607  29.2507124
  66.9623470   7.9777980  30.6734371  20.6493568  42.4554777  28.8350224
  20.2436280  42.7160835  28.0081606  20.2727675  43.0494928  29.4842982
  80.4796219  47.0680857  35.6094527  80.6258965  47.9757071  35.3428841
  81.3104248  46.6284609  35.4285192  12.8380752  68.0526686  24.8317838
  12.7099586  67.1090698  24.7346449  12.0655727  68.3511019  25.3117943
  58.7864828  19.7836864   6.6619110  59.3348312  20.5238032   6.4015788
  59.3625402  19.2339921   7.1931612  78.2738590  30.7114387  16.5103292
  77.9959726  31.6000938  16.2882924  77.5357676  30.3441739  16.9967139
  29.3427185  52.9545148  74.5988912  29.5940307  52.0412732  74.4608182
  28.3856967  52.9404224  74.6106083  83.0152512  62.3018646  65.3509426
  82.7461052  63.1945324  65.5676031  82.3108292  61.9673824  64.7958374
  35.3190422  68.0226946  70.5670738  34.8915672  68.6920977  70.0328493
  35.4784942  67.2987556  69.9615049  88.8940334  29.3357873  10.9432042
  88.6580753  29.5765281  11.8390822  89.2206192  28.4388399  11.0143423
  29.5020795  81.9256210  69.2730093  29.0730834  81.0891438  69.0927410
  29.5529628  81.9678116  70.2279234  59.4433784  40.7398701  26.8357825
  59.5655584  41.5378237  27.3501515  60.2811098  40.6110001  26.3910055
  10.7260108  29.9448514  24.0509486  10.2453780  29.9330211  24.8786473
  10.5524170  30.8123684  23.6855602  76.1912346  35.6948066  29.8965001
  76.9979334  35.3590202  29.5057130  76.0155582  35.1036024  30.6285143
  14.3567133  77.5780630  49.7406244  14.2330194  78.0398273  48.9113426
  13.4965134  77.6037693  50.1597023  18.1224763  37.1127725  48.3094883
  17.6092815  37.8931355  48.5190058  19.0030694  37.3128748  48.6268950
  28.7352681  85.1122952  63.0261946  28.6284685  86.0548878  63.1539965
  28.0944633  84.8879528  62.3514557  77.6416636  15.8717382  22.4201417
  76.9659805  15.4121697  21.9216609  77.1562195  16.4809012  22.9764652
  26.0643411  25.1351929   8.6899316  26.4407921  26.0086727   8.7974018
  25.5129528  25.2062297   7.9107285  45.8558798  10.8345294  41.1806583
  45.6812096  10.3967774  40.3475380  45.4920244  11.7130029  41.0705471
  32.4968028   0.9441888  56.9170380  32.1592164   0.1384387  57.3082304
  32.6031828   1.5430064  57.6561785  16.3138509  63.0526304  50.9883308
  16.1131620  62.3113823  51.5597343  15.4640925  63.4569025  50.8130932
  82.6905823  85.2522564  73.3615446  82.5015259  86.1904716  73.3768702
  83.6392498  85.1971817  73.4765673  81.9742870  25.1156187  20.8283520
  82.8548908  25.4888821  20.7904148  81.4473915  25.6877637  20.2704406
  16.0883093   7.5730163  19.6996915  16.2607503   8.5127264  19.6410370
  16.6350245   7.1860403  19.0158904  19.2159808   4.8140857  11.3679361
  18.9966631   5.7080698  11.1054015  18.4506285   4.5138401  11.8581605
  47.3161983  68.6596823  57.5712681  48.1152439  68.6645174  58.0982780
  47.0512962  69.5785427  57.5294542   2.8541681  40.3550720   9.8721915
   3.2830000  41.1478710   9.5500118   2.2356322  40.6685972  10.5320001
  30.3132176  43.3313894  11.3714230  30.3293228  42.8428125  10.5484617
  31.2032056  43.2518053  11.7146695   5.3718013  26.9700480  31.2864757
   5.4295963  27.7273345  31.8690634   6.2076211  26.9623661  30.8200216
  41.1132574  50.6507158  66.6588640  41.4951420  49.7730112  66.6647530
  41.5810966  51.1201048  67.3495388  28.5430288  79.3097830  66.8856001
  29.1107488  78.7189007  67.3803568  27.6549006  79.0277052  67.1044397
  20.9949946   4.8678115  53.0396557  20.6122994   5.1889682  53.8561344
  21.4088750   5.6379139  52.6499414  51.9866657  38.5988593   3.6208269
  52.2550535  39.5167065   3.6627054  52.1558619  38.3409476   2.7146897
  60.8491278  57.6317215  65.2034950  60.1112938  57.5866795  65.8116150
  60.5753183  57.1015882  64.4550180  22.5417042   5.8548951  15.3131866
  22.9822540   6.2674558  16.0561144  23.2502985   5.4664648  14.8001087
   9.5098913  64.2931700  59.1716480  10.4334259  64.1411924  58.9710999
   9.1136765  63.4220839  59.1503477  69.4166946  36.7332029   1.7322010
  69.1722775  37.3195863   1.0162070  69.4199181  37.2922707   2.5091609
  87.5407982  25.0616622  25.4216051  87.2599983  24.1480684  25.3693557
  87.9137039  25.1478124  26.2989569  15.4369211  68.4446430  68.4174871
  16.1238921  69.0054846  68.7777090  15.9010315  67.8377247  67.8408718
  33.6106443  26.5277123   1.7103858  34.0111637  27.0677757   1.0291021
  33.5762072  27.0977736   2.4785501  35.3305531   8.5737890  72.3702192
  36.0394287   8.0858171  72.7892828  35.7725573   9.1509527  71.7475271
  83.2966518  45.1103926   8.3097893  82.4476814  45.0315189   8.7448424
  83.1414223  44.7889662   7.4216330  43.3333349  81.4264202  61.5542221
  43.9947033  81.3483810  62.2417784  42.4988699  81.4236450  62.0231485
  13.7469184  85.8839798  42.0512247  14.0135944  85.7444286  42.9598713
  14.5697916  85.9287548  41.5642881  39.7194457   3.6233339  34.5697761
  40.3586721   3.0812031  34.1074777  38.9372706   3.0746225  34.6276355
  78.9232588  28.2965565   1.2326994  78.8125801  28.7341213   2.0768075
  79.8587036  28.3723474   1.0444668  82.0139122  23.1965613  11.2049305
  82.5246525  23.5559773  10.4795408  82.4622345  22.3822212  11.4331579
  46.4826345  84.6823978  45.3084850  46.1330938  84.4196892  46.1599731
  45.8733511  85.3509712  44.9953985  27.4274063  60.2112198  64.7838068
  27.1753860  60.7237816  64.0156937  28.3838606  60.2478695  64.7929192
  49.9193954  62.4623203  53.1278515  49.5911837  63.3084440  53.4321213
  49.6769094  61.8481159  53.8208103  62.8749323  25.8495331  69.2124271
  62.6075506  26.4341545  68.5032320  63.7988520  25.6693482  69.0388203
  28.8299274  16.9565845  30.1063108  28.5589361  16.3574064  29.4107652
  28.3855391  16.6313481  30.8892369  15.7862103  12.3832583  23.1739879
  16.1524522  12.2701633  24.0510893  16.4480996  12.8879368  22.7012992
  89.1277122  33.6862755   9.1881180  89.0948200  34.6080709   9.4439363
  88.2179260  33.3923316   9.2341566  82.1864319   5.8514988  22.9973149
  82.9701900   5.3108132  22.8993273  82.3235035   6.5832573  22.3956752
  86.5961742  40.3426075   9.7529936  86.9199657  40.9199762  10.4443967
  86.5838814  39.4731712  10.1531982  63.1693125   1.2097033  66.9035912
  63.0167484   0.3958949  66.4233065  64.0446615   1.4869307  66.6331387
   4.1918692  19.3884993  36.1788797   3.7797683  19.7928357  36.9423699
   5.1033413  19.6783090  36.2170959  54.7697496  61.1239958  48.3969021
  54.9863577  61.1409140  47.4646854  54.2554903  61.9189358  48.5377693
  88.1344891  77.2837496  35.4451013  87.3440647  76.8663645  35.7875204
  88.2508373  78.0609894  35.9915376  12.0982623  59.8618698  62.8906202
  12.1908438  59.2427015  62.1665382  12.9684162  59.8977327  63.2878304
  32.5043821  83.2459450  64.1925240  31.5709281  83.1205273  64.0217400
  32.8334093  82.3672295  64.3818521   0.5202730  31.7931747   9.5845580
   0.8290944  31.0460806  10.0971138  -0.3278064  31.5131998   9.2401630
  58.5122108  82.8906059  19.4880545  58.5419846  82.7910995  18.5365057
  58.5706377  81.9963264  19.8243320   4.8820540  37.5627542  14.7847188
   4.1916454  37.1527386  15.3057325   4.9209490  37.0392847  13.9842820
  43.2015181  17.0844746  68.4912062  44.0070343  17.5046682  68.7925577
  42.9307795  17.6018322  67.7327394  85.6073761   7.3345530   0.6625941
  85.8991241   6.4686447   0.9477521  85.0132942   7.1588564  -0.0670819
  60.6143808   5.4290450  47.6602745  59.7839832   5.8825099  47.5152206
  61.2799263   6.0428637  47.3496151  39.3979837  26.3917776  74.2134453
  38.9993860  27.0081564  74.8277976  39.4614603  26.8794056  73.3922146
  24.3498731  41.7086792   4.9401093  24.8184013  42.3773289   4.4404876
  24.5818925  41.8845654   5.8519542  22.0612288  43.2520819   1.7974983
  21.4140868  43.3630943   2.4940012  21.7264223  43.7805605   1.0730317
  58.9580822  37.0952892  52.0836782  59.7383785  37.4327064  51.6437674
  59.2137814  36.2257218  52.3914146  85.3108501  21.6103864  39.7072959
  84.8100758  21.9325900  38.9578676  85.2360916  20.6576252  39.6535420
  64.2559242  14.5683146  73.9143705  65.0243378  14.2071927  73.4723711
  64.4827700  15.4834199  74.0797663  38.4351492  21.4266801  65.9227133
  37.6216984  21.2621927  66.3996553  38.2367110  22.1768737  65.3623009
  60.6388617  55.7368755  69.2741632  60.3077126  55.1667929  68.5802031
  59.8678923  55.9439135  69.8023462  30.1065564  73.6785460  64.1730595
  29.9131274  73.2087040  63.3618450  29.9743128  73.0288792  64.8634768
   1.8040206  26.4394569  11.3314259   1.0151529  25.9305263  11.1445868
   2.4291734  26.1676002  10.6594813  33.6817265  78.3785772  62.9761267
  33.1988192  78.7352657  63.7216520  34.1566277  77.6289177  63.3348846
  85.9978008  39.8280811   4.8759031  85.1546860  40.2806091   4.9004734
  86.4690971  40.1580000   5.6409311  51.6128016  82.8816319  45.7526541
  50.9117174  83.2191467  46.3101435  51.4189911  81.9485950  45.6625605
  25.8474326  83.2685280  62.5111055  25.5623460  82.5376892  63.0595922
  25.2083993  83.9602280  62.6826191  25.9058046  57.9223633   0.5137596
  26.4085841  57.1528959   0.2466263  25.3733516  57.6173592   1.2483995
  54.0306902  51.8717813   7.4228567  54.8933506  52.2763538   7.3313373
  53.4696198  52.3663378   6.8254888  21.1394691  72.5681591  71.7022324
  20.5752492  73.3400393  71.6565323  20.5575228  71.8624544  71.9842815
  30.6860042   0.6387093  42.4794245  31.2088108   1.4078741  42.7058983
  30.6645894   0.6369658  41.5224648  24.0578628  78.9530277  46.6613722
  23.2424974  78.4792995  46.8256664  23.9119267  79.3987703  45.8269548
  32.7950382  58.3394909  10.3996825  32.4581170  58.1013727   9.5359606
  33.5510159  58.8972998  10.2164412  32.9265547  68.1941175  50.0227451
  32.7317691  67.2700691  50.1790476  32.3080277  68.6668158  50.5797100
  52.3465204  70.1798344  45.7577038  52.0106459  69.5864391  46.4294958
  52.7059555  70.9186840  46.2487698  54.6780014  43.5999870  33.1844187
  55.4435539  44.1461468  33.0059099  54.9312639  42.7270889  32.8841758
  75.4329872  27.9580092  70.3930426  76.1021614  27.8328347  71.0659266
  74.7465038  27.3301077  70.6182241  19.3033588  83.2694149  56.2064743
  18.3937109  82.9917526  56.3145304  19.2819357  83.8778305  55.4678249
   4.6145988  49.0284443  74.0903521   5.1001376  48.4287834  73.5238791
   5.1118743  49.0408611  74.9081516  74.2820787  51.1430454  16.3185489
  74.2574024  52.0776653  16.1133492  73.4489489  50.8038950  15.9912717
  81.0140324  34.5675302  69.2352009  80.5310535  33.8572979  68.8126612
  81.7611408  34.7256207  68.6580849  64.4715786  31.3137484  71.8519020
  63.9924288  30.4942966  71.7288399  65.3663540  31.1113596  71.5786791
   4.3567160   4.2489567  51.2350082   5.0158864   3.5632038  51.1279154
   4.0362573   4.4137293  50.3482246  87.6566315  16.5411854  61.4956999
  87.9281807  15.6539619  61.7309093  88.4383583  16.9365835  61.1099577
  21.1796451  28.4359479  64.8018360  20.4081869  27.9911041  64.4508410
  20.8988619  29.3430471  64.9225092   0.6972634  52.0750618   3.9479634
   0.9922865  52.7130985   4.5976588   0.1827977  52.5881481   3.3248267
  10.9574759  62.3310852  17.5665247  11.1418700  61.4335632  17.2896016
  10.0208390  62.4440241  17.4046922   2.2243163   3.3440265  38.4839725
   2.6064453   3.5786420  39.3296456   1.4557050   2.8184968  38.7059784
  11.2325716  71.7526913  71.3244295  11.6189837  70.8808184  71.4066362
  10.4717958  71.6250372  70.7577229  40.5525112  10.0154555  31.2730074
  39.9976325   9.7462136  30.5409884  40.8032608   9.1951650  31.6978335
  72.0845079  34.6714878  39.5795441  72.2462606  33.7663126  39.8454881
  72.1446514  34.6548843  38.6243796  91.2552929   1.4486326  39.1750145
  90.9510803   2.3556978  39.1447043  90.7531738   1.0512528  39.8864841
  35.6789708  68.8397169   4.6373320  34.8915625  69.3600750   4.4777998
  36.0342288  69.1874886   5.4553050  35.1563239  27.8524160   0.0868773
  36.0495019  28.1438637  -0.0962196  34.7226548  28.6239076   0.4515215
  66.8025017  32.2161198  60.9320927  66.0967731  32.8625035  60.9129763
  66.3668537  31.3922453  61.1504364   0.2518290  45.6394577  56.9783354
   1.1368642  45.8109188  56.6565514  -0.3179668  46.1268425  56.3833380
  83.0029869  83.9000034  34.0877533  83.7135887  84.0902519  33.4753132
  82.6893425  83.0334473  33.8290048  44.1818476  14.6060359  43.2303286
  43.5287428  15.0576901  43.7648296  44.0293932  14.9289620  42.3422384
  12.1371281  19.9931693  49.9391222  11.3977051  19.5008898  50.2957010
  12.7509403  19.3215525  49.6418095   4.2595708  11.1489499  68.5737610
   4.6056804  10.7276607  69.3604994   5.0297022  11.3051665  68.0272007
  63.5092640  65.8534384  14.2660213  63.7117147  65.5014229  15.1328146
  63.3602476  66.7870808  14.4154966  15.6273913  75.1983404   2.3808070
  14.7566020  75.2101135   2.7780724  15.7524753  76.0883665   2.0515107
  29.1231322  16.3846266  50.2822161  29.1591120  16.9200838  51.0748196
  28.2919264  16.6213596  49.8707724  34.9643302   2.0372090  71.9764471
  34.0541601   1.8847637  71.7223120  35.0605011   2.9894692  71.9629145
  12.0236361  16.0206008  18.9474034  12.4348450  16.8179226  19.2811954
  11.4251077  16.3269567  18.2661247  60.6703472   7.4849695  30.1683450
  59.9164486   7.7369189  29.6350574  60.4183102   6.6483903  30.5593014
  88.2549572  20.5159926  66.8217802  87.9381657  20.0047803  67.5664520
  88.7974167  19.9038923  66.3244772  20.6170678  69.3899584  46.1015081
  19.8143804  69.8975801  46.2208557  21.3202167  69.9942112  46.3395977
   5.4004258  36.5102220  49.1279078   5.4966432  35.5803347  49.3335342
   6.0889030  36.9401884  49.6352148   1.3384473  48.8400793  42.7539110
   2.2734192  48.7955189  42.5537252   1.3026354  48.9885855  43.6988401
  20.9239697  40.7566977  65.1956749  21.6159344  40.2143431  65.5741787
  20.2198339  40.1404047  64.9941635  74.8436642  48.5915184  24.1845250
  74.4378424  48.2126331  24.9642587  74.1090918  48.7844515  23.6019325
   5.3422564  27.8755260  62.9141235   5.3268868  28.8177752  62.7463055
   4.4217351  27.6364899  63.0224419  71.7541265  18.6894834  63.7797689
  71.0365915  19.1585791  63.3539486  72.5394630  19.1778314  63.5328007
  77.8682709  29.0135574  49.2717361  77.4444771  28.1966782  49.0084171
  77.3639202  29.6977520  48.8315725   2.4799617  33.2453084  53.3238554
   1.9303335  32.4649000  53.2524300   2.5804466  33.3820891  54.2658901
  17.7858746  59.4217062  45.8081818  17.3538017  60.2758408  45.8078337
  17.1867549  58.8500261  45.3281069  10.8856988   8.0437851  69.9814844
  11.2838459   8.8989991  70.1437187  11.6248059   7.4359834  69.9584675
  67.0745277  82.8696346  41.5450287  67.5637436  82.1377754  41.9209003
  66.3386917  82.4582005  41.0917139  24.8443580   8.5432667  41.9279051
  25.5395365   7.9908824  41.5703726  24.0877628   7.9610729  41.9975090
  62.6233721  70.9057283  42.6849985  62.4453592  70.9501266  43.6244535
  62.6090717  71.8178749  42.3951483  84.5618916   2.5504127  14.1192675
  83.6218357   2.3827104  14.0529919  84.6994305   3.3483005  13.6086893
  46.1108208  17.5166726  25.2010775  45.6887150  18.3756185  25.1846218
  45.3991699  16.8969667  25.0406265  67.1019697  23.5658836  47.1281719
  67.4636507  24.0722418  46.4008331  67.8202581  23.5045910  47.7578878
  88.4214497  33.3583260  36.9655466  87.7588654  33.7611938  36.4043736
  88.0673790  33.4403944  37.8510571  16.8810737   6.0465050  53.1256294
  16.4166725   6.8167388  52.7980566  17.4405968   6.3837421  53.8252306
  11.6717803  66.0968781  55.9917212  10.7593775  66.0552645  55.7053232
  11.6200626  66.2015867  56.9417715   4.7190812  38.8183880  47.5460529
   5.4308736  39.4055510  47.2914505   5.1587784  38.0693412  47.9483271
  84.8663661   3.7838160  -0.2851190  85.5596801   3.1397186  -0.1412906
  84.2458412   3.6309420   0.4274903   5.5510437  33.7819052  73.2506227
   4.9348199  34.4406223  73.5709190   5.1145935  33.3944941  72.4919033
  67.8521442  30.1568508  50.9507036  67.7180243  31.0533237  50.6431675
  68.6122322  30.2134728  51.5297461  49.9448490  62.7955580  57.7141094
  49.3389511  62.1075773  57.9894352  49.7672844  63.5235357  58.3097219
  27.6773381  33.3602738  31.5922976  26.8417382  33.6596274  31.2339807
  27.5066376  33.2353616  32.5258350  20.9921408  17.6112509  39.1763401
  21.5584970  18.0530810  39.8090005  21.1236882  16.6787040  39.3474650
  16.3364434  40.3642035  15.9487796  16.2561476  39.4955015  15.5548990
  16.6242647  40.9273100  15.2302361  16.2489581  19.6176994  59.5895815
  15.8496952  20.0630832  58.8422871  17.1070778  19.3377221  59.2710352
  21.3367057  21.0392594  32.6874757  22.0889568  21.3592339  32.1895099
  20.8765769  20.4596734  32.0803547  25.5547380  43.0816078  59.3923330
  25.5601954  43.9362049  59.8234510  25.4778099  42.4521303  60.1093245
  90.5523396  16.6636264  34.3171620  89.8453617  17.2827518  34.4990921
  90.7215405  16.2393522  35.1583481   5.3223270  22.3446822  30.8988047
   5.2795082  21.4083123  31.0927439   4.4905987  22.6938725  31.2189984
  77.5649118  82.4155903  55.4333735  76.8456745  82.7939510  55.9391117
  78.3559656  82.7100372  55.8847761   3.2979321  54.3208790  66.7664671
   2.5772628  54.6767712  67.2862816   3.2861829  53.3819056  66.9520044
  30.6203961  43.9122915  18.1507611  31.5641904  43.9467859  17.9949009
  30.5295467  43.4097719  18.9603615   4.8881632  10.7026398  71.7590284
   4.9763882   9.7799557  71.5200663   4.6212709  10.6875551  72.6781416
   4.6273875  57.5639296  52.9097462   3.7199712  57.8303194  53.0576134
   4.6212524  57.1655035  52.0394325  54.7958851  85.9279442  60.5125332
  55.1105356  85.1725101  60.0160074  55.5772781  86.4613628  60.6578636
  81.3297558  39.2851686  67.6292419  80.7390213  39.2244434  68.3799601
  81.0004711  40.0291109  67.1249151   4.9821004  82.3498535   2.2755480
   4.5021600  81.8422318   2.9299244   4.6501192  83.2422352   2.3739593
  69.7730541  62.4983883  72.1948338  68.9038515  62.7148294  72.5322723
  69.6143055  62.1954346  71.3008261  73.4100866  31.7673540  20.8110571
  73.9606619  30.9849811  20.7794809  72.9357815  31.6931868  21.6391659
   9.7769952   1.3284071  56.0489416  10.4009795   1.9854553  56.3574266
  10.3099084   0.7052758  55.5550385  31.0342860  79.3927717  10.9077907
  31.8152118  78.9476585  11.2368178  30.3371072  78.7413979  10.9845281
  83.3493233  72.3790359  48.0830050  83.2542992  73.2255459  48.5196114
  83.8220024  72.5781012  47.2748137  20.9753394  53.9800930  54.2275000
  20.4520702  54.1125250  55.0179958  20.6708407  53.1434202  53.8760853
  77.7387333  42.1781445  62.9380131  77.1544170  42.4328804  62.2239304
  78.3249950  42.9269838  63.0464840  36.6028023  51.2491798  65.8220339
  36.9803143  51.4436579  66.6798782  35.9715700  50.5497646  65.9911299
  88.4357929   3.7937298  22.8244829  88.9602089   3.7849739  23.6251974
  87.7662468   3.1251812  22.9693604   6.5075678  66.2241697  29.2274117
   6.8957371  66.1869860  30.1015806   5.9737533  67.0186520  29.2359829
  21.7432165  34.8775125  73.7529898  22.5642920  35.3637052  73.8283825
  21.1104131  35.5233550  73.4388542  80.3403473  14.6723294   0.4666207
  79.8150063  13.9392722   0.1458711  80.1961327  14.6743822   1.4128923
  33.6986160  54.8103523  58.1906700  33.6881018  54.0881729  58.8188219
  34.2185235  55.4914093  58.6173916  20.4311991  41.3318396  62.2912073
  20.7677555  41.3491678  63.1871223  21.1142969  40.8895206  61.7872572
   9.7835290  41.6774654  58.7277126  10.1033068  42.3775291  58.1586027
  10.4119253  40.9654522  58.6077929  35.3198242  29.1471815   6.5083474
  34.7220874  28.5431957   6.9489676  34.7708106  29.6064854   5.8728510
  61.5061951  69.3583393   9.0060288  60.5574942  69.3837357   8.8813329
  61.8619394  69.7804165   8.2240254  90.0540066  43.4287834  54.5171213
  89.8319912  42.5060415  54.6415997  91.0018921  43.4312010  54.3839025
  10.8076620  34.0229034  49.1334629  10.8130074  33.4677362  48.3537245
  11.4604020  33.6291122  49.7123337  70.0095940  18.0091178  66.3864946
  69.0657568  18.0371654  66.2296009  70.3883314  17.8016543  65.5322409
   3.8950729  30.7118535  64.2716980   4.4046429  30.9772325  65.0372982
   3.9440313  31.4623022  63.6795282  35.2596855  29.0245056  48.7577724
  36.2080407  29.1490650  48.7943649  34.9017096  29.7660995  49.2457533
  57.1330786  17.8051245   1.3277400  56.6179800  18.6093509   1.2634876
  56.5288401  17.1627855   1.6999377  57.0715189  21.9906235   2.3830865
  56.7626333  21.5273499   3.1616759  56.5281248  22.7775192   2.3412703
  11.2810612  45.2027416  22.3208833  11.6561568  44.9291372  21.4838195
  11.9315994  44.9401712  22.9721045  14.9580717  40.2835274  39.0173459
  14.5402491  40.6354189  39.8033667  15.8950055  40.3112698  39.2112970
  31.6928315  35.0051808  53.5785866  31.1410713  34.5947957  54.2444515
  32.0356536  35.7916427  54.0030670  41.6399860   0.1341802  10.7216966
  41.9580269   0.6267847  11.4782834  40.8079386  -0.2396443  11.0118294
  72.1824932   9.9050128  11.6684639  72.3739624   9.4065124  10.8740652
  72.9904175  10.3849137  11.8506432  11.1711860  60.5805016  46.3830280
  10.8110762  61.4639950  46.3056087  11.5901995  60.5672026  47.2435427
   0.1459071  50.0378418   5.7586390   0.9677514  49.5580339   5.6557393
   0.1573795  50.6862879   5.0546396   3.4038550  22.1344876  48.0135345
   4.3601722  22.0953012  48.0259275   3.1254199  21.2256646  48.1264353
  47.7049254  71.7214708   1.7730342  48.2650231  72.3887042   2.1696721
  47.9228125  71.7488031   0.8413659  82.6099110  17.1448088  70.0433540
  83.1491852  17.8084636  70.4734516  83.2306480  16.4651036  69.7808266
   6.9838405  30.7111478  55.1881456   7.8276742  31.0556483  54.8957491
   7.1970862  30.1663327  55.9457302  84.6453571  39.9858689  49.7227430
  83.8703728  39.5447659  50.0706673  84.7678757  40.7425499  50.2960300
  63.7182951   1.9395439  36.3389564  64.3744659   1.4534935  35.8395314
  62.9242086   1.4094663  36.2705731  81.9357109  50.9460545  53.9902592
  81.2273788  50.7663774  54.6084929  82.4675274  50.1502228  53.9974546
  14.5606148  83.4625530   0.4666193  13.7803423  83.9978981   0.6108975
  15.2683771  83.9533138   0.8843014   9.6227610  15.9731531  66.0113430
   9.5451587  15.4515588  65.2124977  10.0992846  16.7576468  65.7398176
  31.0742307  56.1721611  67.8201628  31.7038155  56.8883896  67.7372646
  31.3981652  55.4981661  67.2226429  91.5840249  32.0186305  70.1764393
  90.8630797  32.5646806  69.8629093  92.3347325  32.6113200  70.2136946
  62.0033550   1.9881202   0.5665193  62.8074026   2.4928996   0.6887289
  61.6499233   1.8830498   1.4498533  17.3907602  37.3110485  45.6623888
  17.5110734  36.5038610  45.1621819  17.7200603  37.1024084  46.5366077
  40.2214479  29.0352392  27.8472042  41.1638880  29.0616655  28.0125570
  40.0348806  29.8567724  27.3927736  40.6755686  14.0094829  74.3166018
  41.5493011  14.3199325  74.5541906  40.6980610  13.9380145  73.3623362
  91.0060215  38.6989403  51.6500854  91.9215488  38.4223413  51.6109133
  90.5829144  38.2290936  50.9314394  73.7006235  83.8313389  32.1620870
  73.8827848  82.9440403  31.8526578  73.1346655  83.7077999  32.9240990
  77.7671480  13.6136830  46.2991333  76.8940783  13.9672232  46.4693975
  78.3243513  14.0221775  46.9616222  89.3489742  72.1062231  49.9742508
  88.8411903  72.5448322  49.2916012  88.9238548  72.3642921  50.7921219
   3.9841884  49.1104937  42.6837826   4.7802246  49.1931438  43.2088804
   4.2251515  48.5128927  41.9759464  -0.0960467  31.9924474  63.9491796
   0.6279256  32.5888610  63.7584162   0.1549699  31.1693001  63.5300732
  91.7251492  41.0293913  52.9547215  91.5575886  40.2701426  52.3964262
  91.0308743  41.0004950  53.6130333  82.6168823   4.5893741   1.4247809
  82.6000786   3.8582641   2.0423791  83.0396175   5.3002626   1.9066206
  16.9072056  37.4763560  72.2378254  16.8736494  36.5250754  72.1369696
  17.1405482  37.6117611  73.1562185  48.6252403  69.0978241   6.6406566
  48.9055347  69.7721815   7.2594547  48.5260010  69.5618963   5.8093792
  77.8562450  26.5354967  71.6429186  78.3334064  26.1296368  72.3666763
  77.5611305  25.7988715  71.1076450  33.0957508  82.6240158  10.7784939
  33.4734178  82.7264023   9.9049282  32.1601343  82.4966812  10.6215203
  16.6913056  26.2084055  41.1801910  15.8292818  26.5516734  40.9450054
  16.6902018  25.3105092  40.8485079  26.7138815  17.4135923  45.1241875
  27.0795631  17.7674520  45.9349251  26.0607195  18.0591488  44.8542500
  77.1324205  25.8036947  24.4772053  78.0804491  25.7048678  24.3894362
  76.7763186  24.9631119  24.1893864  35.5741119   0.0408361  59.5208025
  36.1890244   0.5115627  58.9581919  35.7820845   0.3400336  60.4059315
  14.7668910   3.1032422  66.0165167  13.9953208   3.1348261  66.5821266
  14.8928237   4.0085933  65.7324171  21.9705558  70.2477360  15.4225576
  21.2281537  69.7476578  15.7616627  22.2073388  70.8391285  16.1369956
  38.2515740  46.1037254  53.1500626  37.3702502  45.7398319  53.2342243
  38.5926294  45.7207918  52.3418093  90.5295467  33.2851577  66.0323238
  90.8951664  32.8672671  65.2526331  90.4109097  32.5680089  66.6551018
   3.5690102  64.9285555  29.8644567   4.2894021  65.5019951  29.6028519
   2.8920081  65.5250359  30.1840091  34.8374939  84.7142506   2.7577794
  35.5224657  85.0603390   2.1857047  34.5366073  83.9194012   2.3174110
  86.5548801  15.8797014  49.1915751  85.9445477  15.6451583  48.4924936
  86.5518093  16.8368495  49.2010784   5.0391644  63.1614304  31.3251829
   4.3658409  63.3358049  30.6675649   5.3744447  64.0267038  31.5599537
   2.8029227  29.3210483  39.8028970   3.3818185  28.5587716  39.8094583
   3.1375673  29.8698401  39.0936232  58.5833740  81.4688969   3.6478499
  59.0478897  82.1861267   4.0791604  59.2470884  80.7889366   3.5322058
  25.7155919  78.6478519  59.9585104  25.9974957  77.9937124  60.5979300
  26.0856748  79.4705868  60.2784824  62.1848583   1.0179739  11.5571761
  61.4547157   0.9534796  12.1727788  62.3166752   1.9587430  11.4396667
  74.2410517  31.6968489  37.3211122  75.0383234  31.4543915  36.8501568
  74.1845465  32.6473236  37.2229290  90.9632206  26.7238760  33.4005070
  91.6250610  26.1463761  33.0201292  90.5021763  26.1747837  34.0346766
  15.1288736   8.2912242  16.1458647  15.3398573   7.6598394  15.4580629
  15.9595311   8.7288105  16.3322997  38.2921863  35.0367618  52.5219059
  38.5772943  35.2608418  51.6360521  38.8787913  34.3297267  52.7906561
  -0.0573467  86.6921434  45.6896782   0.2604796  85.8806740  46.0855722
   0.1198079  86.5879514  44.7548008  14.7585642  45.1139832  27.6620030
  14.7719359  45.3409529  26.7321968  14.5671070  44.1762447  27.6769161
   8.5638833   4.9296370  58.3328581   8.1407785   4.0884101  58.1609535
   7.9893005   5.5752397  57.9214191  15.5536842  11.3577926  39.0999889
  15.7947469  12.0108509  38.4430003  15.4036057  11.8648255  39.8978782
  76.5273857  13.6425209  31.0198402  76.4978218  13.6082077  30.0637126
  77.0356178  12.8714418  31.2715769  27.9099226  50.7905579  24.6512914
  28.3779621  50.1414251  24.1261268  28.6000514  51.3360739  25.0286078
  88.2135487  18.7020409  73.1064367  88.2794762  18.5604525  74.0508080
  87.4725914  19.2994761  73.0049706  44.9607754  82.2394848  11.0602844
  44.6947479  81.3673592  11.3515806  44.1604805  82.6287556  10.7078171
  22.1483994  59.8825502  68.3110857  21.5684533  59.1210651  68.3171654
  23.0027533  59.5309448  68.0607128  36.8932843  45.8157110   6.2035388
  36.2754512  45.6429291   6.9139338  36.6300535  45.2155066   5.5059028
  16.3327694  67.0947647  74.2519855  16.5803695  66.1708736  74.2152452
  17.1582305  67.5585461  74.3925333  34.2270827  18.8026714  11.2130857
  34.2796803  19.5559895  10.6248879  35.1376843  18.5407174  11.3487935
  16.7992139  10.5863369  15.4768646  16.5154684  11.4988482  15.5320227
  17.6009274  10.5528414  15.9987509  79.7247887  78.5535860  53.1673145
  79.6134281  77.9056072  53.8629866  80.5801105  78.9467001  53.3408403
  14.7780573  42.8533745  66.1310482  14.2275929  42.1735334  66.5196848
  14.5012033  43.6615753  66.5627813  40.0482845  71.4603996   1.8765728
  39.4378448  72.0452356   1.4276160  40.0031185  70.6418800   1.3823864
  91.1074161  31.6434189  74.3700503  90.1923942  31.7787786  74.6163180
  91.5275954  31.3317295  75.1716295  84.2924213  57.6769781  44.4194984
  84.4813919  57.0665216  45.1321459  83.8307762  58.4018040  44.8411036
   8.6035168  74.5006847  50.4977465   9.4537401  74.0624523  50.5338383
   8.3054614  74.3714190  49.5973635  17.7504253  32.0821214  55.6234598
  17.4998987  32.3331714  56.5125275  17.2421336  32.6637340  55.0581312
  81.7409229  25.0122833  54.5351028  80.9972954  25.5981183  54.3935299
  81.4201832  24.1499734  54.2709494  48.1833982  14.1308486  50.0976944
  48.1942415  14.8541498  49.4708395  47.7306271  13.4231484  49.6390104
  64.5632458  72.6277161  24.4248486  64.0134335  72.7770758  25.1940227
  65.4117107  73.0030251  24.6603966  13.5345423  15.0129116  63.3558273
  12.9906499  14.5604289  64.0005541  14.4311690  14.8803484  63.6635923
   4.6673453  23.4594202  53.8169718   4.0413311  23.9066362  53.2474661
   4.1614896  23.2322383  54.5971870   4.5871541  40.2827215  15.2575052
   4.0597826  40.3638840  14.4628215   4.9198091  39.3855047  15.2336085
  60.6491327   2.9072547   7.2843015  60.4743910   2.0760834   7.7257198
  59.7911263   3.2006943   6.9777989  65.1572514   1.0532730   4.6737424
  64.9886751   0.4733395   3.9311180  64.5141029   0.7917525   5.3326815
  91.0766029  57.1598721  51.6124344  91.3885498  56.7110395  50.8266401
  91.1718369  56.5129757  52.3114967   7.7777499  51.8974876  66.9336462
   7.2114187  52.6337528  66.7025375   8.2543492  51.6996479  66.1274529
  36.4861369  45.2070332  65.5224705  37.2605515  45.7694769  65.5354595
  36.7776036  44.3888140  65.9247112   2.1700783  58.5075331  49.1022921
   1.4324686  58.6633778  48.5124826   2.4074894  57.5924540  48.9523077
  16.5029907  54.2633438  58.0826712  17.1430433  54.6753693  58.6630154
  16.1626363  53.5246849  58.5874224  24.5365286  71.1333752  30.2243400
  25.4372621  70.8116055  30.2614117  24.6236014  72.0861244  30.1940489
  67.6695633  77.2457123   6.8949187  67.5808859  78.1721401   6.6710895
  66.8947506  76.8321276   6.5143317  35.5355692  -0.0195825  21.7463875
  35.1383877  -0.4987152  22.4736500  35.1177168   0.8412722  21.7700934
  78.5335064   5.2725095  13.4941971  78.9385939   4.6380031  12.9029810
  77.6897240   4.8824406  13.7224638  34.5275545  26.5765333  49.2585564
  34.8512316  27.4503446  49.0396500  34.3675518  26.6097069  50.2017021
  78.8748884  59.7376680  43.9846420  78.6669397  59.0187740  44.5814514
  78.4246016  60.4958773  44.3569231  19.6987236  67.0207453  23.7264609
  20.1010108  67.7484083  23.2522225  20.2430773  66.2637138  23.5100865
  19.7768593  68.7412214  66.0808563  20.1648140  68.4537125  66.9073343
  19.2392445  69.4966507  66.3186121  77.9671097  36.9163251  68.2068729
  77.3059750  36.3029003  68.5275650  77.9760647  37.6197600  68.8559723
  23.7089396  69.0276909  43.0352449  23.8341141  68.3541250  43.7037277
  24.2072320  68.7123632  42.2812510   6.0012549  45.7561636  66.2997246
   6.0316229  46.3749599  65.5700684   6.1001980  46.3012505  67.0803165
  88.1956673  76.6118240  41.7403984  87.9713726  76.3337898  42.6284409
  88.5585308  75.8277273  41.3283920  79.0252686  41.9960880  13.2575071
  78.9277744  41.1977196  12.7385342  79.3197489  41.6897392  14.1152167
  24.0186787  75.5652142   9.7552449  23.2320666  75.2778769   9.2916590
  24.7228098  75.4703426   9.1138160  21.3375044  42.8312731  71.7203903
  20.7132697  43.5536909  71.6520214  22.1558666  43.1884193  71.3754797
  59.1723108  81.3654137  53.1669474  59.7783613  82.0991135  53.2699919
  58.3909130  81.7536736  52.7733660  12.6294482  10.3875303  70.5782700
  12.9022563  10.0549960  71.4333916  12.9842019  11.2758422  70.5424309
  91.9729618  76.2280369  22.7131939  91.9143265  75.4013634  23.1921530
  91.0957983  76.3589382  22.3530841  33.5063982  62.6129532  23.7274456
  33.4169745  62.7462482  24.6710920  32.9970193  63.3225489  23.3359885
  34.8117733  59.6306467  66.8263769  35.5787373  59.1366148  66.5366602
  34.9316359  60.5021048  66.4489889  46.1379719  66.0845613  22.8138447
  46.0310841  66.8264723  23.4091353  45.3190041  65.5951881  22.8915834
  90.6577396  49.2911339  51.5465355  90.8742714  48.3953428  51.2878752
  89.7448540  49.4029903  51.2812805   5.5002648  41.8761015  52.3969507
   6.1583275  42.1820307  53.0211258   5.9468895  41.1967421  51.8917513
  37.0321822  77.2792292  23.2826233  37.6853514  77.7995777  22.8148246
  36.9980621  76.4510632  22.8038692  26.1979747  34.9666739  62.1232891
  27.0260549  35.4443979  62.1711731  25.5414414  35.5945754  62.4248505
  12.1895564  24.2987394  65.1612043  11.7716551  24.3248367  64.3004417
  11.8115139  25.0404787  65.6335783  45.9495068  18.7953949  18.1144476
  46.3655901  18.5331047  17.2932839  45.7557631  17.9701591  18.5590601
   3.5361391   8.5379225  61.3540459   2.9494458   8.5688895  62.1097326
   3.5666823   7.6122534  61.1123085  33.4253740  74.9504375   6.0453659
  33.6364317  75.3423214   5.1979494  34.2239738  75.0541687   6.5627754
   0.8551478  10.5318367  46.3831663   0.5786110  11.3619637  46.7713022
   1.4352050  10.1428473  47.0377302  65.7928753  34.9502802  19.1920650
  65.8005905  35.8694839  18.9251661  66.4682245  34.5386505  18.6528993
   7.9035383  19.6069264  40.4751253   7.1976560  20.0566363  40.9395885
   8.2006085  18.9325213  41.0859919  38.2509589  36.0332561  13.6338973
  38.8090515  35.2903295  13.8637280  38.0753517  35.9209204  12.6996732
  83.7766361  56.7727900   1.6372870  83.6833763  57.1009636   2.5316224
  82.9061985  56.8753910   1.2525219  81.1389542  71.5865135  43.7723017
  81.1343765  71.8654299  44.6879530  81.9163609  72.0020676  43.3992338
  33.1847930  61.5053844  68.5799456  33.5406065  60.7647514  68.0889368
  33.4665298  61.3523531  69.4818544  18.6354840  81.8028927  38.7873197
  19.4203937  81.6743660  38.2547522  18.2143068  82.5755119  38.4106040
  72.6135063  37.2878361  53.9826870  71.6791058  37.1516418  54.1394663
  72.8275824  38.0763817  54.4812870   4.4770631  65.2101803  56.5528631
   4.2414087  64.2934656  56.6954470   4.3912271  65.3353405  55.6077719
  35.9411216  34.4977117  16.6961563  35.7169986  33.8668132  17.3802400
  35.3612924  35.2420235  16.8574977   3.3010259  21.5409017  63.9796352
   3.0019158  21.4932394  63.0716228   2.4970938  21.5128136  64.4984198
  17.8179634  15.5153501  56.1209869  18.5644031  16.1144757  56.1105585
  17.8076410  15.1302981  55.2447081  66.7133951  81.9727707  65.8498144
  66.5344238  81.5043545  65.0344658  67.6613760  82.1052551  65.8467960
   2.7645978  83.7063789  18.4204423   3.4411374  83.1572723  18.8166857
   1.9947198  83.1397343  18.3710909  43.1544876  70.0933933  24.8090625
  42.9968119  69.7138071  25.6735182  43.3494759  71.0141039  24.9837112
  42.7295828  52.4181700   5.5605596  42.5143957  51.9266939   6.3532639
  42.4667120  51.8420315   4.8427856  14.2009914  60.3224182  25.7539105
  14.2136621  59.3653917  25.7406259  14.9288070  60.5636549  26.3269019
  50.9693813  24.8529339   2.9182661  50.7184362  25.5829501   3.4842488
  50.7714176  24.0711188   3.4338269  83.0678558   2.0899667   7.6235515
  82.2729301   2.6231676   7.6280117  83.6823082   2.5806189   7.0777088
  13.9428771  56.1549282  70.9981394  13.8957632  56.0280609  70.0505543
  14.8710537  56.3101482  71.1731482  50.1729965  22.8020406  55.5182076
  50.6472445  22.4027967  56.2475395  49.8357582  23.6244607  55.8733559
   1.1085979  48.7365150  59.1721106   0.3476664  48.9607620  59.7077656
   0.8211333  48.8889933  58.2719183  17.5932395  60.1438332   8.9636183
  16.9900453  60.1569128   8.2205051  17.0306969  60.0098848   9.7263986
  89.9823189   7.1008706   3.6383805  89.6686840   6.3761610   4.1793627
  89.2075253   7.6436979   3.4925866  14.4433749  16.8999767  43.4326363
  13.7908185  17.1329892  42.7722502  14.3713152  17.5883079  44.0938759
  26.5195417  28.1408334  55.0150490  26.6737413  27.4737787  55.6839943
  27.1178508  28.8521504  55.2437162  71.1420107  59.4077349  65.9502411
  72.0930386  59.3271112  65.8776379  70.9888077  60.3463221  66.0589457
  36.8209648  10.0046349  44.6005678  36.4483571  10.2193165  45.4557371
  37.3886585   9.2525005  44.7686481  13.4557068  30.9720421  47.0211220
  12.7612746  30.5262089  47.5061226  13.6765623  31.7304254  47.5617790
  36.0371971  31.6185331  57.9191828  35.4802966  32.3540807  57.6641035
  36.4058852  31.3002348  57.0951748  89.5793438   8.0740911  20.0399542
  89.9810028   8.6268359  20.7103062  88.8869667   7.6017559  20.5022860
  24.4954944  17.7142191  56.7357969  24.9906611  17.1706617  57.3486519
  24.9783587  18.5400927  56.7040634  71.9191456  78.0882835   9.0346819
  72.8087282  78.3024502   8.7536079  71.4189386  78.0274296   8.2208490
   6.7263985  53.0217123  30.7170463   5.7770044  53.0522537  30.8351564
   7.0679754  52.7916241  31.5811157  73.0871201  47.7013206   3.2681429
  73.3933210  47.0560455   3.9053994  73.5005522  48.5208511   3.5395703
  19.0166295  37.1145415  67.1571207  19.3666339  36.2251925  67.2099304
  19.4524193  37.4986577  66.3963509  25.9057498  49.8744965  40.1810360
  26.2958026  49.6127892  41.0150576  26.5388274  49.5914316  39.5212507
  25.8478498  19.1958809  28.2991028  25.0499654  19.7112954  28.1809521
  26.1580014  19.0272486  27.4093843   5.0305206  32.1827960  70.8287716
   5.2882653  31.2650013  70.9151125   4.6168521  32.2353697  69.9671793
  24.6541524  16.9445360  34.9354696  25.1752496  16.8269789  35.7297444
  24.9882483  17.7532125  34.5473289  32.6411963  34.6075344  51.1468363
  32.2446871  34.9871874  51.9309807  32.9772472  35.3600812  50.6600380
   7.4070030  21.0034299  64.9358892   6.8581235  20.9935784  65.7200241
   6.7854297  21.0400796  64.2088842  13.2446468  57.4949884  65.8409452
  12.4769723  58.0563402  65.7323456  13.0673707  56.7365170  65.2845955
  31.7418456  33.5806179  66.8971300  32.3210239  34.0013885  67.5325298
  32.2993875  33.4169769  66.1364698   7.4192357  14.6367562  62.9461336
   6.5889251  14.8718905  62.5319719   7.8407162  14.0477550  62.3203039
  75.6624508  31.0364985  65.9473753  75.9703112  31.7388988  65.3745842
  76.3312149  30.3557968  65.8723497  18.0953097  14.1569638  52.9557991
  17.9324293  14.7947443  52.2608614  17.3299551  13.5823870  52.9377651
  44.2856359  47.7152824  63.9387369  44.0387249  46.9787598  63.3794498
  44.4293594  47.3240423  64.8004246  74.4170570  43.8032532  72.0090485
  73.7332964  44.4074249  71.7197847  74.9592590  43.6655426  71.2323332
  33.8896275  52.0892334  55.0028515  34.6583843  51.6704035  54.6157742
  34.1026783  53.0224037  55.0085545  43.6171412   2.8543316  -0.0536813
  42.9114412   2.7065741   0.5759154  44.0962195   2.0259272  -0.0752486
  14.4031620  41.6013908  42.1981668  13.4514761  41.6717482  42.2728300
  14.5980453  40.7014656  42.4596786  25.2693725  68.3878088  63.9515352
  25.0777531  67.5451899  64.3632412  24.4138122  68.8048887  63.8500977
   9.9360019  43.0319595  28.5561037  10.5458641  42.3163033  28.7353706
  10.1917064  43.3536625  27.6916075  14.3135965  60.1438951  33.9522672
  14.0273082  60.4980135  34.7942138  13.6288261  60.4059315  33.3369136
  71.9238472  77.9551411  74.3516636  72.5213194  78.6873674  74.5036554
  71.2593365  78.3071852  73.7594461  13.3634889  31.9788003  26.5512276
  13.4139490  32.2101498  25.6237769  13.4946907  31.0308027  26.5690851
  22.9284620  68.6311150  48.8397169  23.0723739  67.6961851  48.6933279
  23.7559485  69.0427160  48.5905504  70.3301239  43.2059288  47.3214531
  71.2809277  43.1651831  47.4241686  69.9858522  42.9713154  48.1832314
  13.0757761  42.1132231  51.5727901  13.1470418  43.0485535  51.7633486
  12.6547587  42.0751572  50.7139921  20.9695458  61.4297152  66.2033081
  21.3536286  61.0205412  66.9787407  20.1733756  60.9254122  66.0359049
  19.4226575  26.4153910  47.7919340  18.9568877  26.8283892  48.5190678
  20.2603936  26.8766689  47.7512646  69.5427561  24.7598052  20.9909582
  69.1842508  24.7626662  21.8784809  69.6880531  23.8343573  20.7943177
  67.4450302  76.5715218  31.4943027  67.6533890  76.0507774  30.7186437
  67.1034336  77.3948097  31.1453915  59.7275448  66.2644863  44.6185255
  60.4038095  65.9135962  45.1979876  59.9737167  67.1805620  44.4903135
  32.3150730  42.1547985  26.1426330  32.4690247  42.1805906  27.0870209
  32.0968580  41.2407923  25.9604049  27.1994948  61.3043833  54.6715355
  26.5930033  60.6906796  55.0859880  27.9809523  61.2785769  55.2237034
  90.0632095  63.7429237  50.7795095  91.0160446  63.8140869  50.7222795
  89.8404217  64.1697311  51.6068125  33.5600281  18.0072081  48.1129456
  33.7190032  18.9429355  47.9889631  32.8046918  17.9682600  48.6996174
  66.1639977  66.0804939   2.3031454  66.9800377  66.5395975   2.1043146
  66.1101103  66.0907793   3.2587719  -0.3519081   4.1429034   4.3233639
   0.0707720   4.8927659   3.9047003   0.3241300   3.7731627   4.8912510
  74.0668488  78.0683899  55.8846521  74.8609114  77.8708649  55.3879786
  73.7384748  78.8802910  55.4983616  14.9011278   0.4160506  25.7417178
  14.8361480   1.0403469  26.4643955  15.3786719  -0.3274395  26.1096931
  72.3577929   4.4534522  21.2418127  72.0016003   3.8125864  21.8571591
  71.7101145   5.1581246  21.2282324  84.5504665  56.2380219  40.4428148
  84.8101234  55.5168009  39.8695350  85.3208828  56.8049717  40.4784107
   4.4604865  32.4563527  25.2435827   4.9679491  32.8074121  24.5118237
   4.8039407  31.5719962  25.3707957  26.7187572  74.6839237  34.9053431
  26.2592459  75.1402521  34.2004704  26.7066050  73.7635517  34.6426749
  30.6469536  84.2568302  12.1147919  30.9042978  83.4373951  12.5373101
  31.0187316  84.1995239  11.2346053  58.6734200  76.7270184   9.9124324
  57.9118776  77.2060061   9.5855474  59.4253778  77.2092533   9.5685720
  51.1777496  15.4687786  38.7505460  50.7189798  14.9973011  38.0552244
  50.7983255  15.1290083  39.5609951  89.0535927  33.7091160  60.4657316
  88.5665989  34.2453694  59.8400354  89.5689964  34.3383956  60.9703159
  32.4989867  58.4068775  64.6150255  32.4483991  58.3657932  65.5700064
  32.9762101  59.2168856  64.4350815  20.6090617  20.0790024  53.5844374
  21.2551737  19.6416008  54.1389227  19.8618138  20.2323389  54.1626596
  15.3156471  51.2075615  56.8974209  14.6460342  51.7031431  57.3688507
  15.5799198  50.5202627  57.5089884  25.2076721  33.5709691  66.9482470
  25.4102850  32.6364994  66.9041491  25.9111834  33.9437723  67.4795866
  22.1311736  63.5447884  58.1351852  22.0537496  64.2391491  57.4808931
  22.8835630  63.0276012  57.8476858  89.0397644  61.0448551  27.4502087
  89.7744846  60.7455158  27.9857564  89.0399551  60.4581261  26.6939139
  75.3712416  51.4413452  56.5928268  74.5794392  50.9036255  56.6045523
  75.6558228  51.4287186  55.6789970  60.2139187   4.7184908  71.4361477
  60.1265001   3.7680840  71.5090704  59.9380255   4.9164239  70.5412006
  15.6222653  39.1244054  42.6496649  15.5976152  38.1778383  42.5095367
  16.4035201  39.4158483  42.1796274  55.9501886  71.3075447  16.2545824
  55.7082796  70.4859591  15.8271396  56.5193653  71.7475080  15.6231558
  29.9518228  63.2508707  16.6936958  29.5089912  63.9493847  16.2118125
  29.9886847  62.5202036  16.0764444  75.9335661  38.3036637  20.0853443
  75.3049469  38.0684590  19.4028866  76.7754269  38.3447552  19.6316719
   2.7350309  56.3098145  64.6961069   3.5616261  56.7535782  64.8859692
   2.6019847  55.7226372  65.4402542  34.5621562  40.9739876  67.1881390
  34.7466612  41.4145041  66.3585997  35.0207138  41.4981222  67.8448296
  71.5358162  24.3418026   2.0758925  71.5619373  24.2914510   1.1203748
  70.8633327  23.7100935   2.3307300  31.8359923  64.9423075  70.2602291
  31.4406180  65.5440807  70.8909321  32.4214292  65.4919577  69.7392893
   3.9655194  71.6093254  49.6719313   4.1461438  72.5454473  49.7572803
   3.4569302  71.5361834  48.8643312   9.5315301  61.0251093  40.8002043
   8.8918370  60.3162241  40.7330894   9.6572435  61.3204527  39.8984289
  24.4358397  27.0965767  49.4389343  24.6701598  28.0049014  49.2484760
  25.1405859  26.7809820  50.0045919  29.8540187  18.0734456  68.7984085
  29.6060395  18.5465181  69.5927238  30.3299689  18.7178779  68.2745647
  43.9916945   6.2349141  69.8698664  44.5808792   5.5551952  70.1970911
  43.6283827   6.6371018  70.6588411  81.7436123   8.2920331   2.7240250
  81.6074657   7.3738545   2.4902637  80.8693600   8.6162937   2.9403019
   2.3497398  57.8216934  60.4350471   1.8662383  57.9840279  61.2450504
   1.6776919  57.5716257  59.8009729  23.0050278  36.4439225  53.6697292
  23.1390977  36.3595796  52.7257252  22.1710491  36.0035920  53.8334846
  51.1850166   6.9128162  45.8247519  51.3787508   6.9974637  44.8911953
  51.5395641   7.7110791  46.2162876  23.3546209  12.9668784  52.2752571
  22.7733827  13.7123144  52.4259901  22.8372979  12.3639071  51.7413759
  88.3948231  37.9080629  67.7831316  88.8236141  38.0808330  66.9449663
  87.8986073  38.7056327  67.9672050  70.4750729  38.3253908  60.6219578
  70.2450466  38.1123757  61.5263605  71.2601328  38.8680172  60.6959438
  47.9489326  78.6833715  31.2579823  48.2016802  77.8780222  30.8065820
  48.2759285  78.5704231  32.1504784  26.2855434  26.4314818  13.6325073
  26.8981123  27.0805836  13.2865930  25.6822395  26.2620378  12.9089439
  52.6144075  71.3435841  22.1590853  53.4037876  71.7753935  21.8325114
  52.8870869  70.9358120  22.9810333   7.0397687  63.4469128  56.2497854
   6.5998900  62.7345133  55.7858610   7.1380967  63.1245804  57.1457005
  63.9507437  82.7042580  56.3387537  64.0203190  83.6408710  56.1539555
  64.7865486  82.4778843  56.7466974  11.3764358   3.1468371   7.6461357
  11.8714213   3.1212640   8.4650177  10.4961908   3.4179479   7.9067111
   4.5470631  20.9742641   4.6901095   5.2873206  20.9444809   4.0840042
   4.7942001  21.6343403   5.3377634   6.6907638  69.6511698  45.4543543
   6.0980499  68.9084673  45.5697250   6.3250780  70.3382397  46.0115242
  21.9005704  18.3095336  65.9036303  22.6094246  18.1333232  66.5222645
  21.9871616  17.6260328  65.2391338  14.3660140  37.3477864  63.7669802
  14.3941140  36.4225245  63.5234022  15.2245045  37.6879740  63.5149956
  13.5521364  44.9697876  61.4970970  13.0285180  44.2282104  61.8006039
  13.0497956  45.3356791  60.7690811   4.2768183  29.2159534  20.4742718
   4.9847585  29.4132328  21.0875702   4.6950802  28.7033010  19.7825539
  61.8182850  75.6365728   4.4543940  60.9881735  75.2609539   4.7477558
  61.8076754  75.5276918   3.5034660  10.9080076  81.2545681  15.6574464
   9.9717939  81.2525940  15.8567774  11.3352668  81.2478065  16.5139723
  41.6394377  57.6787281  67.5311613  40.8854198  57.2458124  67.9314995
  41.2590742  58.2705498  66.8820763  12.3575914  28.3175373  67.7221441
  13.2973206  28.1842637  67.8461599  12.2154117  29.2385554  67.9406452
  87.4244690  47.4149179  59.0490198  87.0940685  47.7490044  59.8829556
  88.3307648  47.1674156  59.2323256  10.6795454  56.9714451  48.0374050
  10.1154006  56.3678598  48.5207891  10.1791012  57.1892738  47.2510624
  46.6216040  67.1235371  55.5811787  46.7654657  67.8395700  56.1999130
  46.6708374  66.3312578  56.1160612  88.6777782  81.9300175  55.4299021
  87.9504013  82.4839401  55.1464891  88.5015106  81.7579174  56.3548565
  66.8634176   3.2277355  62.1006489  66.4188194   3.4130365  62.9278326
  66.9315195   2.2733361  62.0738935  27.4479818  76.4656782  18.2718289
  28.2173610  76.3716125  17.7101898  27.7842665  76.8659353  19.0736628
   7.4506402  53.3010960  60.8650208   7.2025955  52.4025154  61.0824156
   7.0019668  53.4801626  60.0386667  60.4991198   8.3036119  18.3969355
  61.1145306   7.6742446  18.0209041  59.9223948   8.5383141  17.6699305
   9.1321605  54.6886635  34.3916988   9.8884767  55.2352333  34.6049666
   9.2992449  54.3863297  33.4990025   8.0364078  85.3283215  51.4237356
   7.7891999  85.4167175  52.3442316   7.2058564  85.2091885  50.9630632
  91.9856930  69.0741253  30.9461164  91.1968327  68.6664581  30.5887008
  91.7047501  69.4478464  31.7813611  46.5216732  55.4279804  61.8976355
  46.2406015  56.0212755  62.5942183  46.6392374  54.5844078  62.3344421
  22.7427936  42.3517990  44.5921087  23.4176421  42.5531673  43.9438343
  23.1820512  42.4577904  45.4359388  21.5501714  49.8754692  23.6338592
  22.3209214  49.5267534  24.0817142  21.7626834  49.8071718  22.7030492
  51.1599493  59.5808935  13.8433909  50.6148577  58.8057661  13.7081850
  50.5375338  60.3068018  13.8867700  19.2207193  57.4248314  60.6713247
  19.9902916  57.2757053  61.2206459  18.6322105  57.9439831  61.2193871
  31.1338568  77.5343657  54.8421288  31.5473342  78.3233786  54.4918060
  31.6845036  77.2847271  55.5842209  20.5344013  77.5894369  74.7239943
  20.9374526  78.2140006  74.1209151  20.2537254  76.8643726  74.1656658
  75.6884119  31.5804468  -0.1228990  75.7054838  31.4654289   0.8272134
  74.8004541  31.8840872  -0.3114833   9.0999544  45.4137325  47.4941540
   8.2967997  45.9119177  47.3425484   9.0266228  44.6579647  46.9113445
  28.5125685  78.0622053  52.8684092  28.6354232  78.8640261  52.3602581
  29.3921375  77.8304577  53.1665468  78.0243397  48.8110352  56.5468597
  77.6410532  47.9855156  56.8432331  77.9777336  48.7675095  55.5917835
  15.8386481  35.6396580  29.2024851  15.5334127  35.0124288  28.5470104
  15.5063462  36.4843559  28.8986921  85.6739998  71.8856478  18.4716904
  84.9322414  71.5760708  18.9914811  86.4400768  71.7056799  19.0166509
   8.4489512  46.1123466  37.4627495   8.2276213  46.5910625  36.6639519
   9.4014275  46.0224867  37.4319935  15.2898407  84.7192955  58.0190945
  15.1524115  84.1706276  58.7913036  14.4251847  85.0814915  57.8256702
  25.0984240  54.1479301  66.3566351  24.4607353  54.8555756  66.2626839
  25.2520466  54.0875721  67.2994995  16.8080068  17.1099782  46.8959284
  16.4232326  16.8578172  47.7353287  16.1571205  17.6882088  46.4981461
  42.8294754  67.1098185  68.0133581  43.0817509  66.9945765  68.9294958
  41.9440556  67.4713945  68.0524111  82.6830006  52.9994488   7.6416379
  82.7379894  53.7674713   8.2102758  83.4509659  53.0661154   7.0741671
  15.8256602  25.1608324  60.8601904  15.6769061  24.2209148  60.7569504
  16.7108786  25.3015447  60.5243015  24.8561978  48.3295107  19.2495704
  24.7392416  47.3797464  19.2718601  24.2158270  48.6644840  19.8772240
  14.4361520  36.9986153  13.2431984  13.9603448  37.1254849  12.4223804
  13.7704837  36.6981411  13.8619339  15.3962755  13.5977626  52.0377398
  15.2490163  13.7309432  51.1013556  15.0366187  12.7287018  52.2155333
  30.0618148  36.4196301  11.5935481  29.7012639  35.8905268  10.8820117
  30.5298686  35.7925701  12.1448672   4.4059253   1.2848680  13.4213948
   4.0607598   2.1273427  13.7169099   3.8304186   1.0299001  12.7002740
  24.2019677  21.7891288  67.8677464  23.6310101  21.5835690  67.1274900
  23.7357020  22.4741769  68.3468533  27.5752759  35.4376912  34.7957587
  27.3151660  35.0179267  35.6157398  28.5301828  35.4841971  34.8428798
  85.9648991  53.9010763  24.6098900  86.6360569  54.5307684  24.8730803
  85.6615829  54.2161512  23.7584448  43.8706160  20.1356435  45.7988405
  43.0694008  20.6234407  45.9894753  43.6218023  19.5297658  45.1008177
  27.6873326  37.4996853  55.6559229  27.1032500  37.1280909  56.3169813
  27.1571779  37.5334358  54.8596668  87.8648663  16.1297524  55.1240110
  88.1330204  16.2131214  56.0390949  87.3755455  16.9324338  54.9437332
  51.0967350   9.3108094   1.2462662  51.1856985  10.2537000   1.3850921
  50.1648378   9.1362178   1.3778448  44.2531395  81.8819427  17.7695370
  44.6558905  82.6125526  17.3002481  44.8453188  81.1451054  17.6191318
  50.2971172  76.5144110  52.6528120  49.8928165  76.0049486  53.3551073
  49.7219133  76.3820982  51.8992472  18.5538936  33.5740566  62.1552610
  18.6824501  33.2875991  63.0595016  18.0891371  32.8487062  61.7380095
  15.4076731  59.4150829  66.4484596  14.9382341  58.6228704  66.1872053
  15.0088561  59.6660376  67.2816467  28.6720610  32.4537230  59.0992451
  28.8416338  31.6699004  59.6218348  29.4744229  32.9701853  59.1748190
  15.9359646  78.0426502  20.9184480  16.4285970  77.2238350  20.9740090
  15.3293812  77.9082870  20.1902771   8.2501775  35.3787255  64.3309307
   8.7926680  34.8541641  64.9198055   7.5312108  34.7964978  64.0853071
  57.0061970   4.9482840  51.3845396  56.0932302   4.7056496  51.5389872
  57.2919750   5.3424513  52.2086716  42.4583149  36.4716291  16.7988896
  42.6682711  36.9207406  15.9800816  43.1624794  36.7222071  17.3968828
  28.3434963  26.5880013  27.6354861  28.8558078  26.8319225  28.4063768
  28.9916873  26.4918041  26.9377589   9.0779841   2.1590145   3.8955390
   9.9742985   1.8602756   4.0491825   8.5527134   1.6802013   4.5366791
   7.4426895  25.0966144   1.0197335   6.7488158  24.4518995   0.8814739
   6.9784284  25.9220648   1.1587470  87.4003983  32.6697421  67.2050667
  86.7104912  32.3462319  67.7843714  87.1162224  32.4133801  66.3277149
  45.3479481  31.8841290  74.4800854  45.3577805  32.3232388  73.6296082
  45.5929279  30.9795165  74.2854261  13.9821184  66.1333799  66.4671707
  13.5576010  65.2754784  66.4718437  14.6049356  66.0963821  67.1930885
  82.2140694  16.0067904   4.1017208  82.9675102  15.9937119   4.6919626
  81.7861462  16.8446422   4.2781129  13.0641341  57.6067400  74.8399162
  12.1325481  57.6456738  75.0563955  13.1409001  58.0991220  74.0226698
  11.3749230  46.3393116  48.7058878  10.8534157  47.0698452  49.0384293
  10.7313645  45.7329130  48.3393621  16.2809587  56.4249372  67.4346352
  16.5176511  56.5030432  66.5104580  16.9705904  55.8796883  67.8132439
  24.9063563  70.8927727  39.4427013  25.6329203  70.6005716  39.9931145
  25.0363636  70.4355907  38.6118507  52.1483135  84.2932320  14.5947802
  51.8737555  83.9829826  15.4576790  52.0508385  85.2443790  14.6400571
  27.9986501  21.5510607  39.4272900  28.9113784  21.2729597  39.5035863
  27.7943921  21.4500093  38.4976149  83.0018425  60.4911089  30.4214668
  83.2325172  60.5883265  31.3453531  82.4883747  61.2732077  30.2192235
  17.8608358  25.1951504  72.2127390  18.1419504  26.0147405  71.8059492
  17.8569007  25.3826547  73.1513882  25.8159304  10.1249588  70.0923443
  24.8848629  10.0039446  69.9060535  26.0455298  10.9400105  69.6460152
  80.6260777  37.8091908  33.8647509  80.4434299  38.7487698  33.8725829
  79.8400974  37.4092960  34.2369723  42.8762007  27.0333743  72.4184465
  41.9656897  27.3284888  72.4287701  43.3515549  27.7385020  71.9790506
  26.8129921  51.8370199  74.5564699  26.1766505  52.0892048  73.8873625
  26.3114834  51.3076305  75.1765299  18.1957650  43.8899326  17.4764645
  18.6490142  44.1175365  18.2882488  18.4535837  42.9843855  17.3039937
  21.0139465  69.1221046  43.0296612  20.6919837  69.2973137  43.9138985
  21.9653630  69.1986513  43.1016445  81.4244366  64.8914671  39.5764351
  80.8922958  65.5085516  39.0741777  80.8888149  64.0998125  39.6277452
  74.6498537  62.6895237  45.1520967  74.8222971  63.0747604  44.2929792
  74.5201969  61.7577982  44.9751329  81.8431950   7.7068597  16.7573500
  82.2795010   7.8210503  15.9130573  81.2362576   8.4447765  16.8150425
  15.5276310  74.5097876   7.3484403  15.9563255  73.9737797   6.6812479
  14.6013343  74.4965124   7.1075505  18.0127454  64.7778177  60.7730055
  17.4418151  64.1952610  60.2721024  18.6995184  65.0292683  60.1554728
   2.5699967  66.9024372  27.4788928   1.9849683  66.1944771  27.2091484
   2.6924869  67.4266243  26.6874003  34.7650528  14.2728198  64.5498896
  34.1661763  15.0089729  64.4247627  35.2169323  14.4685221  65.3707027
  37.6922131  39.4518113  68.4391308  38.3801413  39.3697262  67.7786398
  38.1302595  39.2544317  69.2670107  53.6577177  63.6560678  13.1559479
  53.0323362  63.9622545  12.4991560  53.7859440  62.7298689  12.9511321
  19.0065777  71.1529255  34.7150254  18.8296962  70.2138710  34.7708964
  18.1830490  71.5340662  34.4104552  54.8932028  80.1885128  13.7538958
  54.5542383  81.0501289  13.5110962  55.5805969  80.0118637  13.1116247
  24.2875576  67.4104452  45.3796339  25.0866008  66.9129992  45.2055359
  23.9678454  67.0659304  46.2134981  38.3187366  59.7090054  50.6541824
  37.8465605  60.3422308  51.1948347  39.1719937  59.6205902  51.0788774
  48.5062075   4.0833268  15.9469736  47.5775146   4.2182013  15.7583773
  48.6370754   3.1407151  15.8440685  55.4829597  60.4474640  55.3270721
  55.0708628  61.0083294  54.6699286  54.7506905  60.0127029  55.7640982
  88.1928158  74.3249750  14.7268760  87.7055359  74.8556137  15.3571284
  89.0795803  74.2822218  15.0847065  86.2121677  22.6903009  36.0317302
  87.1182919  22.5990677  36.3264227  85.7033062  22.7586579  36.8395782
  16.9498944  16.8113315  61.6394806  16.3654768  17.4793243  61.2810516
  16.8112421  16.0468352  61.0804176  65.9129858  64.4416809  40.8692694
  65.2067423  64.8089170  41.4008617  66.7045164  64.8724318  41.1920118
  16.2193179  47.2263479  56.5930367  15.8603168  47.9288197  57.1351480
  16.0431945  47.5037766  55.6940079  74.1106319  82.0580006  69.7918606
  74.8628569  82.5928116  70.0455809  74.4016314  81.5918446  69.0081167
   7.0402634  51.4010859  48.7563086   6.3493735  51.9801855  48.4345198
   7.4406618  51.8844652  49.4789839  29.0471220  57.5748825  55.2073574
  28.1543851  57.2845364  55.0204039  29.1858649  58.3168840  54.6187830
  19.1983783  75.7010126  31.4381742  18.9353788  75.4019785  30.5677485
  18.5007513  75.3946972  32.0175862  31.3533306  18.1050134  49.5931482
  30.8917665  18.9238644  49.7739124  30.6799388  17.4288917  49.6682262
  72.9851389   5.2355111  45.9427929  73.4103918   4.8404190  45.1816750
  72.3440218   5.8414525  45.5712605   5.1544976  68.6482191  38.2226229
   4.6867934  69.4260359  38.5267401   4.5813954  68.2694912  37.5560260
  17.7829170  38.2253075  56.2573099  17.1806777  38.1330490  55.5190516
  17.5622737  39.0736556  56.6418266  18.5597992  30.1364017  51.6833925
  19.2087865  29.7477031  52.2698736  18.3397043  30.9739733  52.0911503
  19.6452165  10.7235825  42.8914547  19.1041410  11.3516557  42.4129248
  19.8482966  10.0438774  42.2488117  11.3735533  69.8446655  40.0718594
  11.2125278  70.7294655  39.7440839  12.3026872  69.6911526  39.9004626
  41.1255550  40.2405310  69.5234823  41.0078764  40.0395870  68.5950375
  40.6649828  39.5371389  69.9810219  33.7665367  40.1416111  56.1007833
  33.0484605  40.4527235  56.6519737  33.3811855  40.0610590  55.2282858
  30.2661061  64.2071438  53.9069843  29.5162439  64.6489620  54.3054008
  30.9513712  64.8749447  53.8807583   3.1315747  72.2991610  57.2250080
   3.4469607  71.4118052  57.0536470   3.9276457  72.8219509  57.3208857
  35.6308317  37.4620652  49.0394640  36.3222003  36.8623185  48.7592077
  35.1771545  37.6992822  48.2306767   5.6693649  77.5806236  55.2295208
   5.5012625  76.8328619  55.8029556   4.9679738  77.5460863  54.5790672
   5.1781100  62.0475912  62.5107002   5.2108461  62.0532227  61.5540743
   5.9138632  62.5980806  62.7787733  80.0180912  40.4501247  69.8340607
  80.2584839  40.0366020  70.6631804  79.0657663  40.5366516  69.8768187
  15.2206016  45.2931881  45.0307274  14.7850275  45.6538534  44.2584372
  15.4094696  46.0559654  45.5772829  90.9676075  25.2069926  12.2522032
  90.1458836  25.4367447  11.8183684  90.7477856  24.4510531  12.7966881
  10.9313858   4.7515461  33.9710546  10.2883804   4.4754046  34.6241403
  10.8695996   4.0918532  33.2802439  89.9774933  30.6171608  57.4613857
  90.1635551  31.2260699  58.1761169  89.2009068  30.9790039  57.0345211
   5.5823767  46.8950176  72.8024673   5.7968134  46.4069033  72.0074892
   4.7662205  46.5021420  73.1119299  25.4096961  52.7873707  52.0102262
  26.2039828  53.2982826  52.1661282  25.1173496  52.5266266  52.8835964
  87.9065990  46.9914007  25.1312423  87.7403831  47.0959091  26.0680890
  88.8547325  47.0894670  25.0437999  22.3179293  45.5855036  42.8077078
  23.1961846  45.7713270  42.4754953  22.4473786  45.4042339  43.7386322
   7.1693090  45.4781829  74.5615442   7.1688035  46.2993811  74.0697462
   7.9403404  45.5373233  75.1256775  22.0619965   5.7628155  63.4394550
  21.7575216   5.3931260  64.2682266  23.0031562   5.8856505  63.5633898
  14.1039836  11.5347135  19.6044731  13.8092375  11.3507140  18.7125647
  13.5830140  12.2897303  19.8779213  31.5931773  45.8463383  51.5080547
  31.0199142  46.4896011  51.9249630  31.2460184  44.9992895  51.7877340
  33.2905698  21.7531538  68.7686396  34.0628076  21.9887447  69.2828178
  32.9863739  22.5823545  68.3996964  20.6977510  66.1172724  64.6492100
  20.0831461  65.4217243  64.4153261  20.1573920  66.9053364  64.7057772
  18.5771418  46.3287306  45.6394100  17.8235888  46.9014788  45.4967546
  18.5341287  45.6937695  44.9244165   7.7368069  80.1702881  58.9484406
   7.0555162  80.1324368  58.2771444   7.8653944  81.1055183  59.1067171
   2.9238096   1.7115998  56.4416981   3.6409271   2.2772755  56.7280293
   3.0116838   1.6770609  55.4891634  13.8334501  42.4193716  27.3705077
  13.3349121  41.9543457  28.0423999  13.2288837  42.4936581  26.6321230
  88.0932808   4.4164896   4.8660532  88.3160973   3.8767302   4.1076028
  88.4217930   3.9218727   5.6168330  54.8968172  44.4545555  36.0151553
  55.0549030  44.4137907  35.0719810  54.3045712  43.7233210  36.1905646
  32.0548940  45.8785009  67.9154396  32.1225262  46.8039370  68.1504345
  32.5920367  45.7914782  67.1279526  28.6085725  56.9750166  72.2714138
  29.0492010  57.4315643  72.9881001  29.2065120  57.0612907  71.5289450
  47.6054859  42.4540234  73.3833504  47.2849846  41.9934320  74.1588259
  47.8266764  43.3300352  73.6994314  80.7094002  17.5202465   5.7003784
  79.8415041  17.1517992   5.8654183  81.1784744  17.4078858   6.5271616
   0.4670789  57.2718668  58.5845947   0.5365827  57.6292181  57.6993275
   0.1064851  56.3938665  58.4608412  61.6518784  31.5758657   6.5373713
  62.3608398  31.3157058   5.9492171  60.9523058  30.9464312   6.3623226
  82.8804779  46.8685007  62.7896166  81.9842911  46.6951704  63.0777788
  82.9294109  47.8218889  62.7196741  19.2698371  42.8874588  24.6985936
  19.5095968  42.8353167  23.7733769  19.1671026  41.9756556  24.9711514
  15.1581752  45.2579451  50.5320883  15.1472414  45.6792164  49.6726465
  14.2354131  45.1900768  50.7773161  83.4202671  46.1737251  24.6692967
  82.9899979  47.0284843  24.6913958  84.0092754  46.1825037  25.4237604
  71.6748190  22.0104241   4.2094806  72.2239447  22.7469492   3.9407387
  71.8770218  21.8867803   5.1368737  24.2753315  76.0774708  58.6327124
  25.2035260  76.1800241  58.4225464  23.9212775  76.9659185  58.5934305
  37.0176268  84.7133350  44.3010569  37.7212524  85.2375126  43.9184618
  36.2359524  84.9670219  43.8102865  77.6213694  37.5893736   9.4534570
  78.5224676  37.2916698   9.5784652  77.4705648  37.5075936   8.5117555
  16.8101871  61.9618464  43.2561922  17.2688699  61.3279676  42.7047968
  17.4132347  62.7022314  43.3224869   6.4409620  45.8765459  69.8975658
   7.3419172  45.5718231  70.0055361   6.5250123  46.7195606  69.4520426
   0.5223585  59.2076635  56.6477633   1.1926568  59.8095465  56.9712830
   0.1283785  59.6648693  55.9048128  83.2130241  49.4088221  72.3633528
  83.8705921  49.9153996  72.8400230  82.8583241  48.8037491  73.0147362
   5.5421841  71.3598728  59.9087429   5.5591482  71.9083357  59.1244364
   5.1427549  70.5397129  59.6188784  39.3198681  69.7228765  55.7982445
  39.4135857  69.1375494  56.5498018  39.8793721  69.3379927  55.1236677
  57.8242540  61.9747496   0.8541988  57.9103947  62.8626347   0.5071042
  58.4376526  61.9440413   1.5883869  91.5829895  47.0433712  63.6041927
  90.8573658  46.5598965  63.9991045  92.3584699  46.7384386  64.0752316
  34.0509534  60.0903893  19.0962768  33.5347915  60.6677723  18.5337520
  34.8729181  60.5614328  19.2331052   1.9879602  39.5625877  66.7081165
   1.2262525  39.4661117  66.1365175   2.0876063  40.5083656  66.8167877
   8.8628399  50.7777309  64.4371939   9.1574323  50.9453726  63.5420179
   9.4461036  50.0890923  64.7562790  55.2529716  74.1548347  46.2935066
  56.0232115  73.6478615  46.5503025  55.4960155  75.0642395  46.4671087
  29.6368742  51.3057041  60.2931976  30.5807352  51.1480284  60.3154516
  29.4198704  51.3291740  59.3612194  71.9598198  68.2049036  25.6435990
  72.5695896  67.5167036  25.3775239  71.1010265  67.8830910  25.3694725
  15.8791852  26.7669582  21.6392398  16.0667849  25.9820771  21.1244559
  16.6406178  26.8662262  22.2107244  83.4428883  15.4371321  11.3722038
  83.3565807  16.3766158  11.5339255  82.7357960  15.2335334  10.7599962
  37.5103068  75.7645321  59.4560480  38.4102893  76.0454893  59.2907333
  36.9929075  76.2119055  58.7864304  37.8394270   1.5466492  41.6279507
  37.2980547   1.9619353  40.9566212  37.8456879   2.1729186  42.3518133
  60.0893068  83.8166523  32.3748422  59.2317343  84.1616344  32.1262670
  60.7068253  84.2785835  31.8078113  29.7397780  14.1698849  31.7359972
  30.0201344  14.6004248  30.9283662  29.0050769  14.6988761  32.0468235
   8.3370459  56.3806200  41.9545889   8.8199723  57.1951485  42.0944357
   7.4200630  56.6196346  42.0896673  36.7627883  77.9827976  57.6113939
  37.2492170  78.7280321  57.9638767  35.9325171  78.3566809  57.3162794
  44.9422884  72.6996040  55.1542091  45.4990292  72.8744411  54.3954611
  44.6313620  73.5627794  55.4271221  32.6549649  30.8272529  61.6133356
  33.3699703  30.4068375  61.1355829  33.0793810  31.5214443  62.1175146
  60.2177715  16.8747783  63.7753534  60.2718353  16.1413229  63.1626940
  60.6745672  17.5903654  63.3331919  23.1026959  32.7630329  18.2404482
  22.1919584  33.0504608  18.3050346  23.5230565  33.4216118  17.6874518
  58.4426737  26.7517543  19.8919952  58.7515545  25.9406662  20.2956772
  57.7847719  26.4679694  19.2572808  18.3343065  52.0718670  66.4037561
  18.2372296  51.7680883  65.5012417  17.4535358  52.3447609  66.6606665
  10.2773154  22.9751539  18.4350765  10.7431912  22.1458936  18.3277500
  10.9411681  23.6455035  18.2733285  50.5621338  10.6334269  37.9051328
  50.8474350  11.0027933  37.0694280  51.0425711  11.1338544  38.5646629
  37.9751849  24.8804116  51.0910463  37.7500749  24.0139508  50.7522154
  38.7987494  25.1011562  50.6560230  35.5409217  35.6734753  42.6845884
  34.7100639  36.0451508  42.3883343  35.4177332  34.7267079  42.6161432
  14.1977763  63.1074476  35.8007073  13.5165858  63.1075859  36.4731741
  14.9825716  62.8006792  36.2548232  76.0700846  30.9296632  14.2128158
  76.6855955  30.6628799  13.5300231  76.1633825  31.8810892  14.2609417
  58.3292078  -0.0316013   0.8379756  57.4302267  -0.2226843   1.1054765
  58.2359289   0.5374418   0.0739585  53.4847641  66.3027430  50.8304358
  53.1129789  67.1305418  50.5258751  52.7378225  65.8210707  51.1858225
  73.7696218  59.5375776  66.9801807  74.6009016  59.0634966  66.9589138
  73.3463812  59.2428589  67.7865505  43.6173344  63.8178682  61.3821983
  43.9534855  62.9302692  61.2580967  44.2860603  64.3834257  60.9959507
  70.8611679  71.2358999  30.5227351  70.0207281  71.6858053  30.4362535
  71.2818861  71.3484001  29.6703458  17.6580453  54.5111847  68.4845829
  17.6022267  53.6722088  68.9420128  18.5376799  54.8332500  68.6814260
  10.0560009  16.9949830  24.6305704   9.1428339  16.8598282  24.3774104
  10.0426888  16.9884670  25.5876565  11.3616967  60.0402069  50.7468557
  11.5995657  59.5877171  49.9375963  10.6300378  59.5331001  51.0986376
  12.0602405  43.7101841   4.1788745  11.8836677  44.6126270   3.9130723
  12.6185834  43.7930775   4.9519297  47.1630907  44.8568058  69.5030165
  47.6614046  45.1539564  70.2643394  47.1067095  43.9072132  69.6094179
  15.9373498  47.2504902  31.0818720  16.8797338  47.2567511  30.9142280
  15.8462846  46.7983723  31.9206357  36.1768699  44.4625950  60.6370497
  36.4034152  44.8858118  59.8089170  35.7482719  45.1494741  61.1476707
  84.6618271  43.5284948  59.0617180  85.5322456  43.4889746  58.6654377
  84.7697163  43.1154346  59.9184370  78.5550165  26.7046618   7.1978372
  78.1739140  26.7548704   8.0744642  77.8766584  26.2895107   6.6651857
  84.4261932  28.0135870  10.0830817  84.7201538  27.2854495  10.6304717
  83.5649300  28.2430935  10.4320610  37.1728420  79.0557194  62.1165371
  36.4242768  79.5926857  62.3764372  37.5041246  78.6929655  62.9380560
  18.2367170  60.4761028  65.3773069  17.7641904  60.0526571  66.0939980
  18.5223567  59.7532368  64.8186493   4.3792972  50.8014870  29.7862148
   4.1272560  51.3810778  30.5050898   4.5519328  51.3912582  29.0523243
  75.8950901   7.4037212  28.8799214  76.2272930   7.6279181  28.0106640
  76.5101290   6.7486054  29.2097473  67.2589350   5.4528481  58.2300377
  67.3337889   6.2017238  58.8214874  66.3418722   5.1865464  58.2956600
  46.8887949  75.5582571  32.5597763  46.3912916  75.9615421  33.2711744
  47.7329159  75.3371000  32.9531980  29.2648244  54.6051979  24.2826700
  29.3170905  55.5177593  23.9985299  30.0982738  54.2213774  24.0101385
  52.3171520   1.3788967  58.4977055  51.3831663   1.3616954  58.7065172
  52.3547983   1.2178050  57.5549078  23.2622194  81.1872005  65.5375147
  24.1648579  81.1353588  65.2232122  22.7873087  81.6246700  64.8308945
  18.7564158  22.0363665  27.4252200  18.2997882  22.1086454  26.5870667
  19.6112978  22.4370575  27.2675633  65.9398842  14.1856623  51.4351892
  65.9143782  14.6912026  52.2475958  66.8721628  14.0986729  51.2363911
   5.0867778  65.2294064  66.0041952   5.0027734  64.2891407  65.8458567
   4.7676846  65.3511620  66.8983936  77.6603365   4.4649652  57.6093054
  78.1502485   5.2794826  57.7223492  76.7884016   4.6603072  57.9525328
  27.1152067  59.6503162  61.4524031  26.1816239  59.4974184  61.5982723
  27.2758198  60.5195093  61.8197441  57.3846722   4.5393917  42.5321293
  58.2160950   4.0655410  42.5113201  56.9532537   4.2312446  43.3290958
  37.2617745  46.2781954  70.3148079  37.8973818  45.8483028  69.7425890
  36.8811202  45.5655146  70.8280516  87.2995853  61.9115543  47.9474068
  87.6401234  62.1755075  48.8021517  86.3860035  61.6799927  48.1146765
   7.1527469  67.2140360  52.5837040   6.7431259  66.5019369  53.0749846
   6.8165249  67.1148920  51.6929960  22.3186588  60.6782103  75.1461554
  22.7517104  61.4294863  74.7408295  21.5829158  60.4838800  74.5655107
  37.3368263  64.5139313  66.9906092  36.6165352  65.0695419  67.2884417
  37.7800322  65.0348473  66.3209438  41.6425228  59.7493935  54.1114092
  40.8198404  60.0439215  54.5021534  42.1251869  59.3552399  54.8379850
  15.7956886  49.7791100  65.0603151  14.8692966  49.9374676  65.2418423
  16.0376883  49.0675688  65.6530905  53.0202961   9.1233212  14.1362679
  52.8312063   8.6710453  13.3141232  53.9613676   9.0040457  14.2642951
  46.8975735  82.3620415  68.1527042  47.1718025  82.6463318  69.0246010
  46.1477995  81.7888546  68.3124685  31.0310102  67.8226852  66.5065622
  30.6351328  68.2268953  65.7344675  30.6021643  68.2508230  67.2475195
  45.3401232  61.1294127  62.0422554  45.0068045  61.5878677  62.8135824
  46.2859011  61.0820580  62.1818781  46.3355303  78.7881947   1.6121005
  46.6565228  77.8949213   1.4885643  45.3913784  78.7255621   1.4675647
  90.1758957  14.1461504  67.8846073  89.3967342  14.6918535  67.7781010
  90.3567982  14.1677284  68.8243103  75.0665760   5.1415837   6.7984194
  74.4325495   5.1910514   6.0830212  75.4065943   6.0327059   6.8791568
  54.5436001  53.9263248  70.1148748  54.3623257  54.1938448  71.0158777
  53.7499571  53.4693432  69.8364353  68.5326672   3.8440365   9.4694543
  67.7677059   4.3212587   9.1480023  68.8893366   3.4124094   8.6931062
  28.8391113  69.2557335  56.8328905  28.1405973  69.3598127  57.4790144
  28.3802629  69.1254091  56.0030079  90.7976913  27.2136641  43.5799932
  89.8756981  27.4688888  43.5478973  91.2214851  27.7634764  42.9209566
  71.3552332   4.9499434  52.9778290  70.7013321   5.6252939  52.7974129
  71.9012642   4.9292096  52.1919203  78.4718037  65.1747274  42.0338249
  78.1246758  65.2244091  41.1431694  77.8643847  65.6976223  42.5571346
  87.5750923  28.7494731  22.7378607  87.8981209  29.4810700  22.2118878
  87.7744007  28.9971924  23.6407137  20.8206987  78.9867544  46.4786577
  20.8603358  78.7683773  45.5475426  20.5792403  79.9128103  46.4974117
  43.7783527  72.0752716  43.2093620  42.9150820  72.4343014  43.0041885
  44.1499519  72.6911354  43.8409185  30.2191377  25.9897399   3.9952815
  30.4207277  25.1423597   3.5983682  30.9281850  26.1356354   4.6215388
  17.2221053  60.6054831  59.8000145  18.1004620  60.3198099  59.5487976
  17.2590065  60.6831264  60.7533455  80.6409454   4.8845586   4.3247434
  79.8874140   5.2924675   3.8980854  80.9231091   5.5258906   4.9769014
  77.1009636  20.8942986  44.3590021  77.4959993  21.6504407  44.7930813
  77.3100567  20.1544929  44.9292612  66.0561132  11.5918791  63.2923269
  65.9499454  12.4032140  62.7956438  66.8336487  11.1802042  62.9152393
  29.0709639  49.1329384   9.2632425  28.1349325  49.1053677   9.4615251
  29.4298482  48.3567190   9.6932614  45.1521921   3.3803537  57.5512791
  44.9360991   4.0545747  58.1954575  44.3067932   3.1161189  57.1883488
  77.1751308   3.3440608  65.8175993  76.8630028   2.6524493  65.2340937
  78.0793476   3.1003562  66.0156727  45.9061193  65.3177118  60.4055452
  46.0208368  65.7164907  61.2681293  45.6857586  66.0503864  59.8303461
  59.3015766   1.4661978  62.5197601  59.7905827   2.1368644  62.0429897
  59.2967558   1.7725401  63.4266043  66.0869312  76.2288523  73.0537939
  65.5079079  75.6691599  73.5712051  66.5193415  76.7879009  73.6993313
  52.6478243   0.5709111  53.0221033  52.3873520   0.2285812  52.1670008
  51.8243170   0.8215617  53.4407187  36.5250897  43.8688898  71.5167522
  36.6386414  43.7431335  72.4588346  37.3842430  43.6718941  71.1435461
  18.7906909  84.1969872  23.5880470  18.3012247  85.0116920  23.7016678
  19.6673954  84.4787312  23.3268166  85.8742619  10.3140938  12.5137889
  86.1719227  11.0655236  13.0266070  86.6805172   9.8820060  12.2318780
  77.2302532  36.4155507  49.6178102  78.1238842  36.2022924  49.3491554
  76.7662191  35.5787539  49.5919037  32.0048022  82.4121571  39.2438865
  32.4639606  82.4843025  40.0806665  32.3685765  83.1180286  38.7094402
  63.1759644  17.5970852   6.8929780  63.6748123  16.7806721   6.8637949
  63.2624054  17.8983879   7.7973986  46.9214271  44.0605748   0.8235465
  46.6301988  44.9665229   0.9268723  47.7832566  44.1313713   0.4130946
   5.9456843  54.0474272  58.6076117   5.0513935  54.2198753  58.3130980
   6.4781392  54.6983099  58.1503582  45.5735016  19.0101385  55.5638742
  46.1728954  18.3409560  55.2334881  45.5337524  19.6624398  54.8644781
  13.1973279  54.6765184  46.1425686  12.5860465  54.0791941  46.5735817
  14.0459657  54.2384863  46.2071800  87.5333786  23.4460974   2.5858539
  87.4048805  22.6789474   2.0279966  86.6474152  23.7260509   2.8159079
  20.7656622  54.3790722  68.7543106  20.9954953  54.3383980  67.8260040
  21.4890051  54.8575163  69.1594028  22.0095992  51.8258286  73.7275505
  22.4183249  50.9639597  73.6478043  21.4207220  51.8821955  72.9750347
   6.7792618  18.9949453   4.7479576   6.4053977  18.8622296   3.8768411
   7.3224348  18.2208061   4.8959607   3.1342927  40.3351212  31.7708206
   3.7915972  39.9889016  31.1672330   3.4187165  40.0332975  32.6335120
  40.5182457  23.3932662  52.1786547  41.0525846  24.0798426  52.5778055
  40.9391546  23.2214785  51.3363028  35.1640797   9.0259719  17.7533853
  34.8527932   9.0499234  16.8485320  35.3860021   8.1074613  17.9060948
  51.7823982  62.2518444  61.6859007  50.9109449  62.6301670  61.8028164
  52.3531723  62.7916002  62.2328138   5.3397059  83.0366230  53.5384369
   6.1219406  82.7432537  54.0056372   4.6304500  82.5069523  53.9026451
   8.4498656  71.4651442  69.6453857   8.5125136  71.5436745  68.6934710
   7.8713280  70.7157040  69.7863245   1.4935888  56.3109350  70.5291271
   1.9468945  55.5000591  70.7598400   0.7294655  56.3304281  71.1052942
  60.2981424  70.3742409  71.8034792  59.8494434  71.1416101  72.1585035
  60.9534121  70.7349586  71.2062073  34.4853687  46.7438555  52.1804380
  33.6274076  46.5501785  51.8027830  34.8266077  45.8910227  52.4496365
  21.3545609  80.9750938  30.6519055  22.2853279  81.0498142  30.8624268
  20.9977746  80.4131603  31.3397717  79.2994595   2.3873422  52.9708147
  78.3536196   2.5084168  53.0542517  79.6108341   2.3050842  53.8722038
  88.9626789  24.8267937  61.0100222  89.4589233  25.5810595  61.3279104
  88.0521202  25.1219368  61.0099745  72.1266937  26.2903786   8.7389189
  72.9006338  26.7170072   9.1066700  71.3973236  26.6280198   9.2587727
  16.9651759  10.1259887  46.4823341  16.2127519   9.7663403  46.0125017
  17.7019870  10.0041366  45.8835936  49.6185732  68.3588219  67.3022079
  50.0407124  69.0587234  66.8040466  49.8832226  68.5166693  68.2084513
   9.9319214  73.5959244  43.4253836  10.5133021  73.2566500  44.1059160
   9.3025649  72.8906631  43.2745600  34.6088195  63.4717989  63.1252050
  35.2969766  64.1335773  63.1939507  34.3955374  63.2529259  64.0323114
  41.4958954  64.9035549  63.0121183  41.9114447  65.7241535  63.2769966
  42.0751238  64.5485020  62.3378325  41.0114002  64.8643494  70.7942724
  40.0542736  64.8753691  70.7899523  41.2611389  65.7843924  70.8801842
  36.1886191  19.5114303  46.2479782  36.3352942  19.5403886  47.1934319
  36.8193913  20.1352525  45.8885288  47.4891090  84.0049458  70.3354454
  48.0244064  84.0825367  71.1251688  46.7309952  84.5644760  70.5040359
   4.1488409  57.1922827  58.3226395   4.9659714  57.5573397  58.6621475
   3.4689486  57.5626707  58.8854837   8.7323153  70.2495098  35.8150005
   9.5283395  69.7237778  35.8936191   8.0570167  69.6238804  35.5527163
   8.3674842  71.2968874  49.4039202   7.8070581  71.9703293  49.0183926
   8.0686146  70.4795551  49.0053225   5.6157273  65.1799822  44.5689964
   4.6806881  65.3783226  44.6199369   5.9374177  65.7250643  43.8509226
  11.7665851  29.0729880  20.8270574  11.0054421  28.7025261  20.3802347
  12.4064326  28.3611941  20.8403468  29.2934752  63.3383465  66.0787201
  28.4070706  62.9777479  66.1007071  29.7537065  62.8859234  66.7856359
  24.9130750  64.2231750  61.6587353  25.4328609  64.4891405  62.4172354
  24.4425678  65.0158930  61.4009476   3.2176834  67.5084019  56.9945860
   3.6017871  66.6333199  56.9404793   2.7898356  67.5296593  57.8505802
  46.9174385  85.6398869   3.7909961  46.6625547  85.9012127   4.6758536
  46.3411999  84.9043751   3.5831392   6.0350001  34.0279913  50.1004314
   5.1880443  33.7736392  50.4667664   6.6189641  33.3022976  50.3208542
  51.3370085   4.1205752  71.1613750  50.6561995   4.5808259  71.6521978
  51.1249495   4.2880365  70.2431059  55.5910015  80.5076885  59.6865606
  54.7799301  80.9290218  59.4021797  55.9565496  80.1279545  58.8875580
  25.8011675  67.2557402  49.6140051  25.6658649  66.3136053  49.7155285
  26.7363787  67.3450089  49.4305849  17.2985673  38.8968635  68.3249998
  17.9043448  39.6375489  68.3505011  17.7071726  38.2738447  67.7240658
  67.9809713  11.1303449  51.7256212  67.4386024  10.7225025  52.4006987
  67.9507494  10.5171251  50.9912634   4.1533530  12.4810243   1.1091066
   4.1239738  11.8711114   1.8462461   3.3934012  12.2486436   0.5755300
  33.3029962  79.2041731  28.0247927  33.7799668  80.0316238  28.0884147
  33.4096527  78.9357901  27.1121979  70.0881100  62.2304678   9.5665503
  70.6359959  62.1505976  10.3473651  69.9347830  61.3275719   9.2881620
  39.0506792  53.1117868  74.2928648  38.6818767  52.6190233  75.0259399
  38.6184645  52.7497578  73.5193300  19.4113672  74.6813679  59.8669863
  18.4897399  74.5959520  59.6229839  19.8918593  74.4589472  59.0695620
   6.9994169  42.8281450  54.4607258   7.9293662  42.6754618  54.2930555
   6.9704640  43.1735039  55.3529835  31.3385248  55.3631401  12.3402321
  31.7792749  55.8970690  13.0012107  30.8079457  54.7467995  12.8450501
  27.4997807  79.1234779  57.8029966  27.8645039  79.9546623  58.1068659
  26.9383478  78.8314629  58.5211515  44.9129486  65.2634907  53.4893703
  45.0747395  66.0662937  53.9849186  44.8887300  65.5469561  52.5754261
  72.1496153  52.3168802  73.5090399  71.3320541  52.3759174  73.0147314
  71.8785715  52.3585415  74.4261169  25.8162904  70.2140331  33.4871483
  25.6375122  69.8323345  34.3465543  25.8514094  69.4633579  32.8942847
  66.7829847  59.3324614  67.5896645  67.0122194  59.4673014  68.5091734
  66.8657780  60.1994562  67.1925545  17.2172618  63.9004660  48.3299923
  16.5351462  63.5002804  48.8692522  16.7449236  64.4998884  47.7522182
  81.1164188  80.8832932  58.2044697  80.6023502  80.7922935  59.0067673
  81.9031334  80.3617668  58.3636475  37.2099853  51.1119652  57.0074844
  36.2994623  50.8167076  57.0053816  37.2771835  51.6757298  57.7781248
  18.8829887  57.8113747  64.5291471  19.6394074  57.4065876  64.1046333
  18.1975412  57.1448135  64.4834232  16.5380597  75.3063488  23.0130482
  15.7207203  75.1165009  23.4736395  16.9548154  75.9905720  23.5368681
  22.4249053  47.9593945  37.5226665  22.4494576  47.8703451  38.4753990
  23.2868290  48.3061171  37.2922254  80.3030300   8.9373821  40.7089901
  81.0992527   8.4062874  40.7232714  80.2970409   9.3366802  39.8390698
  44.6764421  83.7143135  56.5317011  45.4535818  83.9277744  56.0152531
  44.8812914  84.0267181  57.4129915  32.4434781  58.9484215  60.2818775
  31.4952612  59.0783501  60.2971363  32.5949240  58.2186222  60.8824539
  14.7475183  14.8308909  54.3444061  14.8353875  14.2930162  53.5575151
  15.2804399  15.6056690  54.1656733  85.6193256  36.2795806  27.8349423
  85.4196167  37.2071648  27.9611778  86.5746689  36.2446952  27.7865791
  39.8778224  41.9430447  66.4728928  39.1919732  42.0097828  67.1372652
  39.9553347  41.0043955  66.3021278  25.4622889  66.1400890  56.6983795
  26.3990760  66.3270903  56.6376209  25.4181814  65.2389956  57.0182467
  40.8907413  52.3497009  64.3959427  39.9831247  52.6120949  64.2422628
  40.8288288  51.6289234  65.0227404  36.8025780  65.4308605  62.9825211
  36.6259718  65.9211063  62.1795893  36.7408657  66.0834312  63.6800671
   7.6758844   3.7142235  42.3197556   8.0295032   4.5236683  41.9509935
   6.8822622   3.9873573  42.7799654  47.2588062  65.1906061  30.6170583
  47.1439505  64.5520210  29.9133182  48.2067919  65.2469921  30.7369542
  24.0326262  57.9921484  67.8073168  24.1395521  58.0615282  66.8586397
  24.9172854  57.8346539  68.1371737  13.4998894  35.4211855  38.2224679
  13.3049083  35.9235978  39.0135407  14.2002881  35.9125400  37.7932310
  17.2692001  63.0655670  65.0090742  17.7312434  63.6120081  64.3733454
  17.7340949  62.2290945  64.9885941  62.8555059  83.0420303  48.8747168
  62.3377991  82.5922775  48.2069349  62.4789667  82.7517223  49.7054815
  18.7332487  69.3998098  41.6814804  18.3053482  70.0126648  42.2794294
  19.5468807  69.1606903  42.1253920  36.8300748  58.3667517  73.3156824
  36.2347460  58.6628866  74.0042448  36.9171929  57.4249887  73.4630775
  65.3227186   0.5527609  47.0499945  66.1742496   0.2779548  46.7099714
  65.0633383   1.2812763  46.4858866  27.4470854  10.2776062   5.9939319
  27.7804661   9.7025746   5.3051448  27.1260047  11.0491800   5.5272269
   5.8357275   7.3018867   6.9936562   5.9530926   7.2185522   7.9399717
   6.1513489   6.4707017   6.6390491   7.8659439  74.4336271  57.0418406
   8.5008031  74.4864798  56.3274240   7.7767235  75.3354025  57.3501730
  71.9518757  39.4506693   3.5884801  72.1366501  39.6907115   2.6804763
  72.1223450  40.2498674   4.0869346  69.6366024  67.8861094  50.3611183
  70.3555679  67.9173136  50.9922695  69.5853758  68.7759876  50.0122356
  35.3799152  83.1588745  65.4917002  35.0972295  83.7457561  66.1930513
  34.8151851  82.3910427  65.5797100  12.6383305  69.3454266  71.9831276
  13.3241653  68.6862707  72.0898056  12.1244919  69.0377569  71.2364388
  22.3355961  41.5604258  57.4348068  21.8551970  41.5615082  58.2627249
  23.1407905  41.0793447  57.6257372  51.9190693  85.0882435  67.7662849
  51.9153214  85.9427643  67.3349905  52.5264406  84.5607853  67.2475243
  64.0159130   9.9629951  54.8698425  63.4280872   9.5059425  54.2683506
  64.3043232   9.2868412  55.4829264  30.8889723  81.6161537  26.1341381
  31.6293478  81.5831852  25.5283427  30.5642581  80.7162285  26.1647010
  52.9829216  76.4882851  11.2769103  53.2152510  76.6105080  12.1974087
  52.0323610  76.5982914  11.2531590  88.1320095  61.5128279  31.5619445
  88.1060505  62.3398113  31.0806346  87.3465919  61.5292549  32.1088409
  90.1278400  11.6125488   1.7085758  90.2547836  10.8469331   1.1482625
  89.7685814  11.2574065   2.5216207  46.9602585  51.1599874  65.1108027
  46.4252329  51.0049915  64.3323708  46.3558865  51.5483284  65.7433891
  19.2814100  36.4912343  14.1887259  19.0346050  35.7814240  14.7815895
  19.4808495  37.2276711  14.7667539   2.8190047  45.6221342  54.8461151
   2.4105382  46.1336088  54.1477060   3.0395082  46.2673378  55.5179214
  85.2131367  59.7660303  64.9971199  85.2920818  59.6047974  65.9373331
  86.1141396  59.7478437  64.6745014  45.4315424  84.5497036  42.2338438
  45.4489851  84.5124912  41.2775230  45.3968954  83.6334419  42.5085926
  18.2961190  76.4073753  47.1996450  17.8040135  76.9526100  47.8134727
  17.7675104  75.6148481  47.1063328  60.1356173  36.9716239   5.2582043
  59.2298985  36.6895008   5.3859270  60.0882673  37.9274559   5.2387822
  88.5524178  41.0625029  34.9818063  88.5200787  41.8682480  34.4660950
  89.2473316  40.5452633  34.5746350  18.6276615  82.1645451  62.7532005
  19.1423965  81.9921398  61.9648123  17.7175713  82.1118736  62.4613237
  89.5048809  71.7401123  70.7887220  88.7522316  72.1236515  70.3385592
  89.7490883  72.3923206  71.4453983  18.1285787  57.1056700  69.9159718
  17.6630020  57.3497343  70.7159090  17.4644840  56.6821051  69.3720913
  71.6978550  67.3883533  11.2476075  71.1699629  68.0586243  10.8136737
  72.5977230  67.7055740  11.1712217  43.0753660  67.2165966  42.0254087
  42.4710989  66.8302393  41.3915110  42.5801373  67.9330540  42.4224806
  31.6021109  10.5858064  69.2127085  32.2328472  10.8049953  68.5268784
  31.7340326   9.6507937  69.3694878  12.8209722  27.9868698  47.7581692
  13.6667979  27.5820541  47.9503536  12.7394032  28.6891246  48.4034729
  10.1670659  46.9806528  71.3691282   9.5384204  46.2611246  71.3115501
  11.0160792  46.5707493  71.2036467  12.3856235  45.5004740  70.9873819
  12.2822118  44.9430847  71.7586470  12.1110749  44.9489975  70.2547646
  50.5837631  54.7941971  67.4817467  50.4554605  55.5592632  68.0425024
  50.1620150  55.0295401  66.6553211  68.8477898  35.0146222  18.4384501
  68.1617785  34.6618629  17.8717256  68.5563755  35.9032321  18.6426198
   4.2478845  45.0787783  48.0231810   3.6121067  44.3668938  47.9507732
   4.6777433  44.9312401  48.8656092  33.1886292  84.9089718  61.5895081
  33.1459785  84.1367722  62.1535301  32.2792745  85.0742149  61.3405085
  11.5766835  60.2779675  58.0090857  12.4200678  60.7221460  57.9216957
  11.0306036  60.6639385  57.3242092  13.3642232  66.2609148  37.6121044
  14.0557730  65.9819555  37.0119596  13.1476045  65.4730701  38.1107116
   2.5241733  -0.0223940  25.2305841   1.7530895   0.3627474  24.8142576
   3.2458711   0.5529291  24.9768353  65.2498674  61.8771315   5.5108035
  64.9318933  61.8732309   6.4136374  64.8618126  62.6618004   5.1235873
  21.9103289  67.6295185  40.2532101  22.0481634  67.1093082  41.0448027
  21.8853188  68.5348845  40.5629206  85.7110786  81.1004734  57.0796776
  86.2519264  81.7759228  57.4889088  85.2237892  81.5639305  56.3985157
  37.7214193  45.2064323  58.0987406  38.0116844  45.7148123  57.3414230
  38.5245967  44.8251343  58.4533548  19.1912937  52.7073050  70.4156494
  19.7422671  51.9424629  70.5820131  19.6751523  53.2136965  69.7632074
  52.1696043  57.4648952   0.7950084  53.0417347  57.0711803   0.8196431
  51.8170834  57.3212767   1.6732666  44.3131113   4.3195254  26.3048935
  44.1435719   4.9418062  27.0121813  44.2164421   3.4596324  26.7141271
  10.0857568  16.3995111  49.6540260  10.1122689  17.1548080  49.0666151
   9.1678619  16.3328695  49.9172020  66.4682007  16.3788569  61.6461372
  66.3388348  15.4394889  61.7768431  66.0449457  16.7863500  62.4018049
  33.9215803  68.5699463  26.1919165  34.8403907  68.5000658  26.4510250
  33.4320617  68.3922958  26.9950628  70.5618811  30.0070262  67.3840952
  69.6371078  30.0803280  67.1481848  71.0118246  30.5910444  66.7736006
  30.9305024  80.0866318  64.9220181  30.7289100  79.9307966  65.8446789
  30.1825881  80.5862236  64.5945024  77.6792574  58.4543657  17.3784554
  77.6013374  57.6118803  17.8260839  78.2912254  58.9560413  17.9170203
  71.0996532  43.3614779   8.1140834  70.6734324  44.1664982   7.8199655
  70.7888412  43.2398987   9.0112150  75.8046103  30.7467532  48.1400681
  75.1899195  31.1954188  48.7206602  75.4111624  30.8217287  47.2706938
  55.7966280  84.7406673  68.2048035  55.7605696  83.7843609  68.1846380
  55.7141733  85.0028515  67.2879076  20.5670476  70.1490211  10.5272007
  19.7545767  69.6600723  10.6577778  21.0241747  70.0821924  11.3655305
  12.8807783  79.4306755  57.7544641  12.8404105  78.4800959  57.6495790
  12.3841071  79.6047258  58.5540009   3.4707955   5.4198551  20.9275103
   3.0321029   4.6182376  21.2124515   2.8051516   6.1018878  21.0168481
  39.1127896  65.5284309  55.3542614  39.2672849  64.9892664  54.5785904
  39.8791361  65.3772879  55.9075260  57.6747465   3.0413842  38.8034368
  57.5737572   2.7124873  39.6966648  57.0502901   2.5307369  38.2881451
  30.5179477  65.4610300  63.0854797  30.3446245  66.1220407  62.4152088
  30.5570626  64.6352339  62.6030207  30.3131151  74.8581600  50.8675718
  30.3545403  73.9931679  51.2753773  29.9014616  75.4150343  51.5283775
  35.2933049  66.0811567   5.1306915  34.7943234  65.7146025   4.4007015
  35.3523111  67.0162535   4.9348721  36.1583018  52.1991491  18.6002946
  36.9907355  52.5664282  18.8976073  35.5839968  52.2585678  19.3637562
  31.3712239  81.1047268   0.9550977  30.4997206  80.9309673   1.3107942
  31.2597394  81.8918133   0.4219007  56.7686462  11.5704167  52.4105024
  56.5133333  11.6004694  51.4884663  56.4444447  10.7251430  52.7213669
  50.8484793   7.5111026  61.8606520  50.2084303   8.2061511  62.0138693
  51.3616896   7.8185654  61.1134481  45.9978104  60.5222893   7.4188894
  46.1392212  60.4609013   8.3635932  45.7823467  59.6291304   7.1504223
  78.7623692  63.3449364  61.7928839  78.9340162  63.8838959  61.0206890
  79.4203329  63.6229563  62.4300814  20.1389837  24.8810744  19.1206801
  20.2179861  23.9480305  18.9221358  20.8161926  25.0444412  19.7771347
  29.9792075   0.6535099   9.2547297  29.2152309   0.0934204   9.1173577
  30.3740525   0.7371395   8.3867812  11.3129842  77.1344090  69.8898363
  10.9744573  77.0860434  70.7838678  12.2487044  77.3052454  69.9969578
  15.1956940  67.5672626   2.7937630  14.9380791  66.7029190   3.1143472
  15.8176076  67.3857927   2.0891179  35.3264236  73.1288528  51.7132521
  35.3542519  72.9717112  50.7694483  35.1392102  72.2706175  52.0935345
  24.3967009  61.7272472  66.9727707  24.1713715  61.8092012  67.8994560
  24.8537207  60.8884954  66.9106722  87.1848583  69.7668886  10.2348828
  87.1553040  69.6192026  11.1801589  87.3887348  68.9081001   9.8645496
  25.5352974  84.1927052  51.7951393  24.8698354  84.2694569  51.1113977
  26.3156652  83.8820457  51.3360643  48.1308222  80.8300400  29.3014359
  48.8257122  81.4752007  29.4323468  48.1644535  80.2796936  30.0838757
  10.9592688  79.6218395  59.7004604  10.1739717  79.8205614  59.1905117
  10.6587863  79.0136194  60.3757477  28.7425804  62.1090174  52.4502468
  29.1925049  62.9149199  52.7038574  28.2307887  61.8673420  53.2221889
  24.4380784  49.3609858   3.0962509  24.0766430  48.7742186   3.7605563
  24.1630721  48.9779997   2.2632292  90.2863026  84.0206242  43.9757395
  90.2260208  83.4735966  43.1925678  91.2252426  84.0878296  44.1492653
   9.3423319  75.7206583  17.5081861   8.9672250  74.9138021  17.8610384
   9.2619997  75.6270361  16.5589690  82.5034809  67.7009010  65.5605268
  81.6966248  68.0062389  65.1458025  82.8165150  68.4552717  66.0596943
  28.5580468  68.9749527  65.3470612  28.0172586  68.2795334  65.7214546
  28.3690810  68.9466190  64.4091272  84.0245628  66.6216230  50.6988144
  84.6254063  66.2217474  50.0700760  83.1538296  66.4518309  50.3393316
  21.5488267  56.9320917  73.4112787  22.0862293  56.1569786  73.5744667
  21.0464907  57.0493460  74.2175961  62.8357840   0.1198403  28.2652545
  63.1959581   0.2920706  27.3952889  63.5945082   0.1466668  28.8482165
  87.1743679  19.7729063  41.7460775  86.3985252  19.2128253  41.7707777
  87.7423859  19.3665385  41.0915136  31.6871142  65.5906391  18.2315540
  31.3738990  64.6861362  18.2330620  31.0960650  66.0477829  17.6332939
  45.2466202  74.2482996  59.2832184  45.1282263  74.7623777  58.4845066
  44.8511314  74.7820187  59.9723959  23.4337091  83.8838768  41.7024851
  23.2720470  83.4802151  40.8497524  22.5616312  84.0891171  42.0395088
  60.5322313  22.8547955  74.2294931  59.8527384  22.8312206  73.5557222
  60.4339933  22.0257974  74.6978378  17.1469712   1.1970062  52.9284000
  17.0968974   0.7593478  52.0785856  16.4672601   0.7762758  53.4549046
  55.6581020  85.3633690  71.7518473  56.2830114  85.9931660  72.1111202
  55.4053974  85.7327652  70.9057283  45.9871101  65.6775713  68.7776566
  45.9868336  66.0142469  69.6736908  45.1449585  65.2312565  68.6892319
  10.4244220  24.4166708  28.7297869  10.4720688  25.3617311  28.5854864
  10.6377769  24.3047714  29.6561718   2.3198341  13.5941148  45.5234003
   2.6724893  14.4712210  45.3732347   2.0300099  13.3013320  44.6593952
   5.6734174  41.4818048  65.6519842   5.2430153  40.8593845  65.0658274
   5.0891793  41.5423775  66.4077854  14.2917359  62.0773506  58.8432503
  15.1589036  62.4034834  58.6026525  14.4498777  61.1884546  59.1612005
  40.8871746  17.9676521  36.7934990  40.2371836  18.1811893  37.4629402
  40.3697872  17.6971996  36.0349488  72.6297951  21.9784999  49.6803951
  73.2202959  22.7287626  49.6122313  72.0589972  22.0526910  48.9155960
  43.4352207  64.6624088  67.1500587  44.1614628  64.5196199  66.5430880
  43.3326626  65.6135845  67.1812963  49.7767210  62.9560184  32.7013540
  50.3992462  62.3446131  33.0948997  49.3606281  62.4555540  31.9994783
   5.3909796   3.9956999  65.9287405   6.0143375   4.5877329  65.5078459
   4.8280001   4.5701510  66.4476728  25.8366108  79.7514486  43.9048862
  25.5382538  78.8876057  43.6203051  25.4633141  80.3568172  43.2642508
  53.5983419  67.2339487  43.7155962  53.6200809  66.5492916  43.0470133
  52.9299831  66.9421530  44.3355799  42.7763271  83.0227757  31.6024518
  42.2788954  83.6837673  32.0839977  43.6367178  83.0178356  32.0219064
  47.3982573  57.8792858  57.7217913  47.8969812  58.6869240  57.5984001
  47.3295164  57.7829885  58.6716509  65.5013323  27.9197669  42.0347929
  65.4914808  27.9159260  42.9919338  65.5495977  28.8463378  41.7994833
  54.5882750  62.0101500  34.9603057  53.6319304  61.9904327  34.9955893
  54.8302698  61.1769295  34.5560646  89.5205593   3.4995511  51.6951847
  88.8251877   3.8433564  52.2559834  90.3250027   3.8738006  52.0544147
  70.3484869  82.7396584  47.3502636  71.2507439  82.7064705  47.6681614
  70.3892374  82.3576260  46.4735508  33.5275960  74.5702457  24.7114348
  33.1394911  74.3672276  25.5625463  34.4703531  74.4802189  24.8504901
  68.1016302  27.7973437  12.1783996  67.1995020  28.1170964  12.1908355
  68.0477905  26.9142485  12.5437474  75.0022793  11.0136998  23.7713885
  75.4788971  11.0462224  22.9419231  74.3599558  10.3142560  23.6512756
  79.2001724  64.2813826  56.4711189  78.5236120  64.7835398  56.9253635
  79.8045921  64.9431705  56.1350489   3.8974202   0.3981523  46.0166836
   3.6054641  -0.0679766  45.2332830   3.5559055  -0.1204219  46.7451620
   1.1771490  15.3812063  67.6844501   1.6568774  14.5653033  67.8272629
   0.3402428  15.2480185  68.1295156  62.5864029  19.8484552  35.9180617
  62.2124624  19.6126628  35.0690603  62.5709009  20.8054662  35.9291363
   7.7422351   5.7381666   5.7058525   7.4981076   4.8144633   5.7642108
   8.3680499   5.7752669   4.9825191  51.2943554  73.7731934  71.9070768
  51.3919973  72.9354286  72.3596716  52.1092081  74.2408180  72.0903206
  55.6551886  60.5051374  44.9945211  55.4495192  61.3727665  45.3425884
  56.5846920  60.3835678  45.1881218  84.1881752  13.6797726  49.8034620
  84.4422054  13.6813676  48.8805866  84.3849754  12.7927208  50.1045227
  74.5691252   6.9410902  36.4532971  75.4696894   6.8957639  36.1321044
  74.5666218   7.6855218  37.0549989  36.5680933  82.4369335  38.3160019
  35.7401848  82.2276688  37.8835607  37.2029114  82.4963093  37.6020598
  51.5252876  67.1456623  32.1656322  51.1510515  66.3239861  31.8477845
  51.2930059  67.1714020  33.0938649  41.3689327  71.9067192  66.8119812
  41.8260288  71.4791441  66.0877752  41.6715288  72.8143883  66.7836523
  34.9533010  56.7842340  70.1644564  35.6294155  56.6740274  69.4959116
  34.5946884  55.9056091  70.2895451  11.4221573  25.8769751   5.1340383
  10.9907806  26.4086199   5.8029926  10.7494724  25.7390189   4.4671831
  15.5425799  51.5111923  44.6777248  16.2529898  50.9050274  44.4677019
  15.1781225  51.1781454  45.4977751  50.2414370  67.9923296  57.3131418
  50.1697445  68.5625553  56.5476751  50.1038551  67.1100664  56.9683027
  82.5044727  42.5909948  14.0525484  83.3468819  42.1392155  14.1023576
  82.2949219  42.6047564  13.1186688  36.5358305  41.9952488  13.6998677
  36.2584829  42.9112864  13.6861289  36.3210130  41.6668415  12.8268063
  30.9933782  30.8518314  39.9372268  30.6371927  29.9833250  39.7499800
  31.5548563  30.7208014  40.7012987  50.1832819  15.8360445  66.7064619
  50.7975054  15.7753527  67.4380922  49.9401140  16.7612731  66.6740036
  63.6809969  59.2090416  42.4261904  63.6124849  59.0729856  41.4811897
  64.6197367  59.1626787  42.6074171  43.8798141  73.9929724  68.2483768
  43.5598707  74.5449305  67.5347900  44.7073746  73.6378574  67.9239321
  80.5878925  44.4229555  55.9379768  81.4654064  44.4571495  56.3188028
  80.2922726  43.5266542  56.0976124  13.0678272  60.3653765  29.0870142
  12.8198040  59.8128939  28.3457446  13.1795549  59.7537374  29.8147798
  80.3895569  23.7793732  48.0138159  80.6941891  22.9528594  47.6392460
  80.9075356  24.4496584  47.5681257  37.5439382   8.0025733  30.8759737
  37.0958376   8.8484085  30.8756828  38.1684566   8.0621320  30.1530194
  73.9592314  60.3542519   2.8694579  73.5432386  60.8524847   3.5729831
  73.3577490  59.6287823   2.7017003  59.5388937  65.0950146  19.4637430
  59.9322987  65.1415253  18.5923648  59.9594641  65.8011293  19.9544096
  73.9716387  15.1431632  70.9998560  74.5116425  14.9188042  70.2420330
  73.9200306  16.0988164  70.9826803   9.5805883  57.8201628  24.3713808
   9.5962495  57.3249674  25.1903892   8.9906919  58.5534573  24.5461082
  31.0132384  13.7014210  28.0849242  31.1237717  13.6218083  27.1374655
  30.4704499  14.4816935  28.1980085  51.6573429  62.4916363  67.2920942
  51.1277485  62.0483828  67.9548836  51.4476681  63.4194326  67.3991346
  14.6131384  56.5114260  50.0653410  15.0232840  56.7862177  49.2452765
  13.7826622  56.9868088  50.0888443  36.1741185  71.8357134  25.3483176
  36.2243295  72.6525927  24.8519063  35.3698421  71.4176178  25.0407982
  37.6205945  46.7341709   1.3208137  38.4026217  46.8967867   1.8482807
  37.3685527  45.8363295   1.5366480  31.3945436  16.8514097  60.8720684
  32.3082566  16.5759492  60.9461164  31.1244106  16.5540922  60.0032377
  79.7838354   7.7958786  36.1591172  79.2428589   7.0166785  36.2872672
  80.4759026   7.7176070  36.8157339   5.8161497  32.6130867  17.3310411
   6.0910958  31.9643474  17.9789388   5.0008094  32.9713392  17.6819086
  16.7194164  67.9496574  59.5382452  17.4029851  68.5974312  59.3669128
  16.8994665  67.2420311  58.9193106  26.7306089  42.5283527  68.8092661
  27.0855260  42.1617556  69.6191216  26.0308623  41.9248104  68.5596323
  59.3710613   2.0488906  72.7602720  59.4601822   2.4122815  73.6413145
  58.4525681   1.7859602  72.7014112  17.5167751  77.5300598  71.0368586
  16.6517961  77.2721338  71.3554716  17.9928648  76.7050982  70.9419584
  44.9176598  77.0882559  47.0832300  45.8599091  76.9200039  47.0735741
  44.8271608  77.9654264  46.7109251   0.6377574  12.6910245  26.9176531
  -0.1762437  12.9799604  26.5051603   1.2426430  13.4221423  26.7919016
  44.3622971  15.0763917  64.2533016  45.0847483  15.4070961  64.7870874
  43.5901833  15.1690364  64.8114157   8.0985242   2.1192075  11.3046968
   7.6253724   2.9423586  11.4262784   8.4870416   1.9376171  12.1604490
  47.0305586  70.5560446  73.5967445  47.0265293  70.6965208  74.5435715
  46.9243670  69.6102667  73.4944725  15.6247509  74.3200445  47.0731735
  15.5071938  75.0936079  46.5218067  15.0578451  74.4759083  47.8285265
   9.4743086  75.7880072   0.1596652   9.9368597  75.6732825   0.9897958
  10.1441217  76.1057786  -0.4458179  48.4258747   8.8689667  27.4873066
  47.5721264   9.2937416  27.5704479  48.2646465   8.1166595  26.9178557
  48.0421673   0.1822741  23.9803004  47.8196822   0.7412416  24.7248006
  48.3399401   0.7910234  23.3042955  31.2931323  80.1449490  40.6448317
  31.3878727  80.4023933  39.7277808  32.0738292  79.6225691  40.8288383
  71.3283634  21.2751555  71.1884403  72.2638893  21.4179492  71.3320780
  71.2684107  20.9745955  70.2816296  34.1950130  83.7771416  67.7229023
  33.3881378  83.2710266  67.6278639  33.9299607  84.5629120  68.2009554
  59.8012447   1.1924376  65.5287600  60.2169132   0.3886730  65.8408737
  60.4318190   1.8830431  65.7329035  83.3141136  10.8331466  28.8599420
  84.0143490  11.3730848  29.2265058  83.7287712  10.3609884  28.1378889
  14.4273317  60.6683302  69.2568254  13.5441601  60.3485537  69.0724802
  14.4179392  61.5797424  68.9644766  44.9068022  62.1196556  46.1172295
  44.0735722  62.3710108  46.5157032  45.4956150  62.8483677  46.3134623
  14.6577668  62.2133780  73.1777048  15.2226746  62.4935627  72.4575615
  14.2603219  63.0226612  73.4991550  58.0117941  59.5981836  49.0234423
  58.3095169  60.2810001  48.4223175  57.3527050  60.0289726  49.5677328
  83.1682301  82.2439384  55.1430750  83.7866688  82.6818466  54.5582581
  82.9354858  82.9112530  55.7886457  63.9435244  61.5613985  30.3529739
  63.1638813  61.9247484  30.7729340  64.2353725  62.2487640  29.7541595
  37.7148104   4.9457359  73.8269854  38.5958648   4.6711501  73.5728598
  37.1677566   4.7222558  73.0739784  20.2042675  17.1932709  56.4616489
  20.8296466  17.0589685  55.7495403  19.9234271  18.1032622  56.3653374
  46.7031765  71.2676811  56.7840815  46.8936348  71.8728685  57.5008154
  45.8184576  71.5006495  56.5025997  68.2962942  71.1724663  54.3572187
  68.5522175  70.4438591  54.9227858  69.1192341  71.4832497  53.9798355
  85.0063229  82.1847057  62.5969267  85.4520702  82.9562759  62.9465151
  84.8507977  81.6308022  63.3619356  74.5078516  11.0853505  29.9793720
  73.8422203  11.2621844  30.6441236  75.0027561  10.3435969  30.3273702
  33.7352514  82.9512978  34.5835018  34.4166732  82.7944851  33.9298129
  33.3056664  83.7559795  34.2933846  33.9941025  51.3150930   3.1320110
  33.5064554  51.2322378   3.9515030  33.8038278  50.5060148   2.6572251
  17.4962723  21.9977713  58.8275528  17.4508202  22.3008776  57.9207516
  18.4189618  21.7812967  58.9617682  30.2130342  64.7776937  47.2964144
  30.0551891  63.8833809  46.9938898  30.4340339  65.2637815  46.5019894
  20.5779219  63.7952471  42.0925760  19.8997426  63.9041853  42.7592373
  21.2536287  64.4293737  42.3324394   0.6483001   2.8290212  43.4042358
   0.1511787   2.6437145  44.2009592   1.0509120   1.9919622  43.1730080
  35.0291848   0.3384869  55.7605219  35.5812430   0.5819211  56.5036297
  34.1823411   0.7431073  55.9485817  15.5948353  70.4650497  56.6964102
  15.9752691  70.8923435  55.9289980  15.0376177  69.7757101  56.3350964
  34.5970869  62.8419352  60.5509567  34.3692684  63.1243086  61.4367294
  35.3239775  63.4109020  60.2977037  78.2377148  32.3450804  47.4371338
  77.4278402  31.8926001  47.6729107  78.8956594  31.9835806  48.0309868
   5.9016562  34.8531866   0.1625206   4.9825767  34.9386597   0.4159345
   6.0750520  35.6265855  -0.3741551  65.4502678  31.1221123  74.3372059
  65.4444265  31.9615006  74.7972345  64.8315811  31.2397385  73.6163616
  26.6747212  44.9218893  54.9343443  26.5660763  45.5818510  54.2495966
  26.6540980  44.0865850  54.4673586  15.9682214  82.4145603  46.4585733
  15.6293070  81.9530201  45.6915379  16.0397232  83.3266354  46.1770535
  87.2513485  27.4939895  36.5574694  87.9222775  27.8595662  35.9808946
  87.1150780  26.6040945  36.2322807  46.2917280  57.2703934  49.2033482
  45.8452082  56.4353037  49.3428946  46.5668154  57.2446966  48.2868862
  14.6168339  30.1728964   3.0000561  15.5243754  30.4185915   3.1795990
  14.1096961  30.9556007   3.2155022  34.2182422  63.1181908  65.9113503
  33.6389780  62.5743198  66.4450932  34.0058899  64.0160561  66.1662579
  52.5226593  58.1849718  69.1517496  52.8987408  58.9002419  68.6387348
  51.6338968  58.0867529  68.8101578  76.1867809  12.5213599  28.3898783
  75.5470085  12.1896887  29.0198898  76.9475079  11.9505358  28.4979844
  29.8724914  39.1773295  54.5988941  30.5662322  38.9459753  53.9812946
  29.4335866  38.3479238  54.7877884  58.7090254  10.7220268   1.7385034
  59.2144823  10.0814664   1.2380742  58.4541941  10.2565086   2.5351119
  29.7637200  81.1340141  31.8450522  29.7428918  80.9411430  32.7823877
  28.9130068  80.8384705  31.5207481  89.1476250   9.7778761  72.8787947
  89.5008755   9.0481412  73.3876514  89.6432209   9.7610271  72.0600510
  81.5122032   0.5519840  25.1108909  81.2729549   0.2569619  24.2322803
  80.6758404   0.6556442  25.5647564  27.1047902  84.9242592  27.8659201
  28.0487156  84.9055862  27.7081561  26.7151713  84.8865795  26.9924164
  54.8910332  66.5470219  37.9444790  55.7584858  66.1443138  37.9841924
  54.9931049  67.3813534  38.4024167  62.0328665   3.2471973  46.4518166
  61.9449425   2.9001787  47.3395586  61.4340448   3.9935052  46.4259911
  80.3792000  43.9614820  24.1345644  79.7352982  44.2309046  23.4795618
  80.1454353  43.0567980  24.3422556  23.4887171  66.4230728  63.9137554
  22.5511169  66.2421465  63.9800882  23.6080909  66.7438793  63.0198526
  89.5576096  45.1490307   4.3079084  89.5830059  46.0550928   4.0002641
  90.3834057  45.0323629   4.7776794  50.5723810  14.2911255   3.3649108
  51.3667965  14.6192086   3.7862176  50.8892059  13.6841273   2.6960254
  61.4550495  82.0714188  46.3922119  60.8985233  81.7581177  45.6792212
  62.3308754  81.7566204  46.1684561  43.0659628  75.4269266  17.2097886
  43.4198380  75.3435993  18.0952609  43.8244629  75.3133583  16.6370595
  30.1179028  10.0192654  52.8537035  29.6082377   9.7124970  53.6036158
  31.0290265   9.9495876  53.1387138  20.9706545  73.1688499  64.2555857
  20.8309698  72.3596144  64.7473764  21.9207954  73.2271862  64.1552782
  32.3487639   3.8041672  16.9595134  33.1377578   3.9520240  16.4381111
  32.6364708   3.2347289  17.6730943  45.2769423  67.3162889  44.4657516
  44.6033430  67.9513407  44.7090816  45.2714062  67.3161602  43.5085678
  44.2573118  62.7063227  50.6489944  44.5985603  63.4619713  50.1706934
  43.3082962  62.8312588  50.6486082  65.3332615  79.4400787  27.9176307
  64.4639540  79.8395586  27.8867126  65.1809120  78.5184765  27.7086711
  22.0014024  79.3013906  41.0616350  21.8671870  79.3528271  40.1152897
  22.9294324  79.0888548  41.1607218  81.2356758  84.1463375  63.1382275
  81.6235638  84.9062920  62.7043629  81.4988708  84.2333698  64.0544033
  36.9446540  81.1845970  44.4247437  36.2901592  80.8739758  45.0503445
  37.2809362  81.9930363  44.8115015  11.5664148  37.1962047  12.7125907
  11.5125024  37.8010559  11.9726706  10.9388423  37.5393748  13.3486879
  33.8756013  82.4003124  50.5143785  33.7491870  83.3326530  50.3383350
  34.7841859  82.3330402  50.8079433  67.8809452  12.4267781  60.8093166
  68.3874035  12.2657979  60.0131893  67.8132629  11.5685534  61.2277651
   7.4826348  26.2537003   9.9822098   7.5336450  27.0452380   9.4463962
   8.0683243  25.6329298   9.5488000  80.5653381   9.0490901  51.2148142
  80.8482742   9.3721658  52.0702696  81.2801170   9.2822099  50.6223726
  76.0955858  24.5807528  54.6589613  76.0624504  24.0790033  53.8444805
  75.3238583  24.2950201  55.1478624  57.7297401  77.4790430  54.8567581
  57.6369524  78.4050274  55.0807476  57.9321909  77.0505714  55.6884193
  90.6608105  46.0699654  47.4469709  89.8528194  45.6622505  47.7586746
  90.9033871  45.5604506  46.6738081  68.1435776   2.7326658  39.2483211
  67.2582245   2.3710977  39.2077208  68.1122208   3.5066634  38.6860251
  54.9142647  48.8559246   9.9046320  55.7101822  48.5266924  10.3221810
  54.8858976  48.4100676   9.0580869  26.3381553  61.0678768  70.3734970
  26.2753963  60.5636501  69.5622969  27.1611094  61.5500164  70.2927637
  11.3778687  68.8120794  74.3060207  11.7982018  69.0647554  73.4840059
  12.0669603  68.9005327  74.9644709  62.6664925  78.2332134  62.8396034
  62.2150850  77.5101089  63.2750177  62.9386044  77.8723192  61.9958353
  68.4348202   7.9809523  39.9177098  68.6462736   8.6553043  39.2721343
  67.6579523   7.5469697  39.5650458   6.2127590  21.4512563   2.1293660
   7.0152318  21.0994220   1.7440322   5.6104887  21.5384030   1.3905101
   8.5137004  26.2095523   3.3506662   8.5430127  25.9347415   2.4342327
   7.5821698  26.3302064   3.5348567  41.8317270  78.0329323  37.3729014
  42.2636223  78.6629677  37.9497504  40.9299183  78.3470869  37.3075390
  84.9535561   8.2525361  54.9490261  85.5384254   8.4210217  55.6877899
  85.0304222   7.3113567  54.7924900  83.2540989   7.4397272  45.1796055
  84.0282822   6.9288665  44.9431849  82.6529312   6.8005002  45.5619907
  40.7959032  48.9203548  12.8194296  40.5947208  48.0581427  13.1832194
  41.0808372  49.4376135  13.5727477   7.0311058  34.5277882  59.9956369
   7.1304232  33.6323977  60.3191233   7.0322496  35.0691557  60.7850313
  43.7038898  69.9487448  32.5633097  43.8371181  69.4601011  31.7510843
  44.0347815  70.8263016  32.3719049  85.8532333   1.0721217  38.4668756
  84.9161053   1.2639083  38.4315991  85.9118748   0.1319882  38.2967520
  14.0354180  26.2902904   6.4661354  13.4185159  25.7814598   5.9400606
  13.8578188  27.2006583   6.2296635  59.1009235  83.0126476  47.9791355
  59.8443842  82.5812149  47.5579882  58.3396149  82.7227211  47.4765587
  76.2544012  45.5206728  16.6124296  75.8435297  46.0441303  15.9243822
  76.8881655  44.9722958  16.1499822  85.5441761  41.2810278  44.9774504
  85.5214596  41.6865158  45.8442259  86.4191341  41.4787245  44.6433926
  51.1275148  76.2410355  43.9143610  51.8005705  75.5614138  43.8777304
  51.3864517  76.8710613  43.2418680  17.1913028  51.4294004  26.0627580
  16.4863753  51.0957766  25.5077767  17.9606044  51.4384508  25.4932618
  51.6682053  59.6373892  57.7139235  52.2493458  60.3483343  57.9842424
  52.1772051  59.1431665  57.0713568   9.8217374   9.5344901  42.8228855
  10.6918895   9.5146847  43.2212257   9.9887890   9.6588469  41.8886137
  70.4980183   3.5171011   7.0184755  70.4456139   2.6369235   7.3909974
  70.5763531   3.3737320   6.0753202  47.6235771  72.5430918  18.6293328
  47.4166822  71.7585802  19.1372395  48.0331612  72.2102976  17.8307581
  58.8388300  78.7172508  51.8731308  59.0798759  79.5959282  52.1664810
  58.2186460  78.4062958  52.5326109  30.2081251  85.2474594  46.9937134
  29.6344209  85.1628876  46.2321758  30.3076530  84.3527985  47.3191452
  59.1364668  -0.0451296  59.4680119  58.9834784   0.7151396  60.0290918
  58.3618687  -0.0887983  58.9073658  23.8590717  79.1855669  29.7924471
  24.3077803  79.7368050  29.1513300  24.1852617  79.4893456  30.6395292
  47.4738598  57.7624846  60.6405926  47.0491743  56.9389391  60.8806896
  48.3938694  57.6337051  60.8713102  24.3274856  50.6013966   6.1169899
  23.7833095  51.2592697   6.5497804  23.7012529  49.9927902   5.7249951
  71.1200809  52.5913906  28.8564992  70.8345127  51.6777992  28.8504982
  70.4793882  53.0389690  29.4091487   2.5751913   5.9456062  52.7973795
   3.3450910   6.5087348  52.8772020   2.9004574   5.0663787  52.9907513
  42.7532244  84.8525620  46.2180710  41.9147348  84.3962002  46.2880659
  42.8952408  84.9495888  45.2764511  39.7542572  81.5734577   9.2624331
  39.2200994  81.3714504   8.4942526  39.9858952  80.7182789   9.6246946
  60.9130383  80.3392601  70.1011133  61.7149782  80.6819820  69.7065592
  60.2068233  80.7331371  69.5889044  56.7034292  18.2734561  58.3576584
  56.2600422  19.0123689  58.7743664  57.4332237  18.0709958  58.9430046
  90.0194263  18.5331380  69.5042181  89.3333054  17.9993343  69.9048853
  90.5728722  18.8017011  70.2375698  23.1348825  62.6920223  73.1197548
  22.7385616  62.0136642  72.5729561  24.0729451  62.5034618  73.0930614
  59.8336792  84.0317440  54.2973661  60.4985189  84.2977524  53.6621761
  59.6449614  84.8278618  54.7941732  42.7024269  18.1044662  52.6950216
  42.3676395  18.4513915  51.8681049  43.0367470  17.2356176  52.4723959
   5.3394705  57.4494267  68.3223724   5.3950089  56.4980602  68.2326555
   4.9250978  57.5858736  69.1743755  71.9596100  83.2178593  11.5413809
  72.5759506  83.9501572  11.5315831  72.1678352  82.7402782  12.3443675
  74.8528576  17.6843667  71.2709188  75.2990723  17.8623617  70.4430056
  74.9487352  18.4933877  71.7734385  39.9050546  41.5538931  11.9508266
  40.5694342  42.1757174  12.2477627  39.9252343  40.8526659  12.6020551
  13.4866142  39.6930003  14.0211701  13.8713610  40.3493643  13.4403205
  12.7455616  39.3414354  13.5277367  55.8581114  84.1951370  58.6076307
  55.0944233  83.7336826  58.2611084  56.5266609  84.0943623  57.9300451
  56.9407082  72.3763800  29.5914483  57.3204899  72.2987556  30.4666471
  56.5848494  71.5071821  29.4068241  74.7504139  16.3404477  24.9166465
  75.4264402  16.9960701  25.0880623  74.8741293  15.6839633  25.6021786
   5.5373538  59.5172548   3.9367035   6.3279158  59.3825626   4.4592947
   5.8581448  59.8499680   3.0984735  49.4746685   9.0594500  47.4988317
  48.7544346   9.3892652  46.9615078  50.0091982   9.8318189  47.6831055
  37.5245738  30.8680320  11.7092848  37.7397823  31.3774014  10.9279656
  37.8686881  31.3873148  12.4360347  77.7581167   0.7286059  42.8762770
  78.4715128   0.6993645  42.2387505  77.2442818  -0.0588432  42.6970196
  24.4046307  41.4199400   0.8841635  23.5969305  41.8237734   1.2016097
  24.2490005  40.4787922   0.9632430  55.4424906  61.0108709  69.1287184
  55.9595108  60.5441666  69.7853088  55.5267859  61.9335699  69.3690252
  74.2845488  33.8654375  19.6610165  73.8372850  33.0264354  19.7717667
  74.8165798  33.9593744  20.4511738  64.0342474  81.9643688  53.4083939
  64.1650963  82.8802490  53.6539030  64.9173737  81.6296482  53.2525826
  42.5733376  69.9916840  40.5487680  42.1268511  69.8558807  41.3844967
  41.9568348  70.5072927  40.0288630  74.5196772  65.8078480  74.1643524
  74.8514795  66.3702345  73.4644508  75.0808048  66.0031366  74.9148417
   9.1177726  43.6667538  73.0369806   9.5939320  43.0412960  73.5831547
   8.5689503  44.1528749  73.6523771  48.6729765  77.2994566  36.2345433
  48.6119747  77.4206257  37.1820807  47.8095961  76.9750452  35.9784913
   6.2379360  40.1504517  56.5110111   6.9803667  39.9110842  57.0657444
   6.6056979  40.7549715  55.8663845  15.6606460  39.6742487  53.3491993
  15.2495098  39.1970968  52.6284170  16.3552797  40.1847315  52.9331160
  39.4041467  64.9377441  47.7715254  38.9166832  65.7393503  47.5816965
  38.7531185  64.2394543  47.7023077  48.6939335  35.9975100   4.3186876
  48.5178661  35.0904322   4.0688038  47.9566145  36.2389278   4.8793206
  53.0060339  21.4247179  62.4965000  52.8037119  22.1774554  63.0520916
  52.1509361  21.0864305  62.2307873  84.6981621  58.2290363   7.1134394
  84.4434261  57.8421402   7.9510868  85.0817585  57.5032568   6.6211706
  30.4421329  59.9990797  62.9387951  30.4389620  60.9381247  62.7532959
  31.1592960  59.8803759  63.5615492   5.3757548  17.0944822  39.7592354
   5.9053761  16.7831492  39.0252018   5.9691471  17.0703959  40.5099297
  10.9544218  20.4263878   7.2543681  11.4724827  21.1322832   6.8676430
  10.2793610  20.8756709   7.7629620  34.1826487  37.1301055  72.5055742
  34.6906304  37.6935482  73.0892849  34.6454024  37.1729279  71.6687584
  15.4010403   7.5515401  60.2805471  14.5208776   7.8483504  60.5117416
  15.5219591   7.8418875  59.3764973  65.2794409   3.1649747  65.8152342
  65.3799438   3.7541971  65.0676060  65.1057959   3.7456018  66.5561485
  25.0139475  59.0621662  65.3486300  25.8460164  59.5342350  65.3163099
  24.7992063  58.8922215  64.4314432  68.1359148  12.7439332  38.3655000
  69.0499640  13.0014300  38.4856749  67.6585340  13.5720193  38.3144140
  76.6250086  18.1818259  59.0148306  75.8346462  18.0205727  59.5301533
  77.3286963  17.7781856  59.5228958  66.6111231  69.4782257   2.7952516
  66.9903946  70.3551340   2.7367508  67.3242331  68.8915443   2.5432467
  70.6455135  28.3214879  51.3573265  70.4235268  28.6391687  50.4820967
  69.8136711  28.3232641  51.8308973  77.7212811  75.1083851  67.5153017
  77.3720360  75.9180403  67.8877640  78.2081842  74.7047329  68.2337904
  72.1783304   9.4626504  45.6665707  72.3626280   9.9952024  46.4402962
  72.4544859   8.5796869  45.9122229  64.8314142  40.0587559  67.6046419
  65.3923035  39.3485165  67.2928810  65.4237127  40.8033848  67.7092457
  78.6124849  69.2569780  72.7551079  77.9910469  69.9709177  72.6124954
  78.1578302  68.6585188  73.3478689  33.9972782  82.6292515  41.3765669
  33.8832736  82.2146320  42.2317410  34.8880196  82.3966599  41.1144495
  33.2622075  65.1213884  10.9091020  32.7012491  64.4577694  10.5076432
  34.1470718  64.8893499  10.6273150  55.5708027  17.3328555  71.9380236
  55.6976223  18.1969166  72.3298693  54.7351027  17.0293760  72.2926188
  37.2512817  84.5127869  12.2154438  37.4733806  85.4093170  11.9641399
  36.2978339  84.5169735  12.3000038  15.0987577  26.6805410  47.5713587
  15.6828523  27.3992872  47.3295546  15.4128242  26.3949680  48.4292841
  90.4757595  38.4042430  37.3013020  91.2687206  38.3175540  36.7722225
  90.6283092  39.1836953  37.8355455  13.4485161  16.9365132  74.7998762
  14.3700147  16.6995215  74.9043131  13.0933583  16.2658525  74.2165184
  73.0218840  42.6747417  48.6173868  73.6432934  43.3755970  48.4201908
  73.5616875  41.8868065  48.6806250  63.9963865  77.2699928  36.6743279
  64.2718029  77.3233700  37.5894952  64.7007656  77.6972055  36.1869168
  18.5597193  28.2061338  41.4381123  17.7561188  27.6860785  41.4381313
  19.2473793  27.5843954  41.6764307  36.7255521  68.3307409   2.0843278
  37.5501919  68.0019617   2.4422510  36.3362741  68.8318443   2.8009784
  70.3581238  50.1297617  31.0137320  69.4023132  50.0862837  31.0412955
  70.6406260  49.7062254  31.8243146  56.8861818  16.0185611  32.7244067
  57.1218967  16.8751669  33.0806327  56.8371868  16.1577106  31.7786407
  83.6358356  23.9771581  49.8790741  83.6598492  24.9195838  49.7132778
  84.5515156  23.7348390  50.0170708  29.6134949  28.1601906   2.3413788
  30.2742577  28.3362889   1.6715930  29.8348212  27.2900701   2.6732442
  11.8194723  65.6219482  49.2614889  11.2804520  65.9968185  49.9580240
  11.6502368  66.1789083  48.5016251   0.0874512  76.6664314  43.0572271
   0.3641610  76.8938589  43.9448881  -0.4376665  75.8735275  43.1657982
  90.7488728  32.5475454  30.1089692  91.4073753  32.2751689  29.4698930
  91.1106968  33.3417916  30.5020165  38.8769245   1.4963755  31.7775393
  38.2652211   2.1569973  32.1025467  38.3272696   0.7385549  31.5779924
  84.4467640  82.3505116  59.5369434  84.5984173  82.3194885  60.4815435
  84.2420578  81.4466572  59.2974138  12.5831842  13.0914426  33.3871460
  12.7353430  14.0234220  33.5436535  12.4024010  12.7293003  34.2545581
  59.8631096  71.6540623  30.0083327  60.2954102  71.7802095  30.8529830
  59.9992418  70.7285690  29.8054552  21.8136644   7.0450079  28.1635952
  22.4775982   6.6766858  27.5807023  21.7548633   7.9656321  27.9082012
  48.4444380  66.1123419  37.5608134  48.6659718  66.9211578  37.0993233
  47.8066826  65.6796598  36.9931126  68.4847403   8.3960402  55.9625769
  69.1165400   8.8264728  56.5385914  68.5860014   7.4629933  56.1507320
  37.1313143  60.9338570   0.7112820  37.9540491  60.7051182   0.2788245
  37.1855617  61.8802500   0.8440479  13.5057437  17.8987706  48.6497879
  13.6186683  17.0769608  48.1721830  13.9979398  17.7738202  49.4611835
   7.2073370  17.5406671  68.9672804   6.7526114  17.8515959  68.1844759
   6.6169202  17.7568901  69.6890020  44.6059561  13.2887340  53.3034706
  44.0878057  13.1229949  54.0910530  45.1573086  12.5116885  53.2115889
  61.9055176  81.0935688   5.0473672  61.1762285  81.4744854   5.5365157
  61.6150093  80.2062130   4.8365620  69.7013760  86.3329792  60.0438976
  69.7114706  86.1468601  60.9827757  70.6194878  86.2776756  59.7788763
   4.7408640  44.4377232  56.8173838   4.0229976  45.0708771  56.8213606
   4.3609631  43.6473083  56.4337778  84.7818947  85.6098270  25.0137949
  84.8459721  86.1379242  25.8095598  84.4000530  86.2004471  24.3644905
  12.3161995  14.5377219  68.9225531  11.6798449  15.2107418  68.6810398
  12.4568176  14.0408194  68.1166077  19.6678567  44.5772314   8.3609736
  19.7984290  45.3113699   8.9611590  19.9299097  44.9176407   7.5055915
  23.5124969  47.6443434  54.3873453  24.4023132  47.7735281  54.7156286
  23.6132169  47.0356369  53.6555195  67.5832462  18.5395193  47.8824902
  67.0279360  19.3000937  47.7110481  68.2684469  18.5880995  47.2158813
  87.8532192  17.1103226   0.0127755  87.4486205  16.2440859  -0.0337829
  87.4987957  17.4975048   0.8132182  72.5464296  82.9146862  40.5843544
  73.1808043  83.2638454  39.9583411  71.9451666  83.6415768  40.7467031
  77.1436214  16.2918711  50.8822489  76.4188719  16.7246199  50.4309177
  76.7324305  15.5711687  51.3594723  76.1004066  70.8198786  61.5190506
  76.1819553  69.9836206  61.9775867  76.9018364  71.2938833  61.7409992
   9.3679315   2.2716153  48.2224846   8.7761027   3.0214110  48.1610346
   8.8095099   1.5484679  48.5078907  11.6913247  24.2638159  70.7370806
  11.1225855  23.5775161  71.0860205  11.4829099  25.0371146  71.2612963
   3.2979447  19.0370750  60.0717163   4.1150564  18.5813093  60.2737999
   3.2798204  19.0837693  59.1158247  30.4128146  16.8313265  58.4772158
  29.8352385  17.4058211  57.9746294  31.1114168  16.5993381  57.8653574
  34.7963548  28.2059360  42.8880978  34.7322130  27.8270102  43.7647581
  35.5280304  28.8203979  42.9457045  82.6844883  38.6274648  38.0330586
  83.1051064  38.6854696  38.8909340  83.0025291  37.8027916  37.6656413
  15.5457211  49.6059704  24.6060252  14.5936108  49.5962906  24.7041321
  15.6905448  49.5076799  23.6649656   1.1429040  20.1844883  72.9593325
   0.9113910  21.0839057  73.1910276   1.3670310  19.7723484  73.7936783
  58.5928011  73.8389683  48.9833784  59.2229557  73.7869167  49.7020054
  58.4579182  74.7772694  48.8505888  73.4352064  20.3063846  62.6064873
  73.5232162  20.4494882  61.6641474  72.8505516  21.0046339  62.9012108
   8.0753070  13.9623201  51.1690187   8.2691967  14.8626256  50.9080839
   8.4850973  13.8686621  52.0289803  70.2687502  49.1645002  67.2388792
  69.5834351  48.5238409  67.0488024  70.3442717  49.1584682  68.1930780
  28.2325315  55.5468655  10.8680153  28.5636258  56.4441395  10.9068120
  28.3810449  55.1985455  11.7471337   4.9363405  16.8687332  46.9824982
   5.8555520  16.7454028  46.7457056   4.9469396  17.5826991  47.6199722
  86.7499924  80.5605125  30.1252007  87.4925137  80.0573730  29.7909164
  86.2217331  79.9200487  30.6016302  34.3830729   4.5240825  42.0335102
  34.6489906   5.2814949  41.5121222  34.5210671   4.7972721  42.9404593
  76.6054678  35.6610942  36.8639660  76.1547995  35.8581519  36.0428071
  76.5013170  36.4536452  37.3905087  49.2176247  52.4667645  68.2567167
  49.5258236  53.3652782  68.1387663  49.9396467  51.9226694  67.9422760
  65.3747940  57.9037523   0.1612912  64.5473385  57.7179956  -0.2826046
  65.3984165  57.2861290   0.8921924  66.3755560  70.9087276  63.2471418
  67.1139622  70.3037739  63.1763172  65.6871319  70.5096960  62.7150869
  36.8405390  11.1219704  57.5896406  36.6867971  11.2788272  56.6579771
  36.0849905  11.5150023  58.0265665  15.0892770  18.9416707  27.8390050
  14.8397660  18.8814020  26.9168639  14.5405900  18.2920682  28.2785416
  85.7959747   4.9409214   9.5330882  86.6603184   4.5374361   9.6127421
  85.1881695   4.2019212   9.5068812  15.6666553  22.7698755  23.6785364
  14.9696815  22.2700143  23.2535696  16.2320352  22.1054149  24.0723228
  40.1664591  68.5594559   1.4008330  40.6686115  68.2937145   0.6304719
  39.8891878  67.7357244   1.8018514  12.5964189   3.8463464  36.2452555
  13.4567273   4.2659548  36.2507391  12.3700297   3.7762561  35.3178573
  88.7258053  54.5209360  23.3807969  88.1622314  55.2445126  23.1068468
  89.2358017  54.8768139  24.1084552  29.4740224  15.7017744  45.4643631
  29.7441959  16.5321755  45.8563757  30.0792551  15.0563693  45.8295774
  23.6421418   3.0659440  32.2153568  23.3771777   2.2776125  32.6892328
  22.8812075   3.2906449  31.6798949  88.1373501   8.2681358  55.0631475
  88.4799194   7.9333961  54.2343950  88.2452679   9.2172039  55.0010490
  31.6210389  31.4218235  48.4116268  32.4028730  31.7123580  48.8812590
  31.2951398  32.2105289  47.9780769  15.1112700  12.0869374  29.5528817
  14.5405698  11.5210629  30.0728011  15.0765085  11.7167389  28.6708522
   8.3897310  21.2536311  15.5590355   7.9533654  20.4265547  15.7633901
   8.7220967  21.5636158  16.4014566  62.0060396  34.9090052  41.9702864
  62.7706003  35.4641056  41.8168354  62.3432732  34.0151405  41.9110394
  86.1418343  80.9235001  49.7601700  86.6852951  81.5768051  50.2007008
  85.4032230  81.4223671  49.4111300   7.5377423  60.2848101  12.7418244
   6.5817475  60.3058624  12.7849889   7.7502608  60.7286549  11.9208097
  45.7787323   8.4610879  55.3489971  45.0094509   8.5202712  55.9155083
  46.0260582   7.5368083  55.3767157   2.6942855  17.4250090  55.3551960
   3.4823823  17.9168653  55.1245165   2.2669037  17.2504294  54.5166874
  73.6235046  47.4967480  19.0247154  74.3930340  48.0629110  19.0840352
  73.0037212  47.9904842  18.4877610  24.9256015  35.9975004  28.3687449
  24.2702961  36.3147569  27.7473307  24.4530702  35.9227371  29.1978145
  82.6815510  76.9718170  26.6955280  83.5325527  76.8383455  27.1129131
  82.0825672  77.1430302  27.4222589   0.6686547  63.9568663  72.2725487
   0.6906597  64.6461630  72.9363394   1.5451361  63.9666510  71.8879461
  58.6116743  80.7601929  15.5281615  58.2037592  80.3227234  16.2754607
  58.8916731  80.0457382  14.9559784  27.3868656  69.7791529  67.9523945
  27.5905132  68.8591433  68.1207466  27.5563288  70.2183628  68.7858248
  50.8529520  21.9515157  45.1060104  50.3345966  22.1262670  44.3205166
  51.0597277  22.8187656  45.4543686  15.2301729   4.8342910  27.9335022
  14.5284009   5.0180197  28.5579944  16.0079777   5.2338177  28.3228993
  11.8437660   1.7417599  21.9674540  12.5930572   1.8506762  21.3818502
  11.3016367   2.5145638  21.8090177  17.4344885   6.9150579  22.3654890
  16.8742359   7.5894940  22.7495265  17.2900462   6.9921583  21.4223957
  71.9944763  22.9080415  11.3391209  71.9832420  23.6798573  11.9051647
  71.5412331  22.2334886  11.8448734  86.2533855  33.9835572  35.4085922
  85.7184887  34.1538620  34.6332741  85.6676865  33.5188508  36.0062861
  41.1764765  73.2127714  42.8536367  40.2869368  72.8660297  42.7849102
  41.0975695  73.9584875  43.4485388   4.5985654  27.5638700  68.1063938
   3.9069071  27.9803181  67.5921869   5.0496876  26.9937706  67.4837303
  18.7250626  18.4972072  45.0533485  18.2674646  18.0505252  45.7656097
  19.1819406  19.2222679  45.4797077   9.2601764   5.2104849  55.3470182
   8.7256372   4.4398978  55.5385780   8.7932807   5.9352547  55.7628918
  61.2438822  43.1316614   3.5779250  62.0090532  43.0892420   4.1514647
  60.4957247  43.1065130   4.1744649  35.0886989  78.1342793  66.1711264
  35.4057026  77.3520279  65.7196617  34.2236328  77.8878593  66.4984941
  12.6785815   3.2043806  62.5262594  12.7935779   2.4487031  63.1024170
  12.7725649   3.9621571  63.1034708  72.4265814  24.6337962  68.1457901
  72.9213667  24.4780779  68.9502573  71.6240263  25.0659013  68.4380579
  67.7362061  40.9654999  46.0983229  66.8252659  41.1007881  45.8373308
  68.2151318  40.9016228  45.2720165  70.1645231  85.1880074  52.1059895
  70.4868412  84.7969532  51.2939453  70.5839205  86.0477352  52.1407557
  30.6004524  24.3912792  39.0670896  30.4470277  24.0866661  39.9614620
  31.3454247  24.9876738  39.1416740  18.3173323   9.3477088  72.4884653
  17.5910759   8.7675184  72.7168608  18.0096424  10.2220559  72.7273750
  11.3244879  82.5187969  44.4789553  11.8328857  82.0827103  43.7951469
  10.4138577  82.3108673  44.2698002  63.3323479  32.3920560  41.8485594
  63.9366674  31.7711091  42.2553158  63.0613613  31.9651437  41.0358191
  46.6936541  29.3079782   5.8768940  46.2392950  29.2126369   6.7139739
  46.0285044  29.6530104   5.2812761  49.5094395   9.3662018  22.8853822
  49.0002918   9.3872780  23.6956644  49.3825674  10.2332354  22.5001693
   2.6204732   6.8857962  65.4478550   2.7786958   7.8281820  65.3921175
   1.8518770   6.8049663  66.0126209   6.5832490   0.5466724  42.6228905
   7.2837222   1.0342625  43.0562782   5.8315182   1.1389093  42.6425934
   4.2813456   5.9493595  40.0438738   4.3775603   5.4916924  40.8790445
   4.7009495   6.7978668  40.1859999  77.1027899  24.1047144  70.8239126
  76.8498325  24.1593099  69.9023581  77.7550888  23.4047580  70.8521700
  24.4523072  10.8342588  45.8802509  25.1432920  11.0214078  46.5156651
  24.8745227  10.2806902  45.2233458  26.3797426  20.0070095  55.7545710
  25.7242966  20.2144480  56.4205980  27.0720673  19.5514882  56.2335491
  12.1411586  49.2001247  57.3542023  12.0781672  50.0523949  56.9230461
  12.5985920  49.3804073  58.1754732  13.1307697   6.6776437  12.9236448
  13.5241866   6.4609873  13.7689352  12.2863424   6.2269378  12.9299188
   2.0799075  33.5803986  67.8294182   1.8832618  34.3248630  68.3980465
   1.6977194  33.8169837  66.9843197  19.5846415  18.5374534  36.7185688
  20.2848172  17.9785073  37.0555615  19.9592102  19.4183195  36.7210388
  35.9258890  31.7485619  51.0800219  36.5488577  31.0295391  50.9744263
  36.4156723  32.5295901  50.8224583  52.3466730  67.7555943   7.8665453
  51.9819117  67.6433706   6.9887131  51.5834141  67.8955936   8.4269643
  37.3529577  71.6134787   5.3825903  36.8337750  70.9516430   5.8393824
  37.1902442  71.4467335   4.4541755  70.1202917  46.0614204  38.7332630
  70.6570911  45.8121777  37.9809618  70.1437044  45.2964544  39.3081594
   8.8604802   6.9164544  66.1241102   8.9812970   6.2424880  66.7929935
   8.2599950   7.5456560  66.5238047  82.6156616  37.0109248  27.6762891
  82.5764847  37.7693844  28.2589006  83.1962013  37.2842383  26.9660115
  54.5185089  24.7314167  32.5521159  55.2259779  24.7012234  33.1961727
  54.9636412  24.8467588  31.7126012   3.1185240  14.2534077  38.9952683
   2.1949330  14.0024650  38.9798069   3.1150818  15.1609230  39.2996311
  30.4846644  37.0418239  24.7184038  30.3932571  36.4352965  25.4532504
  29.8693419  36.7164564  24.0613294  67.2906780  38.7946701  62.2605991
  66.4787245  38.7209105  62.7621126  67.9402828  38.3281755  62.7865601
  87.6495647  69.4285297   0.6115760  86.7025852  69.5633173   0.6475139
  87.8069305  69.0656185  -0.2600672  86.3111019  30.7726121  29.7878623
  86.8474674  31.2879109  30.3903627  86.2061691  29.9270153  30.2239704
  12.9142380   6.0138220  57.9323292  13.0252910   6.9099939  58.2497787
  13.2016945   5.4641426  58.6613369  33.5188603  26.9981050  67.5658798
  32.6363969  27.3001003  67.7810240  33.5951900  27.1347451  66.6215611
  21.0811520  13.8238418  22.4656844  21.5521860  14.6509576  22.3645091
  21.4993382  13.2320094  21.8403172  66.6578388  37.9416609   2.8535196
  65.7920837  38.2281709   2.5626448  67.1600580  38.7514305   2.9445153
  44.8245525  15.8699071  46.5726280  45.5749178  15.3691626  46.2525749
  45.1870108  16.7265654  46.7984438  10.8423102  55.3573275  28.6432362
  11.0043430  56.0558939  29.2772555  10.6454754  55.8160639  27.8265047
   4.0119410  41.8853188  56.3001251   3.6278650  41.7771435  55.4300594
   4.6591583  41.1831093  56.3652277   6.2023926  11.5479732  59.8540020
   6.3513809  10.6561244  60.1680708   6.9243109  12.0559788  60.2241325
  38.0602980  78.3541107  54.6781301  37.2002983  78.4586477  55.0852060
  38.4998202  79.1910219  54.8285770   4.3831326  86.1955844  62.5884914
   3.6721994  86.1164801  63.2245350   4.0616156  85.7378506  61.8117428
  28.8795877  13.0660570  18.1896389  28.3008075  12.3036706  18.1860876
  28.7104392  13.4912682  19.0303624  89.4042683  40.8055878  54.7357321
  88.9483643  40.5304289  53.9403248  89.0110874  40.2788305  55.4315472
  19.1317964  23.5242081  61.5333080  18.5699475  23.1980848  62.2362995
  18.8527536  24.4307590  61.4047241  20.9727693  75.5950594  53.8375950
  20.4093957  76.1370754  53.2852697  21.6033816  76.2097692  54.2126846
  17.0398629  73.1823206  33.8102579  16.1663496  72.8459787  33.6100554
  16.9553924  74.1322374  33.7280965  38.2627368  77.4900246  19.8826981
  37.4743795  77.3571968  19.3563104  38.6074376  76.6083717  20.0244594
  85.7503128   6.8509185  29.1161704  85.8631802   7.7823079  29.3059206
  86.0652256   6.7495978  28.2179546  17.3631287  39.5700836   4.1647640
  17.6137924  38.8493729   4.7426698  17.8274083  40.3304100   4.5148835
  83.8078403   1.3872208  24.2702174  83.1520557   0.8130519  24.6658301
  83.4092808   1.6760923  23.4492826  44.1492128  26.4746356  36.4427304
  43.5568047  25.8510947  36.0226369  44.8485327  26.6088676  35.8030653
  11.8301380  41.5668726  38.6897612  11.9277120  41.9932604  37.8383470
  11.1134148  40.9447336  38.5653305  49.9077129  16.8595648  61.9517040
  49.4653320  17.4815106  61.3740253  50.7541895  16.7039311  61.5327883
  48.9994431  52.6628447  37.0495248  49.7862673  52.5997448  37.5909662
  49.2120743  53.3277321  36.3945866   6.3534272  45.0558424  38.9771748
   7.2007126  45.3050518  38.6080742   5.7109725  45.4967117  38.4211898
  20.8081365  52.5927591  18.3349967  21.3609600  53.3180189  18.0441058
  21.4016747  51.8433046  18.3825648  85.3934860  50.3598833  68.2438898
  84.6491051  50.4614067  68.8370371  85.6134319  51.2534475  67.9804564
  13.7642014  32.9500747  49.0594721  14.4973457  33.5654354  49.0515995
  13.3760905  33.0510306  49.9286175   0.2755393  28.2025695  17.1062219
   0.9263025  28.0510449  17.7916265   0.6290518  27.7554393  16.3372374
  81.6078758  79.8778105  25.0052691  82.2138309  79.9908257  24.2729545
  81.1603260  79.0520906  24.8205805  48.9621353  44.1643047  23.0775762
  49.4146776  44.7339487  22.4555230  48.2141304  43.8217831  22.5882936
  87.5173473  30.0781012  47.5754738  87.6059818  30.3370118  48.4927225
  87.7324104  30.8692431  47.0814323   5.5640221   1.8634498  39.2996812
   4.7380283   1.8425161  39.7829294   5.5896676   2.7359712  38.9068961
   7.4419296  66.8419981  49.0253830   7.9218954  66.4080429  48.3200121
   6.8973130  67.4912930  48.5803652  64.7719097  81.5260887  39.9127269
  64.0342188  81.9555187  39.4795585  64.5437098  81.5378189  40.8422518
  70.0505447  77.8850174  21.7853045  69.7602272  78.7897062  21.6691875
  69.8502398  77.6846790  22.6996207  14.3612647  67.1141863  72.5565815
  13.9450872  66.2648249  72.7035856  15.0153041  67.1839952  73.2519865
  90.5689812  15.4886985  54.4580364  89.6631908  15.5991089  54.7471523
  91.0109234  15.0837147  55.2043009  90.1874352  46.5430832  58.8121939
  90.9664631  46.1361122  58.4330893  90.5201244  47.0593691  59.5463610
  62.6545525   8.3902216  64.0002394  63.0068541   9.1827005  64.4053221
  63.2993412   8.1553900  63.3329058  89.4622898  13.4482837  51.9803572
  88.5196114  13.3030748  52.0609760  89.6795177  14.0239596  52.7135944
  17.0091748   5.8019245  46.7636538  16.7147887   5.9807515  47.6567316
  17.9464781   5.9956062  46.7771244   7.8508425  51.5363836  36.1983371
   6.9522393  51.6507530  35.8890414   7.7957493  51.6611433  37.1457720
  50.1540422  20.9936047  37.5416851  49.4479084  21.2297821  36.9401622
  49.7074175  20.6107855  38.2968068  77.7522850  29.5615864  10.1143897
  77.3912001  28.9167190   9.5061177  78.1825638  30.2061272   9.5525515
   6.8852288  41.8492889  43.9603853   6.2663817  42.4400282  44.3896723
   6.4625061  41.6197395  43.1328344  12.0650971  11.7907357  43.2967186
  11.9713378  10.8750653  43.5593748  12.8928876  12.0687985  43.6887360
  46.3176107  77.4207258  73.3873987  45.8724642  78.2411003  73.5996580
  47.0911598  77.4151373  73.9511585  12.1499777  56.8933249  13.7467515
  11.2763536  56.9970465  13.3695841  12.0002544  56.8572664  14.6914816
  15.8644342   5.2081090  43.2631588  16.5595615   4.5501465  43.2739210
  16.3025272   6.0233814  43.5073662  19.5262289  12.8831172  15.1093781
  19.6622777  12.3058057  15.8606672  19.4829249  13.7615740  15.4870939
  46.9819164  22.1462584  52.6545429  47.3522949  23.0288815  52.6493454
  46.7086649  21.9958472  51.7495871  30.0317430  78.7854767  47.0103979
  29.9358177  79.5974064  46.5125990  29.2680311  78.2628775  46.7657280
  79.0661049  54.2898846  66.2655020  79.3116999  55.2124596  66.3345766
  78.2800722  54.2101669  66.8058968  76.5619755  28.9793849  34.3933892
  77.3422003  28.7036419  33.9123011  76.5825891  28.4632087  35.1992226
  79.4421434   9.4952399   2.8105268  79.4342995  10.3752816   3.1869546
  78.6885977   9.4804090   2.2204590  46.5989113  20.6262541  29.9794221
  46.6948605  19.6962667  29.7741246  46.9137669  21.0780883  29.1965151
  80.2624321  83.7039566  41.0514116  79.7705936  84.5240211  41.0087347
  79.6204185  83.0542469  41.3376427   8.2687867  19.6132207  12.1573889
   9.1660202  19.9222469  12.0320666   7.7224958  20.3097582  11.7931974
   1.9487274  59.6046734  42.9200459   2.0838208  59.4339323  41.9879341
   2.4169423  60.4233027  43.0839109  27.5121760  67.6025391  21.5454030
  27.6014566  67.0210791  22.3004985  27.2188592  68.4344387  21.9170666
  16.7214119  20.2134991  24.0715528  15.9405839  19.6737337  23.9482856
  17.4350154  19.5832872  24.1707230  26.5295506  37.9947925  50.3235865
  27.0683932  38.7622070  50.5158281  26.5729117  37.4660206  51.1203003
  85.6838989  36.8546367  40.9216928  86.2558079  36.9532990  41.6828918
  85.7200813  37.7046967  40.4831457  14.9131858  54.8007917  21.5466213
  15.0272548  54.4188309  20.6763768  13.9772844  54.7116137  21.7265320
  24.3696690  21.9160390  48.5038328  24.8826981  22.5311518  49.0279245
  23.6915231  22.4554396  48.0971432  17.6422834  64.3645525  23.3935976
  17.8776288  63.7025738  24.0437007  17.6782048  65.1930761  23.8715982
  75.2227545  26.5455151  43.3086157  75.1521969  27.1352053  44.0592957
  75.9973145  26.8507338  42.8362513  32.6767969  69.4410181  20.3130722
  32.8696585  70.2975702  20.6943250  33.0683875  69.4736862  19.4402480
  26.1814952  41.2700701  51.6266966  26.5444422  41.9023180  52.2469902
  26.9267130  40.7228661  51.3788033   2.9024458  41.7476892  53.7486219
   3.6670828  41.6798401  53.1768179   2.2183147  41.2572575  53.2929134
  79.2178154  85.6137371  60.8340836  80.0352955  86.0723400  61.0281229
  79.2134953  84.8677540  61.4338589  28.1331491  31.8352365  56.2050056
  27.7513814  31.9691491  57.0725012  28.4561658  30.9343457  56.2219429
  24.2442942  18.7695968  19.3586791  23.7576127  18.0174518  19.6958017
  23.7102556  19.0951884  18.6340928   3.8888821  65.3808641  33.7740993
   3.1385219  64.7900629  33.7097001   4.3488020  65.2755642  32.9412627
  58.4266186  48.0047035   7.4876642  57.9335403  47.2185421   7.7222991
  59.0696812  47.7016878   6.8466598  32.3248935  28.4552431  63.1673574
  32.9688120  28.0940175  63.7765503  32.7504134  29.2303920  62.8008747
  43.5652256  18.7612772  63.4760618  44.4603252  19.0616095  63.6336231
  43.5810137  18.4199405  62.5819302   1.4181116  43.6152887  73.1268263
   1.1175516  44.0253592  73.9378405   0.6786230  43.7034941  72.5254917
  12.4727440  23.4088230  25.6859422  12.7083087  22.8249478  26.4069366
  13.2516813  23.9483786  25.5504107   6.7112166   9.7600096  52.2545195
   7.4953371  10.2681482  52.0467186   6.9115222   9.3422794  53.0921459
  61.3971281  78.0706835  33.6957002  62.0324564  78.5492468  33.1631899
  61.0555077  78.7242126  34.3059659  21.8214369  30.6680226  58.0552530
  21.6765499  31.5589094  58.3739328  21.3501263  30.6317687  57.2229147
  42.8853083  67.0335388  15.2076888  42.2232866  67.7167892  15.1022100
  43.6821604  67.4128771  14.8370624  28.2356262  33.3681369  47.7134132
  29.1613221  33.3557582  47.4701738  27.9635429  34.2752504  47.5743151
  81.1578465  71.6618443  46.5647745  80.3799343  71.9162083  47.0611334
  81.8903160  72.0144320  47.0701599  30.1928854  47.5666714  64.5251465
  30.4558110  46.6676807  64.7224331  30.2149320  47.6184368  63.5695982
  42.0270252   9.1859668  39.0040135  42.8844690   9.5527983  38.7884736
  42.1705627   8.7040532  39.8184991  79.5259047  40.9822750  45.1819229
  78.6930990  40.5114412  45.1504898  80.0753689  40.4583836  45.7648993
  76.0362625  38.7695169  72.9820633  76.7950487  38.2261157  73.1946611
  75.9150887  39.3238187  73.7529707   9.2656147  54.3192005  46.2393379
   8.9469814  55.1812315  45.9717512   9.0263265  54.2517233  47.1636820
  75.3992224  30.1633167  54.4132519  76.0126686  30.6496549  54.9640560
  75.8819723  29.3792582  54.1516590  35.0136304  18.8965571  58.4696722
  34.9882984  17.9397428  58.4794092  35.8394480  19.1186774  58.8996935
  74.3998528  50.9437752  34.4077444  74.7955465  51.0305023  33.5404849
  75.0041485  51.3998842  34.9934220  87.8178978  85.2524853  49.8777628
  87.5389194  86.1681080  49.8717165  88.6263371  85.2450275  49.3653107
  30.0346518  78.5312319   4.1585535  29.7522497  79.3243074   4.6140862
  29.9969435  78.7618876   3.2303253  28.0983925  38.9670563  64.0323591
  27.5711608  39.5409179  64.5881844  27.4684095  38.3510947  63.6582661
  25.0632381  26.8489218  35.7490277  25.2781439  27.7261639  36.0660362
  24.9183512  26.3358045  36.5439796  19.8361945  32.4825954  29.1282892
  19.3422997  33.1025743  29.6648741  20.7269335  32.8328395  29.1162205
  84.0385723   9.3653011   1.8600228  84.3552685   8.4835672   1.6638605
  83.0925179   9.2625535   1.9632226  51.1005259  47.7380753   6.7008662
  51.0548401  47.2933578   7.5472534  50.8842897  48.6496115   6.8972731
  55.4789400  84.4566059  -0.0145892  55.7359457  83.8832283   0.7075001
  56.2802029  84.9277306  -0.2431700   7.8458017  26.9192314  64.2927933
   7.3299491  26.7632413  63.5017204   8.7307954  27.0917869  63.9714813
  39.1192913  46.2461710  65.9008551  39.2597485  47.1920156  65.9442472
  39.8133063  45.9271908  65.3239393  16.5911627  25.5721903  44.2880630
  16.4448893  25.2503514  43.3985376  15.9638751  26.2879825  44.3899679
   7.5586796   6.8670768  52.9301596   8.5022664   6.9833225  53.0413485
   7.4261200   5.9205610  52.9827642  16.2007260  29.7046018  31.0225081
  15.4691625  29.1109109  31.1915588  16.0562038  30.0142479  30.1283789
  15.3289092  33.9256287  27.3556209  15.5046904  34.1551018  26.4431095
  14.6444833  33.2582116  27.3071790  23.9909458   3.2429758  28.2383633
  23.4999895   3.7912613  28.8503909  24.7686648   3.7588131  28.0255294
  91.4286673  52.5672531  19.2864382  91.8934539  53.2903624  18.8653445
  90.8681715  52.9895449  19.9373949  13.7506723  38.8842773  16.6736257
  13.6530721  38.7954497  15.7255661  14.1688883  39.7370362  16.7924941
  27.3852229  20.8716798  51.5006161  27.5501418  21.7178988  51.0847425
  26.9813466  20.3417349  50.8133936  14.2374361  55.7809019  56.9347286
  13.5985494  55.0874949  56.7696857  15.0801945  55.3898811  56.7043114
  90.5909443  41.0429001  28.6569548  90.0092506  40.3278637  28.9150143
  91.1880302  41.1452579  29.3980622  89.2818546   5.2099949  34.9967360
  89.5113277   5.5829322  35.8479047  89.6030235   5.8491975  34.3607330
   3.3882785  24.7866845  44.3705988   2.8413880  25.4626203  44.7709179
   4.1651359  24.7457504  44.9283123  16.8727148  44.4650745  32.3074198
  16.9188571  45.2026701  32.9157424  17.0951033  43.7012863  32.8397727
   4.9633902  57.2280121  21.0528803   4.1005638  56.8189764  21.1195993
   5.2773762  56.9841528  20.1821494  50.8429718  20.7145858   0.9907568
  50.0959873  21.3088560   0.9194095  50.4595041  19.8786390   1.2560441
  52.6162815  30.3136134  39.3868828  52.0848799  29.5491481  39.1645432
  53.4012556  29.9489665  39.7956395   6.3707054  48.5775566  36.3520193
   7.2731060  48.8801861  36.2504387   6.0036910  49.1425943  37.0319200
  15.9429157   9.1164595  32.2955704  16.3127685   9.0850067  33.1778693
  15.1713753   8.5515976  32.3390126  24.2530441  39.0419173  29.6198583
  24.3595338  39.0230775  30.5709291  24.9195528  38.4380555  29.2922139
  76.6521311  22.3501039  52.7129650  77.5715208  22.6163650  52.7210855
  76.3962221  22.4008060  51.7920065  23.4367228  22.7717400  56.1294317
  23.7560415  23.5145259  56.6418171  24.0282106  22.7270341  55.3781843
  80.1815033   0.8505341  41.1926126  79.6584129   0.4403079  40.5039024
  80.6610489   0.1254080  41.5931892  26.8753481  24.1453862  35.3905177
  25.9827471  24.4456458  35.5618000  27.4125528  24.6147490  36.0287523
   6.0248905  38.3541465  17.4423099   5.5020869  37.8765678  16.7982399
   6.2784404  39.1610456  16.9941378  55.6836700  24.1327000  13.4564102
  56.6086149  24.3400764  13.5894871  55.5487680  24.2335296  12.5141430
   3.1552708   9.3573451  48.7509203   3.8127983   9.7928751  48.2085180
   3.4119180   9.5629996  49.6498489  19.9359763  60.2130747  54.4007254
  19.7800291  59.7719717  53.5656548  20.5532527  60.9136295  54.1899443
  66.5428925  29.3136001  33.5185361  67.4114132  29.6487188  33.7412405
  66.2945938  29.7967482  32.7304077  21.9752049   5.9572208  58.7207699
  21.3326168   5.7224768  58.0512810  22.0706677   6.9061202  58.6388683
  13.1441855  28.4891176   4.3784076  12.2871184  28.5519052   3.9568320
  13.7381387  28.9458799   3.7827420  25.6301689  22.1550465  62.1560526
  25.3580332  21.8683243  61.2842941  26.5372396  22.4388885  62.0425272
  85.6041813  12.0995688  61.3108015  85.2834034  11.2400413  61.0377741
  86.5553284  12.0396745  61.2215614  16.3059008  44.9549294  60.1569605
  16.6625845  45.8398676  60.0801754  15.9485435  44.9168777  61.0441351
  15.6227446  30.1867390  28.5354495  14.7758651  30.4014707  28.9264941
  15.4618049  30.2024412  27.5920057  20.8182335  41.6750813  50.7487917
  20.3897285  42.5261164  50.8402061  21.6264653  41.8638611  50.2719736
  30.4805350   7.3850995  21.0364556  29.6915388   7.8658104  21.2867212
  30.4112601   7.2889829  20.0866151  66.3898325  19.5756686  13.4628248
  65.9981775  19.1194093  12.7180660  66.9926071  18.9375794  13.8445795
  13.6128509  82.1741676  56.0308313  13.7590766  81.2288475  55.9957457
  13.6790204  82.4607372  55.1199341  27.4072790  20.2072048  30.3056049
  26.7530107  19.8907852  29.6826744  27.3955059  19.5628238  31.0133243
   9.6082366  13.1077230   4.9908689  10.0131357  13.5894156   5.7121611
   9.4119811  12.2460568   5.3586262  67.9944181  80.0929832   6.4967549
  67.2816038  80.7313633   6.5211147  68.7890625  80.6233978   6.4380825
  40.6188726  63.3493805  16.5519881  40.5224562  63.9370680  15.8026171
  41.5464258  63.1129932  16.5531993  34.9109435  38.5392880  58.2235336
  35.6289673  37.9099417  58.1557465  34.7091126  38.7709475  57.3169851
  63.8973427  33.2080197   1.5708461  63.9845181  32.2776532   1.3633579
  63.8884449  33.2402635   2.5274616  34.2761445  54.1782904  70.4456234
  33.9394736  53.8127756  71.2637186  34.3407869  53.4268332  69.8562479
  10.6446016  37.4643826  36.6984606  11.0837150  36.6146421  36.6616559
  11.3576806  38.1000519  36.7590618  56.4872599  77.5955105   8.3593923
  56.3252115  78.3537674   7.7981287  55.9042597  77.7225780   9.1078538
  64.8660898  35.4858947  44.3740082  64.0543652  35.8526301  44.7244930
  64.9375439  35.8586884  43.4952879  69.8661232  45.1186991  42.4341106
  70.5112696  45.7199049  42.0618582  70.0052118  45.1735115  43.3795643
   6.5291661  59.8850012  43.6045218   6.1857224  60.7783031  43.6217165
   7.4337792  59.9703550  43.9055538  29.3424320  46.3775969  10.5717468
  29.1515160  45.8677769   9.7844321  29.7407579  45.7487822  11.1735404
  30.6197810  19.5952034  60.6004667  31.5644503  19.7486997  60.6169510
  30.5290532  18.6484122  60.7081079  75.2136374  25.6864309  26.2916899
  75.8633614  25.8710027  25.6134391  75.5132437  24.8716855  26.6949987
  39.2214012  23.5044074  25.3222036  39.6484542  24.3463516  25.4802775
  39.1951132  23.0840588  26.1817670   6.4816344  35.8532023  70.6120920
   6.6456527  36.7762136  70.8054304   5.5743849  35.8297706  70.3078175
  42.8068495  23.8421106  50.0019598  42.6595211  24.3728542  49.2191219
  43.4856653  23.2184076  49.7442102  34.8996758  68.2095623  65.7452393
  34.0292406  68.2915783  65.3555679  35.4935980  68.5576582  65.0801706
   3.0601120  52.7806616  59.6174002   2.5388870  53.1409264  60.3348684
   3.9107168  52.5887108  60.0121880  56.0239887  50.4583359   0.1128663
  56.1255693  50.7549047   1.0172771  55.7171631  51.2320328  -0.3598706
  17.2992563  50.8014297  36.3409638  16.9645107  50.6821156  37.2297502
  17.9939485  50.1483011  36.2569785  91.2813091  42.9367685  23.9694548
  91.6915512  43.5481453  24.5811391  91.5327930  42.0710707  24.2912507
  88.0608654  55.9110498  25.8634090  87.5441837  56.7155647  25.8184052
  88.9669418  56.2118530  25.9325647   7.2909433  26.5777016  49.0399599
   7.6188362  26.4831877  48.1456566   6.3655204  26.7980170  48.9337301
  13.5068846  31.0295224  30.6047821  13.9468622  30.8095002  31.4259052
  12.7731931  30.4168200  30.5545330  57.1984196  68.1036043   6.8845385
  56.3772964  68.5234976   7.1408170  57.1654463  67.2408628   7.2978425
   3.2993087  27.5457835  54.4628525   2.3435280  27.5446057  54.5149422
   3.5885739  27.4183297  55.3663540  81.9275761  18.0912900  28.5347557
  82.5411606  17.7435684  29.1819286  82.4850082  18.4342539  27.8362751
  16.0165095  58.2893085  43.9482260  16.6230690  58.6054993  43.2786465
  15.5141819  57.6018047  43.5109234  44.8185492  48.9287090   3.2925636
  43.8833475  48.8581896   3.1010994  44.9068594  48.5898924   4.1834256
  38.4848261  32.4235368  48.9454412  38.4378409  33.3753943  49.0348196
  39.2601275  32.2716975  48.4049892  13.0018568  52.4719238   3.9537990
  12.6287556  52.1553755   3.1311062  12.2549248  52.5275469   4.5498112
  21.7065001   6.4572310  44.4881964  22.5573421   6.4356285  44.9261856
  21.0712528   6.5168351  45.2017403  36.2338233  24.2068720  44.9068642
  36.2185955  25.1360917  44.6776199  36.0355258  24.1878724  45.8431053
  16.2319541  26.2685919  31.2143445  15.6348431  26.8697762  31.6596174
  16.7820752  25.9156775  31.9136691  36.9736767  64.7912884  14.4215119
  37.1285439  65.3903913  13.6912227  37.7336931  64.9072456  14.9917424
  72.8916359  22.2115946  17.8730166  72.8374624  21.3134694  18.1996202
  72.3246574  22.2206306  17.1018600   2.0636162  60.5468655  27.0865512
   2.4192971  61.3932800  27.3573017   1.8940695  60.0846672  27.9074407
  44.3229532  44.5901728  12.8360689  44.1812563  45.0359297  13.6712050
  44.1758013  45.2669477  12.1753490  36.4257050  15.4417217  39.7458911
  37.1513414  15.0781476  39.2384505  36.7656636  16.2664974  40.0928879
   2.3212691  19.7865570  47.6658058   2.4027520  19.0808749  48.3073711
   2.1149951  19.3407261  46.8442726  43.0339575  22.8263664  46.8944645
  43.0080080  22.6207447  45.9599686  43.0394411  23.7829208  46.9291639
   9.8927414   2.3543875  66.0657263   9.1817808   1.7748910  65.7919550
   9.8860610   2.3065688  67.0217085  25.8105707  19.7676611  40.6231880
  26.2020350  19.0297043  41.0905266  26.5269303  20.3944683  40.5223322
  21.7219639  27.7580309  48.3498764  21.7785120  28.6297393  48.7412357
  22.6209641  27.4297166  48.3654594  12.7156365  29.8991466  50.1343966
  12.6892865  30.3767991  50.9634829  12.9888213  29.0142441  50.3763676
  28.3621955   4.5933461  65.3331518  29.2939782   4.7403049  65.4956818
  27.9168963   5.1631576  65.9602547  28.6259317  58.9475489  43.5608435
  28.3273268  58.8701868  42.6547098  28.8119602  58.0478191  43.8293695
  11.1124206  28.1563330  59.5643806  11.4454663  27.4872684  58.9663267
  11.8969142  28.5937309  59.8952627  81.4696217  72.8644896   7.7351809
  82.2846889  73.3657026   7.7612817  81.5292835  72.3520517   6.9289052
  85.6043530  14.8832774  57.5487280  85.6388474  14.0969884  57.0039415
  86.2045956  14.7003663  58.2715559   1.8913808  22.1572638  58.5781145
   1.1175176  22.7188444  58.5334444   2.6225296  22.7652645  58.6876154
  46.3560057  18.3175480  57.9984903  45.6797600  17.8043532  58.4407091
  46.0870075  18.3272004  57.0799160  33.7868094  42.3047352  53.8675547
  33.8572407  41.4251757  54.2385674  32.9058194  42.3375702  53.4947157
   4.2782950  70.0704288  56.7632103   5.2305388  70.0791264  56.8600988
   4.0183860  69.1888380  57.0305681  51.7258024  24.5486426  45.9370995
  52.3623466  25.1701379  45.5838490  50.9203005  25.0573874  46.0296869
   7.1691471   0.5547411  55.2530670   7.0555317  -0.3843161  55.1064587
   7.9065424   0.6148412  55.8604145  26.2285137  10.8932769  19.8796475
  26.0761976  10.0796235  19.3990242  26.2587905  11.5692806  19.2026436
  19.6686947  35.1527166  57.0730495  20.2867484  34.7572446  57.6877403
  18.8194156  34.7849584  57.3174047   9.3933821  40.0514078  52.4442530
   9.7455943  40.6960773  53.0579138   9.4754493  40.4676914  51.5862322
  69.7786951  53.4219360   1.7934002  68.9212513  53.0490494   1.9982852
  69.5989227  54.3408060   1.5944263  12.8631139  47.1583939  63.1393671
  11.9308054  47.2053337  62.9276371  13.1940138  46.4364100  62.6050663
  58.3868313  24.8021841  11.6559649  57.8972483  24.6528935  10.8471060
  59.1734886  24.2649221  11.5624189  15.8946466  34.5124769  13.9741647
  15.2231479  35.1454210  13.7197959  15.7630134  34.3883586  14.9141109
  83.6058903  69.2200327  57.5703192  83.0038548  69.4575739  56.8650913
  83.0809879  68.6808109  58.1618834  20.6894016  33.3549237   4.6450242
  21.0862041  32.5063515   4.4482920  21.2116027  33.7015581   5.3684765
  27.4788046  34.0772557  23.1177521  26.9866848  34.1515684  23.9353871
  28.2997417  33.6545014  23.3698845  26.9582772  27.4690008  17.7939236
  26.3298488  26.7475271  17.8219271  26.7772269  27.9752088  18.5858870
  21.4423442  31.9349003  33.1249571  21.1341667  31.0359669  33.0101824
  22.3793745  31.8464422  33.2992697  17.1380055  19.5648575  42.7349997
  16.3540411  20.0649357  42.9620504  17.5864196  19.4303083  43.5698986
  31.9075441   8.7040782  61.1930132  32.8071475   8.6374712  61.5131855
  31.7882800   7.9249060  60.6499672  76.3801908  37.1226239  46.0892963
  76.0163260  36.3226104  46.4685202  75.6930685  37.4453330  45.5062389
  14.1790247  41.8859863  22.3271680  15.0948083  41.6082001  22.3069882
  13.8544750  41.7054415  21.4449525  38.1558418  71.6888094  70.9610558
  38.8248348  72.3474121  71.1479282  37.9093647  71.8495178  70.0502014
  15.0321817  84.8025799  23.7435579  15.7021356  85.4020882  24.0721512
  14.6827900  84.3804455  24.5283914  11.4933789   6.5406108  44.6719360
  10.9779716   6.1099201  43.9899588  11.6143298   7.4346459  44.3520832
  35.3404689   6.2588489  38.8762665  36.1401725   6.4155942  39.3783998
  35.6260037   5.7331508  38.1290436  27.5566888  68.9798260  62.6861763
  27.4598312  68.8607025  61.7413664  26.7100692  68.7187529  63.0485392
  32.8738451  39.0450120  28.2658792  32.5629354  38.2459092  28.6913228
  32.7107644  38.8992310  27.3340082  29.4076395  23.2434964  29.2507219
  29.1330457  22.9867744  30.1310205  29.6995497  24.1501355  29.3457460
  85.9948921  51.6670275  64.4176531  86.7919350  51.7353916  64.9432898
  86.0351467  52.4160671  63.8230467  19.9733758  44.1992092  19.6062398
  20.6931973  43.7716055  19.1422963  20.3983283  44.8677444  20.1435518
  53.8747263   5.2608073  72.2750616  53.9175320   5.2908218  73.2308340
  53.0032778   4.9133399  72.0851326  71.7593813  78.6633348  35.1866388
  72.2249746  79.4981146  35.1356077  72.4344397  78.0027008  35.0314379
  12.7613723  33.4163022  51.3604450  12.4803793  34.0867901  51.9831133
  12.6596129  32.5911736  51.8348265  69.5034313  38.0401707  63.8183737
  69.9381638  37.5833297  64.5384645  69.7647142  38.9550900  63.9226961
   1.2677942  43.2656431  55.1616430   1.8330365  42.6292944  54.7236967
   1.7076460  44.1058540  55.0319862  23.8172603  28.6662865  59.1095829
  23.5435152  29.5457387  58.8490868  24.7604537  28.6510730  58.9471436
  16.1434793  49.1855431  54.3398094  16.3782716  48.9381409  53.4454393
  15.3929162  49.7706652  54.2372513  86.3748550  10.6854117  21.5327835
  87.2941971  10.8515406  21.3243532  85.9335423  11.5141869  21.3467550
  54.6189070  16.0073924  45.2924395  55.1310968  16.7956710  45.1121330
  54.1287947  16.2168705  46.0875130  49.0577030  25.3577685  12.0849621
  48.3043337  25.4819179  11.5076816  49.2368793  24.4182873  12.0462275
  15.1137865  35.9213686  33.9519882  14.8490453  35.1343822  33.4757543
  15.6136060  35.5924296  34.6991205  25.2406573  51.1338139  24.5815539
  24.5829153  50.5194235  24.9073339  26.0603499  50.6399059  24.6012950
   1.2543488  28.8849378  13.0514622   1.1111265  28.1505227  13.6484146
   0.3745250  29.1983509  12.8419054  75.8748817  24.2794847  20.9754300
  74.9431658  24.4402409  21.1247396  75.9043503  23.7847257  20.1565409
  83.7736225  33.4027433  73.6376572  84.0030003  32.8770351  72.8713322
  82.9686832  33.0046105  73.9690113   7.7949464  38.8758349  58.9903450
   8.2160789  38.6250138  59.8125172   7.5163233  38.0468273  58.6013079
  13.5471857  25.6948614  30.3039837  13.2775676  25.8913851  29.4068122
  14.4988155  25.6047773  30.2538037  19.7027135  45.9230947  42.1189356
  20.6176209  46.0895014  42.3458385  19.6163392  44.9704981  42.1554422
  17.8453648  18.2951856  38.9185500  18.4079397  18.4473622  38.1592202
  18.3217192  17.6529217  39.4446826  85.1674557  49.2301750  35.8973670
  85.9483147  49.2663002  36.4498019  85.0854492  48.3068466  35.6586623
  42.0997000  85.2310085   9.5121419  42.3818207  85.8981514   8.8863915
  41.6087532  84.6006107   8.9850760   7.9738402  23.9997602  22.9795337
   8.4498894  23.5150051  23.6537886   7.5961667  23.3220410  22.4189162
  75.7599401  16.2576103  44.5032501  75.7216597  16.6775227  45.3625774
  75.0143719  15.6573498  44.4965649  47.2001696  20.1099229  39.6679425
  47.5775290  19.4281065  40.2237844  47.0241928  19.6705174  38.8359642
  18.0434775  40.1626301  52.0886135  18.1747615  40.7957220  52.7944422
  18.9102280  39.7836471  51.9425154  26.4477563  29.4167590  48.9869070
  26.6507030  30.2424884  49.4264650  26.4047813  29.6441078  48.0580902
  28.3195424   8.8432819  62.9630756  28.3919096   9.1117966  62.0471621
  27.3831797   8.8955331  63.1547213  44.2442608   7.4491262  52.2797966
  45.0868559   7.0689690  52.0313168  44.2997360   8.3612961  51.9950151
  91.1715317  34.9971867  61.8409014  91.9475842  34.5959640  62.2320461
  90.7355404  35.4368877  62.5708389  33.9354348  32.8079700  12.4742389
  34.2398071  32.0695662  11.9466531  34.6844578  33.0328488  13.0261695
   7.2391158  59.8584461  51.3516378   7.3029530  58.9743233  50.9904099
   6.3453478  60.1355600  51.1501026  10.0692511  29.8167539  48.7777281
  10.5586863  29.7354364  49.5963097   9.7198945  30.7077527  48.7950516
  38.3996773  29.4793963  48.8876629  38.8548183  29.1686559  49.6703005
  38.3884978  30.4321146  48.9795017  37.8333139  28.3211231  68.1362200
  38.1188059  28.4946513  69.0332222  37.2810197  29.0699410  67.9115534
  20.1521802  -0.1669685   4.8107040  20.1761222   0.1930226   3.9241010
  19.5281196   0.3884299   5.2779460  51.0032129  60.8837223  41.3987589
  51.9352245  60.7425642  41.2324429  50.8570194  60.5158186  42.2702551
   7.5941765  55.7099628  57.2004604   7.5830168  56.6652918  57.1416998
   8.1220096  55.4301500  56.4525795  66.1293888   5.9094846  33.5105944
  67.0841169   5.9390724  33.5727024  65.8751059   5.1799542  34.0757108
  19.0706813  71.1572266  31.9175148  18.9737868  71.8376923  32.5837064
  19.5355773  70.4495096  32.3638773   8.2601553  37.0163441  38.1022120
   7.6544017  37.3598385  37.4454713   9.1258639  37.1207023  37.7073836
  24.2581153  44.2825127  39.8678708  24.5962524  44.8327446  39.1613698
  24.4797540  44.7578096  40.6686211  23.6288786  31.2714434  34.9385595
  24.5575762  31.4632010  34.8082423  23.3937836  31.7533255  35.7314968
  14.0836227  44.7664642  31.3730168  15.0190973  44.6358299  31.5281105
  14.0441942  45.4701328  30.7253075   9.5300847  31.1251259  54.2638254
  10.4117787  31.1784577  53.8950396   9.2162156  30.2573228  54.0095854
  18.8803446  66.4303398  41.8056965  19.4056153  66.1599398  41.0525656
  18.6661291  67.3468781  41.6316319   0.3681068  48.3585739  48.2548237
   1.0017234  48.1784439  47.5603390  -0.0505983  47.5141859  48.4219456
  14.5707107  26.6394615  66.1005116  13.8630795  26.1696434  66.5418291
  14.4960344  26.3778639  65.1827860  89.4545269  52.0076036  68.9593410
  90.2134228  52.4780369  68.6143780  89.8171425  51.1965179  69.3155575
  38.2881713  12.8841436  50.4228306  38.5523868  11.9661260  50.4833651
  37.3690677  12.8518510  50.1574278  86.8056870  80.9895134  46.8987799
  86.5646935  81.8704700  46.6123009  86.8009949  81.0388374  47.8546953
  22.8063250  40.6159544  60.6316757  22.4031258  39.9614716  60.0613117
  23.6521435  40.2368832  60.8706903   6.8360019  33.9273882  56.0024405
   7.7467495  33.8683653  55.7138443   6.4109445  33.1639862  55.6115723
  11.5730715  15.9941089  11.8045878  12.2524512  15.3225541  11.8653154
  10.7672310  15.5051863  11.6378295   4.2385384  29.9980974  31.5607810
   3.4746677  29.7200227  32.0661616   4.0151754  30.8764505  31.2528276
  20.5967140  80.6801701  51.7503262  20.8133411  80.4027176  52.6404524
  21.4386439  80.7050037  51.2956095  31.8950796  85.2561569  44.1735554
  31.2879562  85.6724930  44.7853518  31.3532281  84.6403599  43.6801720
  61.4544535  84.5557213  14.5518029  62.3402691  84.5922089  14.1909349
  61.0073042  83.8951588  14.0226960  12.5775921  79.4820166  52.9679394
  11.7969763  80.0359535  52.9625988  12.6263952  79.1455412  53.8627195
  66.0323143  79.4397449  17.7445829  66.7178440  79.1471577  17.1440220
  65.3224421  79.7327995  17.1732438  28.3506346  39.9085736  50.5909014
  28.1423378  39.8155975  49.6612787  29.1816449  40.3834295  50.6038237
  71.1574078  16.4657879   9.1116136  71.9957924  16.2251163   8.7173837
  70.9880638  17.3520160   8.7919980  32.7618170  62.4492168  71.5955162
  32.5485325  63.1684017  71.0009432  32.1151114  61.7726803  71.3947630
   9.5065540  80.9006691  50.1267767   9.4749576  81.8111897  49.8331785
  10.4406917  80.7034588  50.1955080   3.9528471  41.9844770  67.7763224
   4.5612949  42.5053072  68.3004999   3.2699847  41.7211485  68.3932400
  20.5557990  45.4456902  16.1234927  20.2213407  45.8001518  16.9473398
  21.3290405  45.9760237  15.9309483  15.0072289  20.9812856  57.5779200
  14.8057139  21.7193937  58.1530905  14.2584360  20.3925586  57.6724863
  13.9898014  47.2083426  48.5400057  13.0595195  46.9989634  48.4565306
  14.0685582  47.6080418  49.4061899  71.8131733  13.7985468   4.6878383
  71.7855024  14.7553396   4.6914190  72.2769165  13.5693300   5.4932165
  13.0617738  53.4521437  35.1613903  12.9625821  54.1200209  35.8398676
  13.5780346  53.8796997  34.4780874  91.2610912  40.8877754  38.0593586
  91.8572426  41.1465216  37.3565841  91.6488838  41.2597609  38.8514900
  33.8493228  32.8443074  62.8798103  34.4393015  33.1053519  63.5869265
  33.1045294  33.4406114  62.9568720  23.2883859  49.6928358  25.8766341
  22.9634237  48.8711977  26.2447953  22.7095413  50.3633451  26.2393856
   1.3109945  29.7277308  63.5080290   1.0680674  29.5845056  64.4227457
   2.1870054  30.1112247  63.5500908  28.1685328  57.1684122  29.7747326
  27.5687313  56.7282057  30.3769660  28.4196663  56.4897871  29.1481256
  -0.1514936  41.4579391  44.2224455  -0.5874294  42.0899582  44.7940588
   0.7608789  41.4627123  44.5119047  44.1218090  18.6015046  49.3771076
  44.5787430  18.4218359  48.5554218  43.3502245  18.0356431  49.3507814
  38.1085134  55.1005745   2.7948031  38.2727766  54.7085905   1.9371338
  37.4516535  54.5317364   3.1962872  14.7797823  59.4901133  59.6756601
  14.7392082  58.8812351  58.9381933  15.6891191  59.7886610  59.6900129
  13.1872439  64.1828489  61.7075777  13.6526501  64.7215271  61.0676908
  13.8377476  64.0008497  62.3857737   9.4070596  41.6053200  64.1560745
   8.7795764  41.2650251  63.5183477   8.8776648  41.8115187  64.9264336
   7.5067538  41.4464188  40.7135153   7.8202033  40.6306648  41.1040640
   8.2258731  41.7346382  40.1513577  88.9285755  56.5187693  38.2475305
  89.1226959  56.4373541  37.3137641  89.7783279  56.4243793  38.6779380
  11.9674301  44.5767212  45.1696491  12.6826668  44.2297459  45.7028246
  12.0702326  44.1456413  44.3212175  21.8383098  53.5470390  48.3640242
  21.9135690  54.2991114  48.9513493  22.5146127  52.9399157  48.6644411
  19.6370530  78.1893778  56.6141319  19.3219554  78.6901808  55.8617067
  19.0707123  77.4182272  56.6427326  12.4096441  78.8914728  67.3149490
  11.4633477  78.9162350  67.4568701  12.6099658  77.9628992  67.1972466
  22.4417853  15.2661526  44.5929146  22.1699023  14.3583643  44.4578886
  23.3633256  15.2052796  44.8444891  20.5942941  80.7794094  18.9081824
  21.2389636  81.3350105  19.3462908  19.7508287  81.0757637  19.2501950
  52.0121431  64.4277096  46.5895605  51.8547010  65.2185917  46.0738564
  52.8686142  64.5709229  46.9922733  30.0029826  11.6667998  24.0870285
  30.5875754  12.3080087  24.4911742  30.0717950  11.8384624  23.1478643
  39.8638988   1.8700409  20.4782534  39.0556264   2.3806617  20.5251026
  39.7425723   1.1701409  21.1198545  11.9488394  35.8286548  62.1802521
  12.0670259  35.8924890  61.2325239  12.6787663  35.2849245  62.4765635
  28.3046508  42.7413511   6.5146834  27.4353790  42.6696873   6.9089746
  28.5433531  41.8406105   6.2957764  87.0534325  57.1006250   5.3154892
  86.8176556  56.5973759   4.5361412  87.4232483  56.4532518   5.9158033
  40.8411407  76.5250731  56.5141439  40.1395321  76.1718702  55.9671307
  40.3872490  76.9381666  57.2486973  18.7821198  46.5715933  50.2066422
  18.2296562  46.1850214  49.5272446  19.2927253  45.8369255  50.5468988
  72.7935266  10.6227195  50.2496195  73.0031681  10.4781771  49.3269110
  72.2478342   9.8743713  50.4913282  14.0391874  22.0951796   2.2506392
  13.7340856  22.2145033   1.3512468  14.9675345  22.3265696   2.2213203
  20.1470923  73.5984230  55.5761480  20.6071329  74.1454935  54.9395132
  19.2213988  73.8017797  55.4420948  40.0271225  78.1592369  58.6641407
  39.2028618  78.6457300  58.6517429  40.3347540  78.2322264  59.5676184
  63.6219978  63.5062170  48.0152798  63.5349131  63.6315727  48.9602327
  64.4644117  63.9050722  47.7973843  49.1361380  72.7319765  48.2088184
  49.4688416  72.3639202  47.3902416  49.8574495  73.2657194  48.5420752
   3.6508757  68.1501770  51.3875008   2.9194415  68.7644434  51.3249731
   3.3425564  67.4708748  51.9872665  38.4248233  63.5650682  44.0063429
  37.9183006  64.3582296  44.1811466  37.9338861  63.1138515  43.3195972
   2.9821903  55.5447531  54.8037958   2.7415538  56.4639378  54.9196577
   3.6286560  55.3781080  55.4897594  57.7345896  70.1995754  57.1944618
  57.8601027  71.0048771  56.6925049  58.6215687  69.8812103  57.3622227
  37.8908563  56.8686247  66.0892391  37.8205180  56.1574364  66.7260265
  37.6364660  57.6523352  66.5763903  73.5997963  81.1509895  31.1852813
  74.3295908  80.8833027  30.6267285  73.7197685  80.6505108  31.9923472
  45.2844572  52.4348307  70.0954485  45.0856781  51.5281391  70.3291798
  45.4544449  52.8662825  70.9328175  38.1847487  63.5664515   0.8314668
  38.8169943  62.9824881   0.4125558  38.0027924  64.2354683   0.1715098
  59.8454571   4.5683983  68.4530067  59.8180008   3.6560494  68.7412691
  58.9603853   4.7456837  68.1344891  71.5083551  79.2245293  26.2126040
  70.9874487  79.9511814  25.8707523  71.9025850  79.5686817  27.0140839
  10.3487802   5.4760426  24.6897840  10.7652938   4.6188086  24.6009159
   9.4937146   5.3712815  24.2725062  20.6878209  44.2597008  67.7052259
  20.8202982  44.7620249  66.9012642  19.7368681  44.2081690  67.8014898
  17.3337996  11.6067159  34.7574949  17.0119274  11.9706488  33.9327621
  17.5662994  10.7026374  34.5457911  35.4806828  58.8943768  61.3003063
  36.1281204  59.5541382  61.5488434  34.7663593  59.0119648  61.9265270
  17.4705410  10.4034972  30.7309055  17.1612644  10.1003814  29.8772645
  16.7902708  10.1260102  31.3444710  64.7693729  64.4579554  28.0052280
  65.1904106  64.9527121  27.3022532  64.1395760  65.0704718  28.3852386
  13.3261454  73.0554438  45.3168011  13.4356308  73.1822348  46.2592316
  13.9009643  72.3197317  45.1057386  67.8883505  -0.1164744  35.7346869
  68.2066584   0.5653407  36.3263273  68.2220888   0.1379814  34.8743939
  84.1539669  15.2806985   2.0228358  83.8842106  15.7533693   1.2354057
  83.5543633  15.5869329   2.7032214  38.7993646  76.9553661  28.4805489
  37.8617930  76.7999935  28.5948038  38.8533521  77.5622511  27.7423024
  16.0844517  55.1009035  61.3065720  16.6026163  54.3137932  61.4744759
  15.7659125  55.3665018  62.1692514  83.1965256   1.4374030  38.7073302
  82.3247814   1.4363709  38.3119917  83.1092262   0.8808574  39.4811940
  25.9826303  48.1228447  55.2422190  26.3922048  48.8800955  54.8238230
  26.7050385  47.6694012  55.6766653  33.2305074  78.2325125  40.8183241
  33.8593554  77.9761410  41.4929008  33.4688258  77.7051449  40.0558805
  58.8930511   4.3947244  59.6023989  59.1529369   5.2641267  59.2977238
  58.2512617   4.0969336  58.9576817  50.9710550  78.7009907  54.1493034
  50.0950384  78.8309574  54.5125389  50.8627748  77.9982805  53.5084391
  56.6118145  56.6758871  26.7452192  56.1499882  57.3534727  26.2514329
  56.0420179  55.9087563  26.6897583  62.5615025  63.7016058  35.0380015
  63.2065296  63.5813284  34.3410730  62.4733686  62.8350544  35.4349375
  84.9837303  36.2879872   3.1170413  84.0877724  35.9647655   3.0220520
  85.0779247  36.9402075   2.4228020  73.4551334  56.1750460  37.4535418
  73.5023117  55.5252647  38.1548190  74.1441154  55.9170341  36.8412018
  86.7992783   2.1426769  10.5539358  87.2162247   1.2856428  10.6426990
  87.3402214   2.7282289  11.0837829  36.4844918  65.1031399  49.0655136
  37.0003605  65.9046507  48.9777946  35.9269691  65.2593565  49.8277426
  43.5870361  45.3115559  62.5673676  43.9147949  44.7517920  61.8634748
  42.8943777  44.7960281  62.9805136  23.0989075   1.8526967   7.8918761
  23.8825464   1.9295391   8.4361523  22.8457379   0.9324915   7.9650819
  48.3947563  51.7186308  43.7017822  49.0123367  51.1361551  44.1439915
  48.2950974  52.4599838  44.2990255  56.4510345  51.1854124  29.7525692
  57.1558905  51.3152885  29.1181087  55.7524586  51.7694426  29.4573855
  89.2110157  60.9399080  61.0983992  89.0728760  61.8208647  61.4463377
  90.1441193  60.9094048  60.8871746   1.2711510  53.8951969  14.2828560
   1.2757502  53.3621645  13.4878159   0.9268323  54.7426939  14.0010285
  35.5321479  78.4192276  71.1140251  36.1388397  77.7335978  71.3934326
  35.5378866  79.0515327  71.8326235  70.5043316  75.2423859  26.2547708
  69.7447109  75.8237648  26.2199950  70.9953308  75.5354929  27.0223856
  10.9737015  77.9829836  44.1679811  10.0920081  77.6218939  44.2599821
  11.5529668  77.2261953  44.2571735  46.9985485  69.8598289  20.6125998
  47.8853035  69.7898912  20.9661627  46.4308786  69.8343849  21.3828826
  38.8207293  84.4075966  31.3530803  39.2956638  84.8581314  30.6547403
  38.6698484  83.5266590  31.0104156  56.4743280  43.2952070  42.1385193
  57.1452951  42.7807951  41.6897345  56.9494438  43.7591696  42.8278923
  30.2873278  56.0433722  70.2271128  30.1512313  55.1130056  70.4063654
  30.6162381  56.0685539  69.3285465  53.2558203  66.2749481  27.9264617
  52.4673796  65.7957458  28.1813312  53.7675142  65.6429195  27.4215364
  63.5590219  10.7525766  70.9755898  63.3463192  11.1666024  71.8119955
  63.9524317   9.9139220  71.2166691  50.1706409  64.6695852   9.1067582
  49.6133757  64.4374752   9.8495984  49.7955894  65.4838085   8.7711883
  14.4488990  49.8570108  69.5122147  15.2437449  50.3498745  69.7160196
  14.5047653  49.0747929  70.0610733  21.2263823  39.4779086  38.2705498
  20.9933662  38.5925388  38.5499382  20.6689763  39.6436286  37.5102425
  60.9676933  67.0420837  34.5227051  61.3541222  67.3447180  33.7009287
  60.2670193  66.4481163  34.2534661  40.8177662  50.3533077  59.7688961
  40.5966663  51.2706327  59.6080685  41.7048883  50.3800583  60.1274061
  68.0280590  58.1696606  45.7604551  68.2241058  57.9224491  46.6641617
  68.1335974  57.3592186  45.2621746   7.2874558  73.4171438  48.0812025
   6.9236326  74.2864847  48.2488823   7.1037066  73.2549953  47.1559048
  37.3092461  73.9896870  36.8299603  37.1941853  74.6298313  36.1276746
  37.8389454  73.2958651  36.4371943  49.6766186  49.9098730  38.9909887
  50.1201677  50.1103497  39.8151875  49.2793989  49.0510559  39.1354871
  33.0029249  48.9938354  64.1002417  33.1947494  48.4496546  64.8639822
  32.0782256  48.8296223  63.9153099  18.9423692  71.4538670  20.8688736
  18.4472954  70.6427336  20.9837508  18.2771552  72.1158218  20.6803608
  38.6147809  82.2574329  52.4123859  38.6681747  81.5429592  51.7776346
  39.3519354  82.1075344  53.0043030  86.6057110  18.7278879  48.9129972
  86.3619995  19.2618823  49.6690941  87.5537968  18.6213505  48.9906216
  38.3592677  57.3624563  54.5613861  38.8449407  58.1431532  54.8275900
  37.6539612  57.2883606  55.2042580  57.3373127  68.1639385  49.5487309
  57.7845001  68.8003731  50.1065922  58.0267286  67.8139210  48.9844418
   2.4978761  42.2236776   6.8563938   3.0695206  41.4568472   6.8941575
   2.4807459  42.5541115   7.7545869  23.5373640  59.9983358  52.9712439
  23.3062172  59.6045589  52.1299696  23.8693714  60.8673382  52.7457762
  25.6562519  75.0625896  20.9591389  25.3646803  75.9485960  21.1741066
  26.5749145  75.1663351  20.7110906  46.9541788  50.0313711  47.6871347
  46.1680126  50.3257656  48.1470346  46.7270041  50.0951481  46.7594719
  40.7884693  83.7497616  43.5656834  41.5758896  84.2917728  43.6148930
  40.0835466  84.3682861  43.3739948  50.8803368  47.0286131  46.0141373
  51.7064238  47.0733547  45.5326748  51.1170149  46.6511297  46.8613195
  44.4896078  65.4863501  39.2298341  43.7325525  64.9592686  38.9743280
  44.6391726  65.2613497  40.1481152  73.3026981  67.8064108  59.9765539
  73.1030273  66.9805717  60.4174089  72.6411533  67.8765678  59.2883158
  67.9640102  17.5103939  59.3630266  67.6047039  17.0871353  60.1427603
  68.4254313  16.8101549  58.9015198  35.5020976  56.8851852  58.9812708
  35.5646467  57.4666262  59.7390604  35.7629919  57.4302816  58.2389498
  52.3111343  68.9383411  62.8352404  51.3952351  69.1343546  62.6379251
  52.7146482  68.7927914  61.9795418  47.8676224  71.2147570  36.9942975
  46.9665051  71.0154676  37.2482634  48.2487440  71.6286707  37.7686691
  61.4916277  84.4946098  52.1301079  61.2879181  83.6214828  51.7948532
  61.3817406  85.0726986  51.3751459  48.9180040  68.5322475  36.6933227
  48.4553385  69.3321276  36.9430399  49.7257566  68.5526323  37.2065043
  21.3248445  85.7034922  28.0369687  22.2161295  85.5979572  28.3696890
  20.7750131  85.7025513  28.8205004  57.1430588  42.6846743  46.8274689
  57.6404572  43.2863712  47.3813534  56.8328238  43.2273865  46.1025906
  41.6761398  21.1338902  16.4389360  41.6581583  20.2278972  16.1305797
  42.4120474  21.1642575  17.0502877   0.7602458  16.4933538  71.4060831
   0.1302510  17.1739340  71.6430426   1.4116970  16.9460273  70.8704233
  48.2654524  77.7783680  38.8753843  47.3271084  77.5923252  38.9090419
  48.6649799  77.0923471  39.4101644  28.9614105  72.2803879  51.9773674
  28.6440420  71.7114735  51.2760496  29.9149632  72.2440386  51.9022465
  49.0742970  64.4848347  15.7196188  48.2821894  64.9487305  15.4483259
  49.1796160  64.7109032  16.6437566   4.8026478   3.7156293  57.5790119
   4.9063078   3.1009752  58.3054304   5.6503689   3.7063476  57.1345854
  17.3182344   1.7743112  33.6687350  16.8104804   1.9184868  34.4672513
  17.1961737   0.8455979  33.4716940  71.2674046  56.4988184  13.8533497
  71.8643236  56.4972687  14.6016264  71.6225529  57.1651411  13.2650352
  40.7944584  73.8801527  33.8190126  40.4231310  74.7543526  33.7001848
  40.9604549  73.5675240  32.9296637  55.3067064  75.3123331  21.8858671
  55.4293156  76.1170197  21.3822031  55.9489059  75.3722525  22.5931287
  45.7665253  58.1628513  55.5458164  45.9858227  59.0288830  55.2021170
  46.2756205  58.0895901  56.3530874  39.2144346  61.8283844  66.1164331
  38.8262939  61.5963650  66.9600821  39.7561121  62.5947952  66.3046741
  68.4255934  81.6062546  50.7107258  67.6420307  82.1546841  50.7492352
  68.0939722  80.7102776  50.7697439  17.9450810  53.3538055   5.2283311
  18.5820282  52.6574516   5.0682521  18.3703375  54.1469622   4.9023086
   3.5599613   4.3266436  48.2645464   3.3942118   5.1630998  47.8296900
   3.3665952   3.6676210  47.5978136  52.0818901  81.4082527  55.4555655
  52.1404409  80.4637623  55.5995703  51.1690092  81.6235352  55.6467056
  48.7483597  74.9785089  24.8599029  48.4761810  75.5507374  24.1424727
  49.3689680  75.5048990  25.3638721  12.2826958  44.8917961  41.4168119
  12.8808260  45.3273058  42.0241022  12.6654100  45.0445032  40.5528450
  40.2252197  58.2095909  11.1626387  39.8957634  58.9869547  11.6136301
  40.6920099  57.7197218  11.8396664   4.5669305  62.0136738  46.4820242
   4.7232029  62.6642609  45.7975149   3.6605236  62.1623850  46.7513609
  54.7000408  53.9347506  47.6079845  54.2327023  53.8754416  48.4412336
  55.1501560  54.7786903  47.6453638  81.5324593   1.5030617  58.4646511
  82.3392773   0.9898741  58.5083103  81.8075371   2.3988754  58.6597967
  61.9864273  76.0015297  40.5741930  62.1007061  76.9414711  40.7144833
  61.7592049  75.9235382  39.6476316  31.2442636  59.5434618  54.5546627
  30.6987429  60.2861166  54.2956257  31.1402893  59.4897461  55.5046844
  19.0418541  74.6754932  29.1128397  18.4593844  73.9174175  29.1606045
  19.4596505  74.6028328  28.2547021   4.2325771  68.6580420  17.2554898
   4.1263032  68.5290098  16.3129985   3.8537616  69.5209217  17.4233210
  67.1306610  60.2317286  49.6154213  66.4643621  60.3500700  50.2923822
  66.6326380  60.1304245  48.8042879  14.1311979   9.4541484  65.0028181
  13.2559013   9.6391684  65.3431940  13.9754844   8.9680052  64.1930962
  39.0111279  57.0050287   4.5989323  38.5475254  56.4855719   3.9420706
  39.9326420  56.7755127   4.4790697  46.8648386  84.9351120  31.4625645
  46.3888597  85.5322838  30.8854532  46.3029337  84.8474026  32.2325015
  69.6079350  50.1585054   3.6977783  69.7718668  49.8275089   2.8147164
  68.7413025  50.5615377   3.6454493  26.5798974  51.9431639  70.2840328
  27.2670126  52.6081896  70.2410746  26.0368228  52.2075081  71.0266161
  85.8872509  17.4865925  63.4834719  86.4948845  17.0486939  62.8874350
  85.0616932  17.0148969  63.3730412  50.5145311  70.2441120  59.0618181
  50.7406950  69.4537067  58.5715771  51.2626648  70.8274078  58.9341736
  62.1338987  63.7494898  41.6234398  61.4007092  63.5932541  42.2186327
  61.8053102  63.4852457  40.7641172  46.0248375  72.1470261  47.3582506
  46.0195541  71.7260027  46.4986324  46.8957758  72.5379324  47.4281406
  60.5337000  73.3159590  51.1861610  60.6738281  73.7292194  52.0381069
  61.1992693  72.6295376  51.1405563   8.6815584   1.6299871  13.9513850
   8.4720647   2.5304782  14.1992962   8.0355567   1.0973777  14.4153261
  56.7741680  27.2025108  44.7683811  56.1432838  27.0218420  45.4652119
  57.6290035  27.0957136  45.1856136   1.4923868  77.2148323  11.5513098
   1.9748323  76.9706011  10.7614815   0.5782516  77.0222330  11.3427579
  12.9941571  24.6862817  49.2663336  12.4230957  24.5447350  48.5112906
  12.8100288  23.9483857  49.8475695  51.9515562  68.4701252  20.1107121
  52.5176764  69.2311907  19.9822068  52.5350475  67.7925158  20.4521918
  43.6089754  86.1726475  66.1126566  43.1501579  85.3481865  66.2738562
  42.9432535  86.7473030  65.7347536  24.5371366  72.3632574  53.3162594
  23.6115813  72.1294785  53.3864689  24.6148467  73.1829023  53.8044930
  68.4302616  49.0951538  23.6281395  67.8089380  49.3448544  24.3121266
  67.8969145  49.0164232  22.8372097  49.6667290  60.8217907  38.9848900
  49.4793224  61.7286968  38.7427497  49.9012423  60.8649683  39.9119115
  39.0662193  71.9273472  48.4890509  39.3786979  72.6601219  47.9583645
  38.1166267  72.0432043  48.5219002  42.2364712  77.1352863  64.4330120
  42.8773260  77.3250341  63.7477875  41.8967152  77.9932356  64.6874142
  56.2265539  71.1595869  46.5394258  56.2180233  70.5946159  45.7667923
  57.1488571  71.3848829  46.6612244  54.4138861  85.5838013  63.3595037
  54.5589828  85.6547832  62.4160337  54.5253992  84.6523190  63.5495758
  71.1567688  48.4059381  39.5886350  71.8424320  48.0617237  40.1610136
  70.7984495  47.6329041  39.1524482  15.5744934  73.3408594  51.8117189
  16.3888550  73.6690092  51.4304543  15.4886901  72.4526739  51.4653111
  37.8374505  67.0750475  47.3547649  36.9267416  67.3190832  47.5199556
  38.3458424  67.8267813  47.6591682  73.5014391  71.1729956  37.5659013
  72.6720142  71.3156700  37.1099138  73.8252640  72.0536375  37.7552056
  61.6251564  66.0127211  56.5350437  61.4796495  66.0485268  57.4804401
  60.8366966  66.4016151  56.1564636  41.4012623  80.9398365  34.8433614
  41.1059284  81.1670589  33.9616680  40.7906580  80.2620792  35.1332521
  89.6033192   4.9874431  55.6040144  89.2628288   5.2566469  54.7508860
  90.0152779   4.1390231  55.4406071  62.4013901  57.0025682  44.0613937
  62.6716232  57.1636724  44.9654150  62.6549482  57.7964306  43.5905266
  11.1901045  22.2816586  58.5007572  10.9269536  21.4690661  58.9328241
  10.7926261  22.2303224  57.6315022   1.5160394   2.0357169  68.6333227
   0.8193856   2.6856411  68.5411072   1.1589297   1.2432893  68.2323694
  51.2580204  73.5633039  32.9093051  51.1912727  74.3707609  32.3996091
  51.2924528  72.8677130  32.2526455  68.5152006  15.4544163  57.6679754
  68.4880447  14.5210135  57.8783417  67.6227617  15.6639051  57.3924685
   2.1142180  77.7701187  23.9606667   2.6379782  77.1846342  24.5075798
   1.5530242  77.1846771  23.4521842  67.9401588  76.9116974  27.3242259
  67.3868465  76.5728045  26.6205001  68.0952454  77.8261518  27.0877004
   8.8907886   2.3509972   0.9702724   9.0203482   2.5759095   1.8916088
   8.9736217   1.3977930   0.9424812  27.2052503  27.9624057  31.7961216
  27.6413417  27.4133658  32.4477458  26.7232633  28.6090279  32.3116803
  59.8107290  74.6657753  42.3426247  59.4771814  73.8138866  42.0610857
  60.6797600  74.7257614  41.9458580   6.0329628  13.3292258  28.3803988
   6.2082517  13.2717049  29.3196535   5.1607621  13.7193537  28.3229780
  26.6438913  68.2751942  36.2317061  26.0239697  68.1935406  36.9564533
  26.5661693  67.4483633  35.7557392   2.1500935  16.2953901  31.8506217
   2.2547239  16.7087114  30.9936190   1.6963717  16.9517851  32.3793125
   5.1205069  10.7026803  34.5323992   4.8954549  10.2042818  33.7467909
   4.2776740  10.8969152  34.9424458  53.9027405  82.1658707  53.5225296
  54.5516968  82.7277184  53.9460945  53.1926680  82.0968723  54.1607094
  65.6595278  72.1290588  48.9049149  66.5663099  72.0101690  48.6223650
  65.7225180  72.6745844  49.6889257  87.4761772   0.5285071  33.7526393
  86.7103863   0.7705508  33.2318544  88.0875778   1.2549660  33.6314654
  45.5905628  55.2293682  15.9764469  45.6736088  55.7413006  16.7809725
  45.8794308  54.3502045  16.2210929  41.2187004  77.5326633  24.0369439
  40.6833458  77.9551554  23.3652854  41.0994148  76.5953588  23.8837624
  71.6816711  55.5875444  44.0344620  72.2492695  54.8219728  43.9452124
  72.0215130  56.2135124  43.3950090  88.8352013  28.8080931  34.7927356
  89.7067451  28.4833026  35.0189161  88.8682270  29.7431755  34.9946404
   2.5308332  71.6249228  22.3135257   2.7901003  70.9230852  22.9105496
   2.9835731  72.4005413  22.6446986  90.4988289   5.9000272  64.5590019
  91.4343357   5.8647287  64.7585249  90.4603291   6.1367363  63.6323309
  16.3522696  18.2618439  13.9570546  16.0112011  18.5779464  13.1204057
  17.3034739  18.2892156  13.8536513  74.9764585  13.8692212  18.5703611
  74.6151590  12.9917765  18.6959910  74.5085955  14.2142797  17.8099239
  52.5783157  77.8205633  41.8782997  52.4573278  77.0051527  41.3917875
  53.4819698  78.0772591  41.6945791  13.6238694  54.6768475  12.8798139
  13.4996176  54.8258924  11.9424891  13.3287179  55.4884720  13.2925880
  31.4878607  74.2129135  19.5842052  30.6704569  73.8717222  19.2213380
  31.5947771  73.7468290  20.4134035  53.6813831  69.8095894  43.4962177
  53.8078833  68.8611031  43.5208464  53.0858421  69.9907589  44.2233610
  51.4171600  43.5877562  43.8166666  50.7477713  42.9135418  43.9332294
  52.2457409  43.1292772  43.9562368  33.4915400  30.7490230   5.2287793
  34.1477346  31.2725306   4.7688043  32.6598525  31.1794233   5.0305742
  69.0906858  54.6179581  70.8543921  70.0141144  54.8465395  70.7482862
  68.9602184  54.5819044  71.8019772  23.0538201  71.7282104  42.6313496
  22.7748299  71.6950989  41.7163086  23.2404113  70.8171368  42.8579807
  19.2032743   3.8431707  34.3588972  18.3213902   3.4746164  34.3071389
  19.7130680   3.1800252  34.8242784  72.1309280  56.2072754  18.5569859
  71.4895964  56.7780209  18.1337023  72.9732990  56.4855623  18.1975412
  61.5763569  64.1444921  63.2996845  61.6382694  63.9244223  62.3701859
  61.6483831  63.3030939  63.7503433  66.3146639  83.6244392  18.2473850
  66.7605734  83.6352444  17.4004614  65.6691551  84.3286610  18.1871986
  49.6185350   0.0337294  29.6178246  49.4812441   0.9748600  29.7257924
  49.1103458  -0.1947145  28.8394976  67.1321297   1.2964356  19.1852450
  66.5108871   1.8128484  19.6986759  66.6232681   0.9842256  18.4370339
  58.8268995  70.0084257   0.4156100  58.0438805  69.6910381   0.8654758
  58.5039520  70.6866980  -0.1775894  58.0711985  75.9986830  69.1705036
  58.9271498  75.5865049  69.2875242  58.1366444  76.4522171  68.3301163
  83.7596321  24.0208673   5.5966717  83.6906433  23.1863451   6.0604012
  83.7038612  24.6830368   6.2856233  69.7358131  77.8288794  42.0225191
  70.0568247  77.2937489  41.2966919  70.5271530  78.1893826  42.4225807
  28.6093521  56.4445686  44.6366453  27.8537393  56.5014172  45.2214956
  29.2066884  55.8387423  45.0752831  61.0321808  66.8820572  48.1753588
  61.3651609  66.5167522  47.3556566  60.6556845  67.7260303  47.9259825
  23.8621688  79.5561028  70.4447985  23.7807798  80.3854752  69.9739027
  23.9545631  78.8977385  69.7561407  55.5301619  84.7150135  11.7957127
  54.9712753  83.9743996  12.0310259  56.4222193  84.3788815  11.8822193
  32.7312279  74.0004921  57.1008110  32.9304338  74.8176718  56.6439009
  33.5682726  73.7247801  57.4744034  21.7205215   2.6507139   3.4354579
  22.3748016   2.4480912   4.1041094  21.1097288   3.2455966   3.8705194
  25.1105928  60.6772375  58.6666775  24.6373439  60.8289623  59.4847536
  24.5288849  60.1159668  58.1540155   9.3354632  85.7691613   4.9502289
   8.7084200  86.1371650   5.5728215   9.5873119  84.9285337   5.3325236
  68.6049128  72.7420855  30.7652092  68.2101727  73.3996391  30.1924634
  67.8747129  72.1792173  31.0225368  15.9991908  24.7034287  67.1909809
  15.6206572  24.1589284  67.8812456  15.3258419  25.3581238  67.0060301
  91.2074792  21.5841675  50.7706451  91.8029635  22.3327208  50.7346106
  91.4672134  21.0356402  50.0304508  82.2778511   0.0375429   9.2325270
  83.0844307  -0.4777301   9.2450494  82.5365829   0.8783045   8.8551545
  64.6061897  22.8817153  49.0193653  65.0451899  22.2220969  48.4823227
  64.2832470  22.3962784  49.7785044  69.1087723  66.5567303  31.4381027
  68.5505533  66.4350319  30.6701064  68.8679886  65.8400822  32.0251918
  78.9368534  72.5428391  47.9536295  78.6218739  73.4269667  48.1416273
  78.1409073  72.0291328  47.8164959  19.5559156  20.4830861  67.6505804
  18.8127053  20.6538200  68.2291269  19.5981717  21.2517715  67.0817471
  55.6699038  84.9685860  51.6600323  56.4483595  84.9805927  51.1031723
  55.3597260  85.8741379  51.6576481  73.6550617  36.0914421  33.5132790
  74.0057564  35.4561067  34.1374564  72.8519058  35.6868649  33.1854248
  83.3016586   0.9174515  66.0019493  84.0479374   0.3181204  66.0123491
  83.3704090   1.3709974  65.1618290  64.4335699   2.4761732  72.9389143
  63.5418081   2.2432438  72.6805735  64.7719193   2.9834211  72.2010469
  71.9422150  19.7533917  18.9342463  72.5715446  19.0360343  18.8596058
  71.0866261  19.3291092  18.8695574  34.8119044  48.9468956  66.2302446
  35.4938889  48.6487484  65.6283808  34.3062782  48.1587315  66.4286661
  74.7570562  24.6702814  15.3405285  75.2601528  24.6146393  16.1529505
  74.2922592  23.8350964  15.2889597  61.6850185  84.7899342  70.9921455
  62.2017956  84.0407944  71.2887478  62.1626616  85.5536461  71.3159275
  34.6347284  31.0122681  21.0762310  34.4424796  30.2286959  20.5611706
  34.8090482  31.6908145  20.4239893  46.4980221  28.3337831   8.9066941
  46.7927074  28.3323812   9.8174036  45.5722904  28.0950379   8.9541328
  35.4434228  66.8433285  51.8697929  35.0692415  67.5723600  51.3750839
  36.0523510  67.2566986  52.4818087  90.2978325   0.2568928  35.5438709
  89.4943619   0.6934293  35.8268952  90.5514812   0.7172311  34.7438836
  67.9693651   6.8959135  72.6841116  68.5978079   6.2740147  72.3173237
  67.1185541   6.4727372  72.5689173  51.0242987  79.5358944  44.9409628
  51.9325256  79.7414255  44.7193575  50.5673552  79.5327711  44.0998745
  52.2007561  68.8199854  53.3825111  51.4590645  69.4019079  53.5483074
  52.9546833  69.4059563  53.3157349  75.7395458  45.7031345  25.6292653
  75.5255270  44.9642277  26.1988640  75.9746647  45.3007793  24.7931671
  60.1075459  75.0944281  21.5250134  60.2072716  75.8698893  22.0772338
  61.0040569  74.8340702  21.3135624  24.0729165  62.1338606  69.6154308
  24.8122621  61.7694807  70.1020765  24.1697121  63.0817413  69.7069979
  57.8696251  65.3678989  37.4604702  57.6743412  64.6122074  38.0145717
  58.7030602  65.1499414  37.0431995  63.8885117  65.5672836  42.8292751
  63.2391310  64.9639702  42.4679565  63.4709835  66.4271212  42.7784824
  48.6562967  66.0057831  62.1153355  48.8233376  66.6194010  61.3999319
  49.4867229  65.9583569  62.5890207  49.9693775  42.4232626  70.0336409
  49.9223661  43.0400038  69.3031263  50.8192062  42.5961685  70.4387617
  48.2500505  77.1632099  28.3614850  48.0024195  78.0201387  28.0142283
  49.2065144  77.1570635  28.3244562  20.8729386  72.8765678  49.1160345
  19.9417174  72.6897764  48.9970016  20.9835744  72.9482222  50.0641155
  34.9359941  73.2731199  20.3275466  34.4289184  72.6966953  20.8992481
  34.3343234  73.4954739  19.6170664  64.6323395  69.2510509  56.6264439
  64.7038269  69.9329376  55.9584999  65.5303383  68.9448214  56.7531633
  -0.1179321   6.8696058  53.5697651  -0.2809690   7.4008560  52.7903891
   0.5650928   6.2547946  53.3019686  50.1864004  68.7636471  73.5853624
  50.7090950  68.6588240  72.7903557  50.0584698  67.8713322  73.9072847
  52.4848557  61.2864208  36.8999553  53.2391882  60.9932899  37.4111199
  51.8576431  61.5948868  37.5539303  81.5806866  70.6679201  23.7186742
  81.0830021  71.4846611  23.7570739  82.3258686  70.8139038  24.3014431
  90.9897995   2.5647143  48.7498379  90.0386143   2.5557983  48.8565874
  91.2694263   3.3820856  49.1620779  77.5394726  66.6326761  25.4284024
  77.4657822  65.7029200  25.2131081  78.4573889  66.8455029  25.2599978
  58.2768536  70.1779222  37.9735017  57.9548502  70.2297258  37.0735788
  59.0837097  69.6668386  37.9101348  58.0510616  82.1611786  27.4610734
  58.8049507  81.6231155  27.7026701  58.3283758  83.0585861  27.6454377
  65.5491066   2.4905027  27.5620866  65.3811884   3.4244770  27.6874924
  64.8749590   2.2067341  26.9446468  64.2579508  58.4009123  58.0955601
  63.3369589  58.5288000  58.3228302  64.3160868  58.6607838  57.1761465
   1.1454687  21.2612820  33.0576849   1.0194360  21.0036635  32.1444583
   1.9536230  20.8212686  33.3213258  70.4235315  14.5376623  42.6092529
  71.0551643  13.8862956  42.3043108  69.6159649  14.0423882  42.7462626
  89.3049335  42.7444267   6.6162777  89.1763973  43.6926699   6.6395992
  88.7051964  42.4380922   5.9360528  36.8318844  19.8666930  20.2375579
  37.4257922  19.2308509  20.6365705  36.0318422  19.8076713  20.7597470
  20.1114941  20.6156564  70.5203199  19.7160375  21.3717246  70.9541464
  20.0581479  20.8202004  69.5867538  40.6764603  59.4246292  65.6411552
  40.8444071  59.0360975  64.7826242  40.2034664  60.2343607  65.4492188
  24.3243003  85.2885532  28.5431504  25.2348685  85.0928783  28.7640810
  23.9196706  84.4308281  28.4134865  55.5870342  57.1472549  65.9245729
  55.1694965  56.9557667  66.7643499  55.8095121  58.0769157  65.9741688
  54.2190695  75.3530312  49.8944521  53.6086702  75.8245850  50.4612684
  53.9355135  75.5679369  49.0058327  89.0080166  26.7306924  48.8574886
  89.7125340  27.1850872  49.3194485  89.4467640  26.2784410  48.1369352
  69.0763998  49.2380333  41.7730665  69.0188980  50.1927471  41.7350388
  69.7693396  49.0148735  41.1515617  54.8196507  19.7633266  46.6934299
  55.5144691  19.5776320  47.3250723  55.2044535  20.4042268  46.0955954
  42.0447063  66.8611670  18.1679845  42.4484253  67.1220255  17.3402214
  41.2327003  66.4241934  17.9112077  60.1326275  74.6026564  69.6257353
  60.3064394  73.6622429  69.6663141  60.4871178  74.8754454  68.7794781
  55.8659935  70.3934431  24.4282556  56.7548847  70.1773357  24.7100377
  55.6969357  69.8023415  23.6946034  82.2568130  71.3244486  34.8689675
  81.6611385  71.0565662  35.5687141  81.7763329  71.1403131  34.0618300
   9.1229153  21.0488558  60.0276756   8.3940154  20.4308152  60.0820875
   8.7324685  21.8983555  60.2329350  23.3467412  62.1130753  55.6154156
  22.6033354  62.6983738  55.4704809  23.0337262  61.2538052  55.3327274
  55.0208282  84.6961021  37.7347922  54.2883730  84.0987015  37.5836349
  55.4982758  84.7043896  36.9052100  74.1637421  27.9178190  48.5672903
  74.1110754  28.4551477  49.3576908  73.6356640  28.3882332  47.9222488
  23.9690208  73.8261366  44.2018318  23.6855221  73.1027555  43.6427402
  23.4054041  73.7677002  44.9732924  55.8513212  80.1967144  26.7454243
  56.4863682  80.7593441  27.1885800  55.0175619  80.6578064  26.8374562
   4.3846920  21.8095517  25.4665136   3.6191028  21.4798975  24.9959469
   5.1066905  21.7151451  24.8451948  43.8858080  40.4322863   8.0067140
  44.6885395  40.7565403   7.5984097  43.1907558  40.6762505   7.3954725
  62.4223661  58.6706018  15.2711487  63.3027315  58.5831022  14.9057281
  62.1297312  59.5362902  14.9862242  55.1410627  67.8555918  47.7393866
  55.8698463  68.0406713  48.3317184  54.4298458  68.4143019  48.0528212
  11.9597268  83.0792427  58.3408546  11.6120481  82.3096275  58.7914658
  12.0394862  82.8060055  57.4269581  58.8120079  76.6068268  63.5218525
  59.6421623  76.1309958  63.4961176  58.8229465  77.1503448  62.7340078
  54.5217752  28.6396790  15.0740707  55.1901913  28.3663225  14.4457948
  53.7488890  28.1256151  14.8403728  23.0588245  55.6432247  20.0738120
  22.5375080  56.0382080  19.3749177  22.5645542  54.8647690  20.3305840
  55.0846148  72.4796724  66.3711739  54.8811388  73.4010267  66.5322351
  54.5609236  72.2493362  65.6037617  53.3907604  82.8236675  29.4460487
  52.9275990  82.4329376  30.1870203  52.9254389  83.6430645  29.2778659
  48.7168884  58.4561110  46.9968128  47.8343487  58.2273197  46.7052507
  49.2924929  57.8825855  46.4908695  21.9271374  52.9479599  66.5345049
  22.8260899  52.8702116  66.8539858  21.7875767  52.1551323  66.0166502
  38.3351469  67.1409416  57.4925232  37.4392343  67.4682665  57.4123430
  38.3975363  66.4497995  56.8332338  32.0303607  72.1933365   4.3564343
  32.5839996  71.4867735   4.6888238  31.8356466  72.7274942   5.1264930
  37.4348474  53.4067965  71.8246841  37.3244905  54.0753365  72.5007772
  36.7998934  52.7279425  72.0532131  51.2762690  80.4872894  47.6407385
  50.5305767  80.1582241  48.1426239  51.5313816  79.7533321  47.0817566
  65.5591249   0.4740293  17.2782922  65.4778099   0.5610195  16.3285279
  64.9031925  -0.1813856  17.5158095  22.2012949  82.0072556  63.0442953
  22.3843384  82.8017807  62.5428486  22.2350192  81.3026142  62.3973179
  22.8455186  34.7912598  67.4404144  23.7479687  34.5564580  67.6564789
  22.9276299  35.4401088  66.7414951  52.3479557  85.5738735  40.3404284
  53.0250978  84.9083710  40.4621220  52.1903181  85.9186840  41.2193441
  55.0115347  76.8673468  59.7224712  54.9623156  76.9705009  58.7721205
  54.7154236  77.7084970  60.0703478  41.7117548  16.2669992  16.9892001
  41.7364502  17.1191096  17.4245501  40.7817793  16.1068487  16.8288088
  50.9234667  78.6912727  36.8060398  50.8593798  79.4780827  36.2646961
  50.1060295  78.2208443  36.6425753  45.5107498  82.2688961  26.8151665
  44.7733164  82.5375938  26.2672329  45.6328249  81.3410091  26.6142702
  77.6624155  73.6939526  19.2664492  77.5061798  74.0167713  18.3789754
  78.1690788  72.8911877  19.1435766  10.7902122  58.4150648   6.8008363
  10.0215042  58.9842653   6.8373358  11.3209379  58.6808825   7.5517708
  79.4188356  69.9896002  34.7230124  78.7681866  69.3065977  34.8854828
  79.3333244  70.1847458  33.7898278  50.8967543  50.6886148  67.1975708
  50.1410198  50.1320505  67.0095921  51.3069773  50.2851486  67.9625320
  63.6812210  81.4874840  42.4987745  63.4995937  82.2124863  43.0967808
  62.8419971  81.3121319  42.0731020  88.5573483  63.2629633  20.9219527
  88.5155010  63.6063814  21.8144464  88.6151505  64.0415764  20.3681898
  66.1250401  68.2975960  35.4791808  66.3412142  69.1310358  35.8973742
  65.5288363  68.5337353  34.7685409  60.6720114   1.3077097  44.7624493
  59.9344587   1.3860968  45.3675175  61.3758421   1.8068583  45.1768255
   9.2228663  23.9218545  60.8494902   9.5453864  24.0314150  59.9549484
   8.5994959  24.6383810  60.9687853  81.4693546  26.8553996  57.1605921
  82.0085239  26.0945821  56.9445133  80.9806442  27.0383072  56.3581324
  82.3724079  13.5888994  46.6169500  83.2509708  13.9401841  46.7617464
  81.8853092  13.8296902  47.4049759  51.0617161  58.0120659  16.6261756
  50.7259893  58.6615896  16.0084057  50.2939034  57.7406693  17.1292043
  44.8891973  71.5328312  27.9360318  45.0312853  72.4683762  27.7917886
  45.7668591  71.1751747  28.0702639  30.1544547  16.1985743  24.6632767
  29.4341230  16.2407959  24.0343332  29.8974538  16.7996466  25.3624868
  26.3489437  17.3161662   4.8632240  26.5680456  16.6061294   4.2598388
  25.3952575  17.3839331   4.8171315  87.9182720  19.1724706  44.5028400
  88.2175732  19.5219159  43.6634731  87.9354477  19.9242604  45.0950813
  57.6806307   7.4451888  59.2684412  58.0475092   7.5603598  60.1450062
  56.8850088   6.9314641  59.4073963  78.0726051  20.4088449  60.4387188
  78.5614061  19.8891950  59.8005390  77.7320576  19.7658694  61.0606861
  68.8073349  83.2939529  29.6421051  69.0081692  82.4355984  29.2691016
  69.5615816  83.4971046  30.1953411  45.9997654  80.4113865  49.3692350
  45.2639532  80.9720898  49.6150589  46.2198973  80.6821537  48.4779119
  19.9529862  51.7291880  57.5676012  19.5338714  51.0489559  57.0404816
  20.8910489  51.5783596  57.4513149  57.5451756  71.6069746  12.6220727
  57.1561909  71.9856405  13.4104455  58.3687305  72.0816851  12.5096083
  45.6506538  29.0826988  73.7233114  45.9638596  28.3272409  74.2207193
  45.8088303  28.8494492  72.8085423  21.6317534  17.9924178  24.7882557
  21.6623116  17.8241432  25.7300520  21.9060659  18.9051163  24.6990013
  68.2211924  46.7901182  32.1589088  69.1282511  46.5791178  31.9376516
  67.7099371  46.4477062  31.4256954  87.6676273   2.3732099  31.2119794
  86.7447567   2.2133760  31.0145068  87.7314091   3.3236855  31.3055730
  11.4728355   3.1012130  24.6012306  11.3504982   2.5459081  25.3712296
  12.0561993   2.5979370  24.0332222  74.7499704   6.3593942  51.1031914
  74.4043541   6.5241420  51.9804811  75.5370378   5.8349192  51.2504244
  17.5633144   7.8341544  55.5154228  18.2261789   8.4305775  55.8634472
  17.2945189   7.3087513  56.2690353   5.1398802  52.3163748  35.5597425
   4.5398083  51.8751001  36.1609268   4.6505660  52.3843431  34.7398734
  62.7406120  77.4045753  46.7236710  62.3205471  77.7960920  45.9578419
  62.2452259  76.6014147  46.8841553  54.6085167  20.4777789  35.1790571
  53.9025688  20.1753235  34.6077466  54.1691208  21.0128331  35.8400273
  58.1235838  17.6989388  53.0539370  57.3285484  17.5550473  52.5406694
  58.7972546  17.1937740  52.5987339  36.3199711  64.4598579  59.4541550
  36.6935372  65.2601910  59.8231363  37.0792890  63.9184475  59.2384005
  17.0004594  24.3775487  52.1119452  17.0899665  23.6578012  51.4872980
  17.1703172  23.9771771  52.9646349  64.0980434  79.3005753  15.8016062
  64.2494154  78.8638115  14.9634218  63.3841515  78.8059044  16.2039661
   4.8603812   3.9354065   2.4113862   4.8074678   3.6336839   3.3182463
   4.2825609   3.3446485   1.9283123  16.0181940  43.4984159  37.8778529
  16.7257977  42.9981756  37.4713016  15.5283046  42.8513336  38.3853221
  20.2715945  68.6547756  68.6440516  20.0579214  67.7309847  68.5129547
  21.2193084  68.6647224  68.7781000  73.1318569  85.0327206  45.5260658
  73.6295462  84.8724842  46.3278532  72.7020884  85.8749199  45.6752205
  52.9854393  17.3755705  58.3925629  52.3010540  17.3383212  57.7243805
  52.5343704  17.1627045  59.2095423  46.4593077  72.8473473  52.8946686
  46.4895105  73.8022089  52.9543066  46.6935682  72.6565647  51.9863987
  55.0575972  76.4645100  56.9021130  54.1933775  76.1207628  56.6758490
  55.6598997  75.9993792  56.3214970   2.2146675  17.9339778  29.3027759
   2.9499722  17.8119802  28.7022138   1.4553556  18.0491531  28.7314510
  81.5314198  76.6368389  32.3412323  80.8504200  75.9890318  32.1600866
  81.9287109  76.3437843  33.1612968  80.0161743  64.4375753  31.1464119
  79.1561556  64.2087746  30.7939148  80.3135490  65.1645899  30.5993772
  33.3071208   1.8947090  21.3265324  33.6475682   2.7889502  21.3008261
  32.5811386   1.9326228  21.9492245  49.8062801  82.9250431  53.7826872
  50.1979876  83.6475182  54.2734241  50.4289627  82.7492619  53.0772829
  78.1440735   3.3293086  72.7972651  77.8972816   3.2047477  71.8808508
  77.5198030   2.7949673  73.2881784  43.4715939  54.5099258  69.7231483
  43.1354189  54.6834850  70.6024075  44.0413666  53.7483168  69.8305893
  52.9537821  72.9876280  46.7013168  52.4751091  73.4648418  47.3790884
  53.7849236  73.4555149  46.6206121  28.1240153  27.1106124  24.2085314
  27.5531936  26.3687444  24.0084624  27.6240802  27.6357937  24.8334146
  64.7709322   1.3419129  31.0332012  64.9572611   2.2805679  31.0542107
  63.9455175   1.2508613  31.5092635  81.0487461  84.6599770  21.8218017
  80.5699539  84.0096664  21.3079119  81.9215298  84.2827511  21.9321370
  37.5086689  21.8419194  45.3106022  38.3813071  22.1056318  45.6024790
  37.1075439  22.6510382  44.9933434  19.9308157  46.0896206  10.7966518
  20.8518791  46.3134575  10.9299517  19.8116755  45.2699375  11.2763989
  91.4026985  39.7608995  59.2321825  91.2142508  39.1555595  58.5150528
  92.1144620  40.3091860  58.9020205  64.2267179   7.8756434  33.7924767
  64.8438978   7.1696305  33.6004758  63.7123537   7.9687893  32.9906154
   3.7626106  84.3554020  14.7520232   3.6279300  83.8158321  15.5310988
   3.3190623  85.1797295  14.9519813  25.4444408  79.4369698  73.8699818
  24.6289492  78.9605951  73.7141895  25.8904123  78.9323282  74.5501900
  91.3387283  51.9835138  23.0181956  92.2889413  51.8814373  22.9642725
  91.2060877  52.9211903  23.1574726   0.5205687   6.0555530  67.7509499
   0.4454134   6.6340417  68.5098553   0.0407901   5.2664977  68.0028152
  52.1945000  65.3116846  58.3349323  51.6521835  65.6372118  57.6164865
  52.9635191  64.9382687  57.9043531   1.6492248  32.7032232  34.8173285
   1.6845497  33.2181740  35.6234360   0.7149584  32.5625944  34.6637011
  13.7982595   1.6527824  45.5514431  13.8288689   2.5446084  45.2051163
  12.8672826   1.4303753  45.5584145  76.7009687   6.7982084  32.6122904
  76.5111494   7.5463957  33.1783438  77.5610065   6.9920462  32.2394705
  23.8985825  79.4121552  36.2762332  24.6832347  79.0067196  36.6452551
  23.7927651  78.9947414  35.4213643  87.4946785  52.0843315  22.5207543
  87.9747868  52.8774548  22.7588248  86.6213036  52.2128773  22.8908062
  10.0453508  26.2661862  38.1201601   9.2868394  26.6437554  38.5655093
   9.6788764  25.8301377  37.3508811  73.6359644  22.6077580  28.2180476
  73.3592606  21.8927193  27.6449990  72.9383707  23.2588291  28.1425738
  23.4817600  70.2252769  57.8660631  23.6667275  70.7538605  57.0897770
  22.5379157  70.3150988  57.9976654  62.4598408  69.4160748  30.1200414
  62.6124048  70.3591681  30.0605893  63.0224133  69.0393209  29.4434333
  51.0336256  59.9001122   3.6326346  51.7611361  59.3229532   3.4005833
  51.4267826  60.5661726   4.1965699  76.5863752   7.0306200  19.6166587
  77.2423744   7.3547065  20.2338004  75.7478333   7.2132993  20.0405788
  23.3807230  30.2938771  31.4089775  22.5962186  30.4151821  30.8741236
  23.1358767  29.6209264  32.0441294  71.5775156  83.9725018  14.8977661
  71.1959839  84.3762398  14.1182387  72.1092176  84.6649456  15.2902627
  72.6868248  51.0397243  26.4217257  72.2755814  50.3524733  26.9459367
  73.6029243  50.7713556  26.3512182  60.7658911  66.4325285  21.4411402
  61.5953398  66.0668468  21.1336970  60.8624601  67.3775339  21.3233566
  54.2088413  74.0960598  59.5110178  54.4935846  75.0038385  59.4057274
  55.0219202  73.5917521  59.5393181  45.2915287  65.6359816  42.2321367
  45.9294987  66.1949205  41.7885017  44.4631338  66.1091089  42.1537352
  73.7551069  17.7173352  66.5104151  74.4680309  17.9500163  65.9155798
  73.6542892  18.4838271  67.0748234  84.8243046  58.8491392  54.5897722
  84.2466164  58.2497931  54.1172314  85.4013443  59.2072916  53.9152479
   5.7195169   8.0315167  21.9173288   5.7983601   7.2490424  22.4629927
   6.0491627   8.7417108  22.4679542  73.6650229  79.5940351  27.9826641
  74.3382263  79.8431873  28.6158705  74.1128826  79.6131945  27.1369171
  45.3983688  84.5974159  59.0428114  44.5597982  84.3590736  59.4380617
  46.0522032  84.3301487  59.6887970  72.1945429   5.9353399  42.0698547
  71.5977049   5.7811236  41.3375759  72.3534250   6.8791395  42.0546770
  63.7271357  10.5340052  34.0161490  64.1821814  11.0485232  34.6828079
  63.9545965   9.6262985  34.2175484  29.8831487  15.7568896  55.5989552
  28.9625478  15.6756568  55.3497076  30.2709293  16.2970781  54.9104404
  82.1686935  32.4191380  40.3376389  82.4086380  32.9795051  39.5996380
  81.3310146  32.7687740  40.6414127  24.4527602   3.3387801  55.2233696
  24.4278169   4.2517397  55.5099249  23.5327840   3.0933145  55.1252794
  73.3838415  61.0473013  53.4750462  73.7009001  61.2876511  54.3456459
  74.1717672  61.0203171  52.9322100  47.3867655  74.7389030   2.7598733
  47.9414320  75.4442215   2.4265529  46.6171980  74.7501040   2.1907778
  85.7741070  62.6860332  65.3300333  84.8736477  62.3613834  65.3265858
  86.2063122  62.2009087  64.6271229  42.0821762  68.0584621  38.5382175
  43.0044031  67.9181576  38.3236289  42.0906973  68.3581924  39.4472384
  30.8783579  72.2995472  56.3045502  31.6409945  72.8499126  56.1264706
  30.3710413  72.7942085  56.9481134  49.3403196  29.2860818   5.1105726
  48.4488201  29.2294121   5.4544562  49.6688938  30.1249480   5.4339486
  52.2660732  82.6964569  42.2424650  52.9266596  82.8248692  41.5617561
  52.7236462  82.2165203  42.9327726  19.6496499  43.7521124  54.2364502
  20.0630403  43.7795830  55.0993443  19.2623067  42.8783512  54.1841412
  43.2295036   2.7248201  61.2599039  43.2232141   2.9686916  62.1854973
  42.4743795   2.1451658  61.1598110  77.3947001   3.3301616  47.5634956
  77.6476002   3.1709725  48.4728527  76.8168306   2.5992841  47.3441458
  42.8764439  82.0075035  42.2868443  42.2478867  81.6441727  42.9106474
  43.6989307  81.5611267  42.4880743  64.5534801  74.9349213  20.2040982
  63.9762735  74.3592644  20.7057810  64.0456772  75.7373190  20.0835800
  23.3262444  24.3913269  43.5468197  24.2380118  24.5797729  43.7690830
  23.2968187  24.4438314  42.5915146  19.4522560  41.5834045  16.9205797
  19.1936946  40.6971121  16.6678739  19.7774494  41.4918518  17.8161788
  73.4388971  76.5260696  35.5315709  73.7785864  76.1448956  34.7219110
  74.2189932  76.7147350  36.0531926   6.4001179   4.8004773  48.9128685
   6.0647863   5.4929286  49.4823360   5.6241572   4.4592965  48.4682178
  90.3997231  20.1803017  41.0583591  89.9534798  20.9535575  41.4035749
  90.3891563  20.3015828  40.1089334  60.8391142   1.7721511  39.1060567
  60.7302666   2.6336688  39.5087600  61.5704298   1.8824753  38.4984064
  85.1438904  11.1434627  54.0413666  85.2209949  11.7731023  54.7581959
  84.9689484  10.3078830  54.4743109   3.6353412   9.5447272  42.9532099
   4.2736876  10.0190246  43.4859276   2.8384408   9.5383537  43.4834385
  78.6496353  11.0535216  47.1186447  78.3784199  11.7715967  46.5467691
  79.6054077  11.1044466  47.1301985  11.5186775  24.4356513  31.5123177
  11.9311762  23.5756397  31.4319563  12.1538770  25.0424290  31.1320853
   1.7439918  28.0398655  69.5562220   2.0577660  27.1886110  69.2510271
   2.4890414  28.6280227  69.4329166  19.9467266  68.5240126  32.9693508
  20.8471489  68.7763739  33.1737661  20.0061345  68.0950308  32.1157265
  73.1987953  52.9152918  19.6109307  73.8402462  52.5225496  20.2029848
  73.7124681  53.1967115  18.8538504  89.6479702  11.7206812  49.6325064
  89.2024899  10.9226763  49.9170494  89.5110798  12.3400116  50.3493929
  91.1044502  39.9938536  74.2745876  91.3058662  39.9306893  73.3409500
  90.2645874  39.5445538  74.3693495  84.1999245  17.6152360  30.6409383
  83.9370346  16.7342961  30.9075212  83.8664532  18.1847906  31.3342190
  56.6891575  77.6509762  71.9443274  56.0604095  77.6686096  71.2228060
  57.5448227  77.6283979  71.5158844  12.7818131  34.2449045  69.8028946
  12.5701535  35.0355601  70.2991772  11.9741726  34.0323114  69.3351841
  74.2441607  19.9966550  51.0532761  73.6071682  20.6678343  50.8083534
  74.4022274  20.1452923  51.9855595  58.9773083  78.0577707  25.8730245
  59.6887493  77.9567814  26.5053868  58.7200022  78.9767885  25.9467316
  71.9800615  30.3057528  14.3720698  71.8254805  29.3669033  14.2676735
  72.8319979  30.3615475  14.8048770  13.1193769  64.1038132  46.3052559
  13.1095016  64.9706125  45.8993149  12.3451436  63.6652708  45.9524488
  22.3746538  67.1781778  52.9987478  21.5213871  66.8720436  53.3060741
  22.8736734  67.3399591  53.7993956  57.2108889  64.3446970  41.3785219
  56.8643141  64.0738010  40.5283833  56.9472361  65.2609158  41.4637280
  71.3394594  60.5837011  56.3837910  71.9530344  60.7342625  55.6647062
  71.4594984  59.6618938  56.6120338  32.1507835  34.0492868  22.1656156
  31.3552690  34.1330719  21.6399097  32.2388124  33.1084943  22.3185682
  43.3967161  15.1989853  40.7180691  43.2856464  15.9212685  40.0998449
  44.0213156  14.6124208  40.2913952   9.0741855  64.9955177  55.1292944
   8.7621075  64.3167639  55.7277393   8.3349490  65.1560640  54.5427942
  18.8930535  29.9405217  36.9406676  18.9471793  30.7221222  36.3907528
  18.3812594  30.2173829  37.7006984  87.2378731  26.3181043  39.9888706
  86.9432545  25.7169032  40.6729698  87.6436329  27.0425200  40.4651165
   2.0963135  20.3633165  24.5733786   1.4050469  20.4148674  25.2334714
   2.2552572  19.4255614  24.4657469  59.5303774  77.3264790  38.6975241
  59.7224092  76.3978720  38.5669994  60.1058340  77.7790451  38.0808687
   6.0428768   7.1415019  50.7191086   6.5462106   7.2312641  51.5283251
   5.1288462   7.1524084  51.0031176  81.3851166  32.2578192  44.9746227
  81.4081955  32.0273519  44.0458679  80.4614639  32.1878839  45.2158737
  60.2183056  59.1693115  27.0583987  61.1105680  59.4811344  26.9071746
  59.6916533  59.6214008  26.3992429  45.7111883  80.7614326  37.4408937
  46.4573812  80.3104019  37.0459247  44.9860764  80.5983162  36.8377042
  84.1963291   2.1457554  51.8131208  84.4196129   2.3090324  52.7294827
  84.6976089   2.7985755  51.3244724  10.1199496  32.5429273  32.7414513
  10.7141495  31.9045448  33.1359458  10.6965244  33.2204294  32.3882008
  70.4415131  15.7000685  25.8366036  70.9818459  15.4721749  26.5931320
  69.5824909  15.3271770  26.0347676  36.3351011  55.5162668  73.2241774
  36.6144800  55.5615664  74.1385746  35.4053187  55.7426453  73.2463169
  64.5685339  77.0297241  27.2743273  64.1140890  77.6782179  26.7365861
  65.0527048  76.4942694  26.6457582  32.4288511  31.1923695  22.5842547
  33.1358361  31.1355996  21.9414639  32.1464252  30.2865100  22.7102876
  72.1438122  79.8727942  60.2578068  73.0324221  79.9510813  60.6049061
  72.2565889  79.4595957  59.4017792  36.3390756  85.8602524  64.2392874
  35.5766749  85.2815151  64.2458296  36.2596750  86.3701057  65.0454998
   3.8636002  10.4078698   9.2196834   3.5206717   9.8828745   9.9428791
   3.4799701  11.2750506   9.3502808  66.9634056  67.0525789  48.5719681
  67.6626825  67.6245022  48.8884354  66.1566544  67.4747753  48.8671541
  53.4793425  58.6829662  52.9081631  53.7342358  58.2437515  52.0967770
  53.4650230  57.9856205  53.5637045  87.5319004   9.0745205  59.2032337
  88.3282948   9.0283656  59.7322369  86.8193054   9.0709156  59.8423195
  69.4362545  60.9535122  58.2860518  69.8571730  60.5807209  57.5113964
  68.6738920  61.4199448  57.9433012  66.1524773  79.7068405  38.5171056
  65.6688833  78.9414597  38.8278484  65.8372593  80.4271698  39.0629911
  57.5696230  25.1858139  70.7787657  57.9623127  25.2810121  71.6464996
  58.0696201  24.4819283  70.3655100  29.9236178  20.2685642  32.0158005
  29.3231750  19.6344411  32.4077010  29.6402502  21.1138225  32.3643327
  53.0900812  63.7480068  53.8651705  53.6113453  64.5057631  53.5999775
  53.6611414  62.9966497  53.7052298  88.6455154  72.8159714  18.3164728
  88.7656021  73.1196690  19.2162383  89.1079426  73.4615564  17.7820480
  50.9158134  57.3995781  11.3087320  51.5058041  56.7407084  10.9426343
  50.0690842  57.2152424  10.9021556  42.5499153  86.4506912  48.6629868
  42.1251678  85.8059311  48.0972052  42.8184938  85.9521484  49.4347048
  36.6878176   7.5406623  45.9367990  36.0171342   7.0503300  46.4121819
  37.3199964   6.8767023  45.6615925  42.4313641  62.9596949  46.7500973
  42.1341515  62.6993942  47.6219559  41.6316032  62.9962873  46.2254286
  21.7355490  51.5143347   6.3811016  21.1284518  51.2248039   5.7000482
  21.4119935  51.1013556   7.1817195  73.0124760  83.1509495  36.4385343
  73.5765362  83.5479069  37.1022320  72.3829412  82.6316166  36.9387412
   8.3619928  38.0342817  55.9044886   8.4622538  38.9694977  56.0821152
   8.9374369  37.6069522  56.5389061  50.4659081  26.5815830   9.6545231
  50.3582287  26.0608697  10.4504466  50.2424192  25.9810996   8.9433926
  49.8148966  50.6951809  48.1926966  50.0057173  50.0453806  48.8691425
  48.8590908  50.7204437  48.1476641  16.9604278  85.6329441  52.9976559
  16.8621194  84.7867870  52.5610781  16.5798104  86.2635231  52.3863316
  77.3646116  20.8438492  41.6687632  77.7036333  21.7246699  41.5092278
  77.4990845  20.7015109  42.6057196  42.1482706  27.7458048  18.5692036
  41.6914320  27.5010347  19.3739522  42.1731567  28.7024665  18.5894203
  42.4225521  74.1715097  45.8763504  43.3729839  74.0888357  45.7983923
  42.2707653  75.1120138  45.9693098  70.8971596  50.2970982  50.9387636
  70.2706051  50.8603573  50.4844475  70.6291914  49.4071913  50.7096481
  70.8658504  81.2844849  73.3025026  71.1734009  80.4992771  73.7553644
  71.6013813  81.8947983  73.3549452  56.9133186   3.1006286  44.9240065
  56.5965843   2.2451237  44.6341419  57.5894547   2.8991047  45.5708981
  75.0892115  75.0295687  62.3743248  75.3268623  75.3689718  63.2372046
  74.6245337  75.7522345  61.9523573  79.1707230   7.8287250  31.7918324
  79.6921682   7.0474201  31.6077495  79.7389507   8.5590780  31.5470243
  56.7119837  25.9583831  16.2290287  55.8647060  25.8507824  16.6612017
  56.5385151  26.5654898  15.5096114  86.9983101   2.7445263  55.8528996
  86.9448948   3.3696973  56.5757704  87.8983784   2.8208876  55.5362129
  90.1123238  20.9836864  53.4229660  90.2512264  20.0497222  53.2659626
  90.5330849  21.4166045  52.6801491  84.3533707  13.5803640  40.9648371
  83.4835148  13.7807679  40.6192541  84.9479771  14.1214883  40.4453611
  75.3954935  77.2633505  37.6164031  75.7051373  77.9080486  38.2525778
  76.1095381  76.6292238  37.5511074  68.9889288  68.7962103  69.3607235
  69.0922594  68.8959074  70.3070927  69.2076254  69.6570683  69.0039062
  73.7602043  20.8788824  13.5095298  74.1460466  20.3859377  12.7853990
  74.2542648  20.5988050  14.2800438  11.6615415  12.2411788  40.4261780
  11.9186556  12.1578574  41.3444281  11.0809994  13.0020177  40.4080963
   0.8198415  39.4168425  35.3112054   1.5557313  38.8265538  35.4732490
   1.1924958  40.1259804  34.7872949  87.9054546  10.8369601  57.0151424
  87.8850460  10.2782130  57.7920723  88.7251759  11.3251078  57.0926523
  90.4162025  59.1385174  71.6013956  90.2686214  59.5432329  72.4561834
  90.9834862  58.3898592  71.7855978  76.3831902  77.4487972  16.3869786
  76.2663651  78.1245756  17.0547402  75.7044363  77.6336241  15.7378554
  32.6653981  76.8030310  66.3427448  32.6112294  76.1821795  65.6162167
  32.2116804  76.3674831  67.0643234   5.2837020  28.3827138  56.7338562
   4.9957168  29.2362356  57.0575857   5.5117679  28.5386586  55.8173990
  49.7379589  84.3740273   9.7397888  50.3824854  85.0080395  10.0541830
  49.7497797  83.6757851  10.3944290  63.3873129  72.9518366  38.9741731
  62.5957012  72.5293064  38.6409378  63.2789135  72.9474735  39.9252033
  74.1921711  66.1411667  25.1915836  74.1176224  65.2245140  24.9262142
  74.3244934  66.1062527  26.1389518  11.0529625  72.3116255  39.0848184
  10.8882451  73.0836821  39.6261406  10.2429283  72.1889210  38.5898256
   9.2960465   4.1729736  63.9352560   9.7329754   3.9056399  64.7438717
   9.3689722   3.4110701  63.3604383  74.4469786  69.6798897  25.4150176
  74.0682936  70.5584145  25.4470325  73.7338400  69.1016674  25.6858063
  43.4411478  22.1295762  20.3484654  42.5370216  22.0013499  20.0614977
  43.9668083  21.9612217  19.5664382  72.6750612   1.1327248   5.2938461
  73.3129692   1.4781317   4.6693465  71.8319988   1.4612140   4.9814802
  74.1379166  58.2627058  57.4708462  73.2597017  58.2140446  57.0932198
  74.6964598  57.8127384  56.8369770  88.8881493  22.3082304  36.8332648
  89.1859436  22.6613045  37.6716471  89.3165874  21.4548302  36.7670250
  25.9396696  41.7378855  30.6013560  25.0697851  41.9619370  30.2706981
  25.8779836  41.8710756  31.5472341  16.2487543  20.1275992  64.2481852
  16.3124204  19.5396435  65.0008392  15.3861368  20.5335712  64.3336821
  30.2959156  27.3680663   8.1701207  30.8057833  26.6081381   8.4507889
  30.5910850  27.5373602   7.2754443  78.7039757  40.2724886  15.5621719
  78.0644655  40.8410120  15.9911716  79.2520618  39.9469471  16.2762129
  84.6459770  82.8393555  48.3049059  83.7321377  82.8719044  48.0219269
  85.1404667  83.1738091  47.5566721  24.5284247  35.1968098  17.3604965
  25.1571965  35.1842594  18.0821061  24.5827889  36.0862207  17.0108879
  87.5116825  83.4434891  39.9920797  86.7511749  83.8361549  40.4206514
  88.0777454  84.1860294  39.7812939  40.6955004  69.8832560   4.1034019
  40.8451939  69.4455433   3.2654098  39.8243833  70.2708817   4.0189052
  32.9007816  22.2670245  14.8962152  33.4388995  22.3264265  14.1068280
  32.0203280  22.5031853  14.6042192   0.9640878  77.4476337  34.4322205
   0.9375917  77.9045868  35.2728868   1.1183388  78.1390762  33.7885261
  33.1256580   1.1257784  34.8113346  33.3114457   1.8221053  35.4412889
  33.2505012   1.5370022  33.9560342   0.4730039  83.8507271  40.2872324
   0.0477904  84.7081470  40.3031254   1.4022925  84.0418434  40.4142332
  83.9530087  78.1744242  14.1589773  84.9059772  78.2638741  14.1681147
  83.7189579  78.1996822  13.2311761  15.5005097  29.1558170  19.8929977
  16.2561202  28.8225770  19.4090211  15.5886090  28.7747359  20.7666373
  12.4891686  15.8250272  25.8363342  12.3051918  15.9150553  24.9013042
  13.4264433  16.0030103  25.9142447  85.7322693  34.5931697  64.1742659
  86.0025215  34.9986482  64.9981451  84.8838425  34.9908185  63.9785957
  33.6588192  16.6631937  51.3031292  33.6871290  17.6179314  51.2406397
  34.0288210  16.3578796  50.4748058  52.7544594   0.3037916   8.9820093
  52.2906208   1.0668258   9.3267751  53.3212662   0.6575821   8.2965946
  43.3838987  28.4346652  29.3074441  43.2895517  27.5307846  29.0068984
  43.0682230  28.4208226  30.2109861  79.8945522  64.9642706  71.9493246
  79.8160887  65.7330513  72.5141716  80.1965714  65.3130674  71.1106634
   5.3551418  83.4563255  35.1642942   6.2874722  83.6592674  35.2404928
   5.2639359  83.0732155  34.2918611  89.2287350   2.6161045  33.8372254
  89.1510773   3.3209905  34.4801378  89.0808105   3.0438453  32.9937887
  21.1493540  16.4987564  12.0818329  21.8681264  15.8677018  12.1188045
  20.3596258  15.9689283  12.1906614  15.6010330  76.8055344  46.3703012
  15.0879908  76.8819427  45.5658245  16.0966253  77.6231194  46.4168835
  13.6124837  26.1141801  45.3994322  13.7373400  26.5231419  46.2558126
  14.1798687  26.6123509  44.8111010  27.3740506  67.6385593   8.0209780
  27.1002102  66.8353128   8.4637451  26.5892935  68.1865644   8.0119979
   6.3223135  13.1966686  12.4310637   6.9612581  12.4866104  12.3694396
   5.4746664  12.7535629  12.4682653  23.0102801  14.6808839  39.4819188
  22.0687556  14.5260727  39.5580530  23.3022594  14.0584898  38.8158822
   6.5559858  33.3601022  45.5181170   7.3004371  33.5305953  44.9410915
   6.9517183  33.0753517  46.3418531  70.3991652  60.3735638  74.3183851
  70.3376579  59.7181559  73.6234856  70.2093935  61.2040138  73.8818455
  33.7499595   1.4959578  38.0205107  33.3752728   2.1215124  37.4004126
  33.5762334   0.6391106  37.6308131  35.7021546   1.5051645  27.1916723
  35.4100156   2.0253213  26.4431262  36.6043329   1.7874794  27.3420262
  81.2719822  63.6746264  47.8323507  81.1445904  64.2603588  47.0860815
  80.7722187  62.8894997  47.6086473  18.6919689  81.3975620  24.4759607
  18.9771473  82.2859573  24.2622828  18.3251095  81.0606575  23.6585617
  71.3543987  40.3221035  30.9653282  72.1664143  40.6125450  31.3806772
  71.2253523  40.9321356  30.2390742  30.4085994  26.2825942  44.7375822
  30.5782676  27.1944857  44.9740028  29.5916939  26.3122940  44.2395687
  15.9869933  41.3084507   9.1344488  16.3692129  40.6912422   8.5105985
  16.5728784  42.0650768   9.1123301   8.9750206  69.5960999  11.2013376
   8.0854511  69.5694590  11.5537393   9.5309812  69.3313313  11.9341660
  71.0021734  86.1477947  68.1240702  70.5453730  85.8390713  68.9065361
  71.2071180  87.0636940  68.3120871   4.4912606  37.1160269  58.1378698
   5.2789837  36.5801263  58.0454731   4.3229452  37.4484372  57.2561646
   4.4244069  44.3053961  52.8127241   4.5988923  43.3720493  52.9337740
   4.0802971  44.5962334  53.6572552  61.8346786  75.3431845   1.6561127
  62.7815771  75.3744793   1.5196089  61.5386772  74.6114969   1.1145909
  91.0736752  60.0725412  29.1645241  91.9305706  60.4902124  29.2511940
  90.8613014  59.7757244  30.0494123  87.0499802  44.8547316  23.9226151
  87.4128246  45.7369280  24.0020132  86.6681385  44.6745920  24.7816706
  27.0425487  36.5193367   6.2958628  26.7993641  37.3507929   5.8887118
  27.4067187  36.7663717   7.1459126  23.7011075  27.0894694  24.2151904
  23.8211513  28.0108547  24.4451332  24.4032526  26.9048476  23.5913825
  23.2633257  12.6288342  16.1936450  23.5057902  11.7559314  16.5026498
  22.7711582  12.4696600  15.3882480  78.7232828  72.8603697  27.8780913
  79.0229034  73.7284231  27.6080179  79.1526794  72.2588062  27.2698379
  70.8089590  38.6442709  27.2491503  70.9499693  38.0102134  26.5460706
  71.2406015  38.2572603  28.0108190  35.8181667   3.7785369  33.9180255
  36.4812374   3.9768147  33.2567716  35.0123024   3.6493185  33.4179091
  24.2275000  23.7102437  21.7123771  23.9450479  23.3234835  20.8836007
  23.6119413  23.3658981  22.3594832  22.3620176  80.7515621  25.2610826
  22.1273685  80.8038616  26.1876011  22.3929548  81.6629124  24.9700332
  70.5991459  13.2371366  45.5936432  69.9566793  12.6985705  45.1316738
  71.1829424  12.6057565  46.0140896  28.6456275  21.0143924  11.5952981
  29.2201495  21.2568402  12.3215044  28.2358146  21.8374300  11.3290381
  50.3641176  22.6204586  74.3361282  50.4077721  23.5633302  74.1770077
  51.2722445  22.3245931  74.2729235  14.3825567  27.6862955  32.7907157
  14.9234223  27.7531004  33.5776281  13.6270499  28.2456493  32.9711652
   5.7059544  34.6281838  26.4732885   6.6518807  34.4965839  26.4089680
   5.3330630  33.9842963  25.8711338  77.2797298  74.5484924  12.8135061
  76.9599676  73.7099171  12.4806786  76.4872646  75.0290775  13.0528224
  83.3590126  73.0045986  42.3932600  83.0055809  73.4800673  41.6414261
  84.3086720  73.0758953  42.2968626  73.7129021  22.5010943  55.6691122
  73.0337477  23.0473948  55.2734661  73.2306051  21.8597794  56.1909676
  38.5834789  82.5812817  16.2894654  37.7936673  83.0352402  15.9956050
  38.2766151  81.7144680  16.5553319  82.0270729   0.5730089  13.7580812
  81.9264412   1.4173409  13.3185267  81.4422321  -0.0162473  13.2816601
  69.1772127  78.9068174  34.6459913  70.0745821  78.7003040  34.9073553
  69.0453815  79.8097944  34.9349308  47.9757166  59.5636797  68.9777040
  47.7226305  59.8576021  69.8527956  47.1916389  59.1368961  68.6322975
  59.2022324  78.4177160  71.0140848  59.7848749  79.0918112  70.6642914
  59.7460127  77.6312971  71.0597277  20.6500769   1.1451270  15.3269517
  20.3885102   1.6500241  14.5569563  21.5638399   0.9126988  15.1618838
  57.0177126  79.1788721  17.1675503  57.7455235  78.9600468  17.7494764
  56.7899466  78.3498716  16.7467129   9.1065103  22.1949363  24.7390509
   9.2791182  22.8158236  25.4468203   8.9952248  21.3530803  25.1807833
  58.2403278  31.0405684  14.6688974  59.0288448  31.4514279  14.3144011
  58.4436178  30.1053238  14.6838510  60.5138683  56.9033480   2.5916258
  61.0106182  57.6670504   2.2979763  61.1452341  56.1842203   2.5701436
  26.5323496  25.0849390  23.4822631  26.1745572  25.4844928  22.6894379
  25.8771491  24.4366193  23.7403893  28.2432199  29.0462041  34.9549937
  27.4415898  29.0786886  35.4770684  28.2168317  29.8433423  34.4257402
  62.0035887   4.7405410  22.6467156  61.4052916   4.2281356  22.1029258
  62.3126554   5.4391634  22.0699668  15.4665220  19.7386515  16.7556787
  14.5699000  19.5694768  16.4664042  15.6379676  20.6417274  16.4886713
  46.0413313  60.7760763  23.8643336  46.6859770  61.0998821  23.2351995
  46.0538244  61.4196444  24.5727777   9.7631419  23.1322145  48.3947945
  10.4557490  23.7407899  48.1375694   9.7169745  22.5035739  47.6744366
  20.2070713  49.7495079  42.5262690  19.5354593  49.1697216  42.1670771
  20.7097054  50.0352859  41.7634296  45.1516771  35.9243345  29.2080593
  45.6973076  35.1675224  28.9941597  44.9905777  35.8453774  30.1482964
  32.3938155  26.3632607  39.1797113  32.2565222  26.7412138  38.3110714
  33.2054043  26.7647958  39.4900775  72.7681971  12.6834881  74.1029596
  72.9074574  11.9001424  74.6351337  72.1125078  13.1872129  74.5852137
   2.0043784  77.6305437  15.6240869   1.5001085  78.2008505  15.0438356
   1.3609698  77.2944689  16.2480366  87.8763676  16.3243175   7.0383614
  87.7876472  17.1880245   7.4413157  87.0945072  16.2326157   6.4938307
  24.8560047  42.5785971   7.5387853  24.1195822  42.8506804   8.0864024
  25.0713515  41.6983604   7.8470713  12.3802912   6.1523795  51.0919714
  12.6979315   5.6176555  50.3643703  11.6357255   6.6323084  50.7293129
  19.2715728  47.2003269  63.4820509  18.6071289  47.0255804  64.1485405
  18.8329101  47.7699232  62.8500938  22.9270840   0.9547186  26.8429732
  22.1405077   0.4970082  27.1396708  23.0503559   1.6574264  27.4811244
  82.6150322  28.8201952  53.1669521  82.9076862  29.4830275  53.7924433
  81.6641712  28.7934732  53.2736349  20.3989816  20.5927896  18.7871456
  19.8745692  20.9954953  19.4792807  20.6183362  21.3168883  18.2008040
  50.2893496  70.8038187   8.4184670  50.9065533  71.0211277   7.7198482
  50.8372545  70.6886053   9.1948432  26.6674161   9.7610992  28.1083417
  27.5845695   9.4889951  28.0764461  26.6615009  10.5145061  28.6987448
   2.3886853  41.7119884  34.2090297   3.0886325  42.1085072  33.6903024
   1.5831119  42.0774651  33.8433695   7.3878694  16.7334938  23.2388186
   6.8767613  16.9796920  22.4678564   7.7650762  15.8828378  23.0144739
   4.4438547  63.0438614  19.9449003   4.6714950  62.1667337  20.2532220
   4.9886423  63.6309004  20.4691339   6.5071225  43.1219625  17.5503135
   5.6040817  42.8151608  17.4689257   6.6424030  43.2210398  18.4927118
  31.2729073  22.5718594  21.8313742  31.9026303  22.9815125  21.2381935
  30.4525542  23.0373859  21.6684747  43.9414310  69.1753387  66.5103531
  43.3224773  68.7177086  67.0793056  44.6671629  69.4124985  67.0876694
  30.5588889  28.0660677  40.2629900  29.8215008  27.6817250  40.7370901
  31.0510397  27.3135257  39.9348140  91.4291477  83.6880779   8.5424769
  91.7579746  83.8129807   7.6522493  90.8354950  84.4254494   8.6841893
  65.1790476  62.6208258  26.2358093  65.1641130  61.7342329  26.5963197
  65.0146532  63.1883860  26.9888544  13.8655472   7.9766715  47.5258255
  13.1873512   8.4411317  48.0162954  14.1431367   7.2712457  48.1102514
  34.0869045   1.5924160  48.8708401  34.4063759   0.6902979  48.8896370
  33.1390977   1.5131466  48.9785862  86.3900375  78.3762598  56.7379999
  85.8010292  77.8555918  57.2840834  86.0647583  79.2725754  56.8219185
  73.6020517  44.9576426  17.3967957  73.5050583  45.6803131  18.0169344
  74.5096874  45.0179291  17.0988059  80.8535290  24.2642951  32.4775290
  81.2438202  24.9817133  32.9767418  79.9448395  24.5331025  32.3424053
  87.4459362   8.3455443   3.4795663  87.6117611   9.2688358   3.2891259
  86.6887665   8.1216174   2.9384804  15.3168356  25.4436898  36.4210963
  16.0935223  25.9535813  36.1908770  15.6632745  24.6535444  36.8356848
  27.6682353  31.0523558  14.1453385  27.7142859  30.4869485  14.9163294
  28.4307218  31.6257834  14.2229605   5.8501071  64.9711895   8.1297630
   4.9573666  64.6284771   8.1720901   5.7923067  65.7169437   7.5324798
  46.0529041  57.9555464  68.1342220  46.2094593  57.0268583  67.9631853
  45.1304054  58.0006027  68.3856106  16.2189412  35.1252770  64.8443270
  15.4144919  34.7438860  65.1959419  16.9206858  34.7030449  65.3398085
  25.1600957  13.4547031  28.4305072  25.9536290  13.0795336  28.8123226
  24.6236777  13.6988127  29.1847610  87.1895504   9.3074816  48.8548422
  86.3278294   9.3765491  48.4438705  87.1401215   9.8884344  49.6139765
  53.8524485  75.3671074  34.0167093  54.1033602  75.9097862  33.2691979
  53.2963753  74.6844721  33.6411738   2.7098304   7.4603480  30.8195782
   3.5453033   7.0111614  30.9478307   2.7802864   8.2534689  31.3508272
  21.4481425  39.8594356  28.6524892  21.3080001  40.7963943  28.7892389
  22.3945069  39.7438574  28.7377334   4.6739432  83.0950832  12.3677874
   4.6325552  83.6395741  13.1539488   5.4733992  82.5797462  12.4751723
  67.4424887  63.8470602  70.6150532  67.5375748  63.9122105  69.6648169
  67.5272369  64.7481680  70.9265852  66.5101576  74.8725224  40.7340240
  66.2711954  74.2752361  41.4428139  67.3205805  74.5088768  40.3773642
   3.3499166  26.3972497   0.4880896   3.2265601  25.9365702  -0.3418431
   4.2579094  26.2153363   0.7303472  38.1943083   6.0578102   3.5115594
  37.4572086   6.4044178   4.0143302  38.8384771   6.7658186   3.5118699
  83.9181423  75.3946495  72.1765423  84.4913197  75.6284523  72.9066324
  84.1822815  74.5055723  71.9398737  30.9070516   0.5577452  26.8343091
  30.9890295  -0.0319784  26.0848212  29.9777914   0.5280096  27.0619488
  36.8502498  19.9282479  70.1313782  37.7000380  19.9304736  70.5719376
  36.2566090  20.3480577  70.7539368  71.3398409  48.3122015  46.4519405
  70.7817841  48.8991165  46.9621754  70.9354782  48.2911253  45.5846024
  10.4401815  30.1288247  36.7416739  11.0014331  29.6200442  37.3267984
   9.8824131  30.6392503  37.3286963  83.6241627  21.1675239   3.7390265
  82.8197861  20.6621289   3.8564426  83.9422989  21.3214827   4.6285880
  22.6567197  17.3843992  53.2071447  21.8665528  17.1426022  52.7240229
  23.3566475  17.3478091  52.5552273  23.3565617  22.1953535  73.9544439
  22.5047088  22.5700164  73.7303829  23.1669426  21.5712857  74.6550274
  57.5135088  24.2679143  56.8299198  57.9200315  23.4904575  57.2127104
  57.4224567  24.8762798  57.5632906  80.9811020  82.5114441  53.1591272
  81.1508560  83.3991337  52.8438234  81.3490772  82.4966335  54.0426445
  79.9469566  37.9795814  38.0348420  80.8705616  38.1894898  38.1731176
  79.5205545  38.2221484  38.8567734  13.3893609  23.4976864  10.7179391
  13.1041884  23.9631319  11.5042388  13.5286570  22.5968766  11.0101187
  31.8364954   2.4014772  62.7283096  30.8995342   2.4023114  62.5325155
  32.0043898   1.5321597  63.0920839  20.0309610  35.7548356  25.1604700
  19.6932781  35.2936864  25.9282899  19.2504108  36.0936689  24.7221041
  88.5699654  18.4962261  51.0882235  89.3350601  18.5414588  51.6616440
  88.3515644  17.5649309  51.0532808  22.2405314  21.7362761   3.7940389
  21.8960857  22.0407343   2.9544583  22.0814943  20.7923889   3.7900689
  75.1732826  82.1122551  18.6041594  75.1717615  82.7779007  19.2920148
  75.8988190  82.3611927  18.0315697  64.5817900  65.0900888  36.4778399
  64.1627502  64.7340202  35.6943536  65.3497267  64.5346880  36.6121483
   0.1061398  10.7866347  41.5931606  -0.2937788  10.4035044  42.3738718
   0.3842607  10.0332773  41.0722685  66.2819338  71.7795992  21.5273356
  65.5344200  72.3410749  21.7327738  66.2904406  71.1265612  22.2271228
  62.6036263  25.0409198  25.6020784  63.4074354  25.0647426  25.0828862
  61.9840145  24.5505190  25.0618720  21.8395782   8.2890916  10.9102285
  22.4883342   8.0584091  11.5751588  21.1327744   8.7087864  11.4006543
  79.4655514  68.3214378  23.2042480  79.0449858  68.9582205  22.6264358
  80.2864838  68.7394571  23.4641838  73.3583117  86.2451267   2.9001909
  73.4474134  86.1870193   3.8514614  73.6686659  85.3987408   2.5784093
  28.8950253   8.3966380  50.9508419  29.6025348   8.1240857  50.3665686
  29.3205261   8.9637512  51.5939331  60.8151627   4.9884790   9.2206508
  61.4090872   5.7345909   9.1381532  60.9827328   4.4614327   8.4393859
  31.7305923  69.8135757  42.4410868  32.1416211  70.3781128  41.7864227
  31.3498545  69.0965796  41.9339561   3.2063010  14.6397209  24.5378947
   4.1405362  14.4339669  24.5047092   2.9860774  14.8983681  23.6430001
  27.8141737  23.8707185  62.7806473  28.2848120  23.0516291  62.6262951
  28.1495523  24.4691205  62.1130610  31.2122297  24.0031195  35.5817008
  30.8121324  23.3488846  36.1545300  30.9932184  24.8422289  35.9868670
  32.1683693  13.6804080  59.4219923  31.7577600  13.5901070  60.2819204
  31.4349174  13.7003684  58.8072681  53.5783720  36.4676619   3.7693354
  52.8422546  37.0425248   3.5598230  54.3471479  36.9332814   3.4400797
  35.0856948  12.9661989  35.7768631  36.0081196  13.1863940  35.9067774
  34.7142720  13.7356114  35.3452611  76.9861126  21.1537027  17.4747133
  77.7754021  21.5619946  17.8304613  77.0963001  20.2204752  17.6568615
  18.0467069  80.8103943  58.0440140  18.2777035  81.0639763  57.1503878
  18.8872015  80.7293129  58.4948158  19.4836855  33.5714316  32.2348285
  20.3143692  33.1573915  32.4688578  19.3501151  34.2380333  32.9086471
  13.5412264  30.4724216  33.6665177  13.6191702  30.0505710  34.5222020
  12.6715994  30.2222228  33.3544564  28.2751560   9.5206529  42.6888037
  29.1621256   9.8622578  42.8020525  27.7131963  10.2943242  42.7319860
  13.4300685  78.9459181  47.1862745  13.4632182  79.3297100  46.3100147
  12.8885150  78.1632185  47.0846081   1.4848718  73.4160185  36.5399504
   1.0054676  72.9085970  37.1948743   0.8994241  74.1417503  36.3236284
  13.8919115   9.2854279  38.8548756  14.0342188   9.2640769  37.9085541
  14.2826927  10.1123416  39.1372490  20.1358104  38.5338807  21.0686660
  20.2361989  37.8423500  21.7228365  19.8884165  38.0718160  20.2677155
   1.5772201   3.0426908  10.1489151   0.9817515   3.1658605  10.8881569
   2.0547754   2.2397158  10.3572512   7.5792009  84.7347641   7.9314703
   7.2912419  84.6115303   8.8359725   7.4519068  83.8794899   7.5209498
  57.0908260  68.9622211  11.8125904  57.4399900  69.8156786  12.0693493
  57.1300554  68.9652681  10.8562005  77.6275396  63.5707474   3.8740215
  76.9149971  64.1662836   4.1060895  78.3761406  64.1447401   3.7116629
  16.4632618  13.0307794  18.6735451  15.6667781  12.8840005  18.1633472
  17.1085501  13.3252609  18.0308044  10.8478117  72.6370716  32.7473545
  11.6690373  73.0153513  32.4331498  10.6054151  73.1801987  33.4973478
  38.3361411   2.1463721  46.2994289  38.0651474   1.2398588  46.4444399
  37.9866362   2.3655927  45.4357052  77.2015476  76.3226652   4.4989070
  78.0464983  75.9632206   4.7692627  77.4068022  76.8763304   3.7455454
  85.9413719  33.2235432  52.7191591  86.7920399  32.9829645  53.0861902
  86.0409260  33.0904007  51.7765045  74.0594482  60.9811115  37.5617480
  73.7267542  60.5047274  38.3224082  74.7833920  60.4436541  37.2403860
  51.8308449  29.8216152  34.8166394  52.7572823  29.8975825  34.5882130
  51.5713120  30.7094240  35.0629425  34.2174339  23.5777760  56.0507202
  34.9916840  24.1197109  55.8988190  34.5645881  22.7560544  56.3978291
  45.1589727  35.9114599  11.6141987  44.3267679  36.0038352  11.1503780
  45.8171558  36.2115192  10.9873068  33.7180328  12.5817108  49.9736738
  34.4261718  11.9511557  49.8426294  32.9919457  12.0591128  50.3141499
  81.9291306  60.2852583  21.1433768  81.0963440  59.8687792  20.9214878
  81.7880154  61.2144852  20.9621239  13.7200999  80.9930325  64.6843719
  13.5179186  80.0574303  64.6870375  14.1557062  81.1463261  65.5228138
  25.8045959  61.8732548  72.7592754  26.3555360  61.4531326  73.4197283
  26.0918117  61.4915895  71.9297743  59.6441698  31.1110473  27.2698379
  58.7361145  31.3827777  27.1363139  60.0608540  31.2412119  26.4179778
  54.9148226  78.7325287  44.8063040  55.8185148  78.8925838  45.0782585
  54.5475864  78.1890631  45.5034542  10.1238155  77.1387434  33.8901734
  10.6956792  77.7973461  34.2844367  10.5186760  76.3016510  34.1342902
  23.3470678  36.2689757  22.8069806  22.8902483  35.9605885  22.0243931
  22.7454209  36.8996334  23.2026148  28.5174394  32.5116706  44.8198938
  28.4326887  31.5722871  44.9830055  28.9384699  32.8546119  45.6081533
  84.7614193  25.0047874   3.1494153  84.4669914  24.7925186   4.0351281
  84.0068913  25.4297733   2.7416056   0.4022386  19.2033350  35.7582927
   0.8046129  18.3500302  35.9201479   0.7840803  19.7779250  36.4218259
  39.2896128  10.1069772   6.8401420  40.1709938  10.0600159   6.4697456
  39.4079494   9.8992980   7.7670175  60.3763390   2.9373026  35.4246902
  60.0184727   2.1425295  35.8202910  60.4173183   3.5660020  36.1453080
  21.8509007  10.7950270  48.4878683  21.5871811  10.6347561  47.5817823
  21.0821843  10.5578649  49.0065813   5.6505728  83.7774563  50.6334066
   6.0430390  83.2831573  49.9137735   5.1670384  83.1231594  51.1377048
   6.6914600  27.6491880  14.1459572   7.5048757  28.1373167  14.2736995
   6.4339447  27.3780465  15.0270927  40.2390051   9.6089303   9.3452090
  41.1763859   9.4174302   9.3155938  40.1719284  10.3936374   9.8892373
  13.3918881  28.5109711  35.8475518  12.8348911  27.8775334  35.3950691
  12.9363441  28.6851239  36.6711926  28.6364985  45.1934099  60.8219624
  29.0561748  46.0348988  60.6430912  29.0618539  44.5811987  60.2215481
   8.5853350  62.4478149  48.1453800   9.1872156  61.8558121  47.6942635
   7.9970139  62.7606106  47.4581623  21.0292935  22.8222752  16.9117630
  21.6405201  23.3503366  16.3981628  20.3840566  22.5154328  16.2747777
  23.9016676  17.1111667  14.7558510  24.8313284  17.0455098  14.9741507
  23.8323355  17.9164767  14.2431128  49.0441895  24.2409587  50.2198410
  49.6440506  23.8620996  50.8623838  49.3219709  23.8674164  49.3834543
  15.9952736  40.7394457  18.6287451  16.3232970  41.5783262  18.9526534
  16.1602879  40.7655525  17.6862371  42.1189642  25.4700637  31.0415864
  41.2848997  25.2703571  30.6165051  42.7820015  25.1429796  30.4336166
  90.4860115  47.6244926  66.6397047  89.9954319  47.1730042  65.9528875
  90.2643776  47.1522379  67.4422550  14.1832638  70.6383991  25.5120349
  13.7549996  71.1735010  26.1802363  13.7419105  69.7906733  25.5649257
  33.1744099  13.1696367  29.9665403  32.6871181  13.5586154  29.2402649
  33.6479425  13.9037991  30.3576946  39.6874619   3.9271981   4.6147478
  38.9631057   3.4934220   5.0657260  39.2644954   4.5693448   4.0446773
  41.0059023  18.5970128  11.7272210  40.3555202  19.1362476  12.1771717
  40.4950333  17.9021561  11.3119900  19.2251205   9.7607630  50.1193762
  18.2734907   9.8638737  50.1199102  19.4882119   9.9607670  51.0177135
  73.1560612  78.0858374  16.3230026  72.4006748  78.5236120  16.7154074
  72.7866602  77.5618792  15.6121969  15.3109694   8.8297576  70.5714893
  15.6900203   9.7009259  70.6881857  15.1670969   8.7555665  69.6280766
  47.9556131   9.9526650  36.8510175  48.0749273   9.0708917  36.4982128
  48.8401318  10.2435648  37.0729160  23.1445956  48.9636230  42.8707218
  23.6894560  48.1939650  43.0350018  22.7203941  49.1404152  43.7103844
  29.0402031  28.7510753  16.7021048  28.2518077  28.2529926  16.9179261
  29.4701791  28.2352185  16.0200167   6.9481498  79.2673397   4.4949138
   6.7218786  78.4915352   3.9819205   6.5840775  79.0948820   5.3632122
  49.3407583  13.9300692  37.0826316  49.9243402  13.1907082  37.2529650
  49.6100760  14.2547750  36.2234068  26.8459344  23.4656525  40.9450817
  26.5861750  23.1839776  41.8222475  27.4038315  22.7582312  40.6217623
  24.8688173  52.5120878  34.5354033  24.9790168  53.3954716  34.1836548
  25.6915927  52.0681429  34.3300152  28.3610392  36.4437246  15.7802725
  29.3148017  36.3811064  15.7288229  28.0555105  35.5435705  15.6679952
  39.0880752  62.2157383  12.7499938  39.2168188  63.1032753  12.4154353
  39.9556065  61.8139505  12.7032137  22.9752374   2.8312719  11.9526815
  22.5218368   2.0738444  11.5825939  23.5499144   3.1335771  11.2494111
  54.9892330  28.3421135  17.9951894  55.1434565  28.8819981  17.2199655
  54.0544748  28.1385493  17.9631960  29.2580009  26.0656738  30.1318359
  28.3656645  25.9815001  30.4678130  29.7602510  26.4109468  30.8699179
  14.2959690  85.6704426  14.4455934  14.3685174  86.3187313  15.1460934
  13.6780643  85.0217438  14.7826529  18.7602782  26.5636325  52.5085545
  18.2498181  25.8285928  52.1688747  19.3917191  26.7572021  51.8157005
  83.1095456  37.8451868  74.7652419  82.3073339  37.3879000  74.5131025
  83.6361050  37.1791311  75.2072020  45.4255772  18.4505486  42.5143480
  45.7385826  17.7566373  43.0946493  45.8504868  18.2711744  41.6755962
  86.2990570   7.0733994  13.4925151  87.2319508   6.9084156  13.6293483
  86.2306404   7.3087126  12.5672162  36.8115377  18.5675669   5.9438777
  36.5025425  17.9035258   5.3275955  37.4892640  19.0432084   5.4635805
  37.7195263  14.2835724  26.2194061  38.0084634  15.1662683  25.9879041
  36.7645550  14.3433285  26.2456727  30.2731586  37.9800844  51.7012978
  31.0167027  38.5293174  51.4528656  29.5043349  38.4769154  51.4214754
  81.0436440  31.9659543  64.4969559  81.2592411  32.8846693  64.6573162
  80.6933975  31.9540787  63.6062145  11.8913889  32.9275417   1.0867920
  11.1215305  32.4790382   0.7369450  12.4235952  33.1261277   0.3163690
  28.7356186   9.0023547  15.6249380  28.1896782   8.2374501  15.4429960
  29.5984459   8.6388838  15.8240688  55.9032917   8.8191730  45.1127481
  56.4113045   8.2857507  44.5015097  55.5984592   9.5596170  44.5882893
  13.9577842   5.0796914  19.2585325  14.6721864   5.2909172  18.6574960
  14.2204881   4.2520842  19.6613789  60.1609707  27.3522401  25.6467605
  59.7185516  27.6824379  24.8647952  59.7713852  26.4908481  25.7966256
  43.7254381  24.0922880  25.6797218  44.1470766  23.2368207  25.5983162
  43.5773754  24.3732309  24.7767377  12.0595968  74.6212769  71.6158056
  11.2522674  75.1345205  71.5837526  11.7869985  73.7317419  71.3907480
  62.5915241  50.5803919  36.2419367  62.1513557  51.2849092  35.7663918
  63.4715939  50.9176779  36.4091182  69.9385881  81.5768337  40.3342438
  70.8262300  81.9289112  40.4003000  69.9542904  81.0339546  39.5460415
   7.3315907  58.8901615  54.3394423   7.2161472  59.1863632  53.4365749
   6.6332507  58.2491589  54.4723654  23.5616565  68.1132650  11.6304255
  24.2478061  68.5456133  11.1219966  23.0857491  68.8305521  12.0490444
  22.3738742  21.2232113  25.0025582  23.3147788  21.3423944  25.1318884
  21.9760084  21.5777683  25.7976842  26.1769438  19.7508371  49.4260597
  26.0765052  18.7991059  49.4072771  25.2810502  20.0854754  49.4663286
  13.6454129  85.9606647  60.3783989  12.9266274  86.4899158  60.7240391
  14.3919754  86.5591145  60.3512764  30.6893539  18.1604040  46.4195490
  31.0856318  17.3370790  46.7047358  31.0587716  18.8200223  47.0066309
  20.5001569  38.4160709  42.9688406  20.8225584  38.7651944  42.1379375
  20.1504207  37.5532341  42.7465153  83.4111691  64.5307779  16.8109965
  83.0229664  65.2759361  16.3524413  84.2154026  64.3440437  16.3266730
  33.4933162   4.8896089  27.9793739  33.1457281   4.1962904  27.4183702
  32.8192186   5.5690557  27.9659963  38.6199784  27.9236317  46.5762711
  39.5565772  28.0664277  46.4397955  38.4580302  28.2323527  47.4677324
  45.8248377   6.0411805  61.7644072  46.3508654   6.2022847  62.5477171
  45.6715918   5.0963384  61.7689705  26.5656924  36.6835666  37.5844169
  27.1978664  36.6878724  38.3031464  27.0421410  37.0593071  36.8441153
  10.6957555  65.1467323  64.0049791  10.6309080  65.3995323  64.9259138
  11.4210486  65.6697941  63.6635256  21.0659575  23.6636925  48.9631891
  21.6970706  23.6228299  48.2446766  20.3817630  24.2541051  48.6477184
  69.7719145   8.3853227  11.1843145  70.4705095   8.9593399  11.4984787
  69.7536755   7.6639295  11.8131948  49.4987011  15.7796848  35.0348759
  49.6625376  16.5753984  35.5410671  48.6337185  15.9156716  34.6481586
  27.8871560   0.7839920   6.4444840  27.6120496   1.3288398   5.7071310
  27.0811701   0.6179049   6.9333953  31.9724941  16.8552279  29.3048382
  31.6058612  17.6206982  29.7474098  32.0674109  17.1286964  28.3924580
  34.6847320  20.5031562  42.6398373  34.5438147  19.6799946  43.1075764
  35.6076241  20.4799676  42.3869276  61.6998434  17.2058427  28.8302875
  62.3002720  17.8163922  29.2580104  62.2405958  16.4436626  28.6231565
  73.5283613  57.4094772  71.8559742  73.4415293  58.2893896  72.2226334
  74.4130373  57.1354485  72.0978212  22.8567958  48.4139538   5.2585953
  22.6237202  48.0266094   6.1023194  22.4468327  47.8410244   4.6105909
  87.4018574  30.2620149  27.1325326  87.1182251  30.0335145  28.0177259
  87.9040146  31.0694170  27.2428632   5.3045994  43.1403542  26.8488216
   4.5124215  43.0220890  26.3247013   5.3818107  44.0884399  26.9556117
  79.5569420  17.6155210  67.0914125  80.2478218  17.8109133  66.4583778
  78.7530518  17.9196262  66.6700935  15.4486156  85.8601475  55.1493835
  15.9467506  85.8281040  54.3326426  16.1141527  85.9377384  55.8329535
  44.2948246  21.6639876  49.2146397  44.0891171  21.8805194  48.3052254
  43.9461613  20.7807493  49.3353033   4.5763633  37.9917169  29.9735451
   5.4351753  38.0559134  30.3913403   4.7702646  37.8062439  29.0547228
  82.9733562  34.1524792  51.0989809  82.7153111  34.8235059  50.4670191
  83.2283688  33.4026456  50.5614424   2.4541143  17.6433218  42.2113562
   3.1714135  18.0827963  42.6680565   2.7394050  16.7326033  42.1376514
   7.8195834  59.3847561  32.0400929   8.2487053  59.5734549  31.2055373
   7.3734117  60.1998949  32.2696900  11.9752359   8.5592192  27.6203728
  12.8815556   8.5286403  27.9267693  11.8481982   9.4650513  27.3383045
  11.1315966  22.8659630  45.1392365  11.9691813  22.7693367  45.5923891
  11.1333418  23.7693143  44.8227119  23.5851979  24.6144605  25.7126570
  23.3625722  25.4578233  25.3184390  24.3152547  24.8099136  26.3000655
  91.9027061  42.3858213  16.4423144  91.7362123  41.5902615  15.9367490
  91.1859498  42.9744291  16.2055969  71.0795689  36.5990996  73.4660530
  71.8088961  36.0697675  73.7887335  70.6432486  36.0394502  72.8236771
  50.4992056  43.9033508  19.0972543  50.4533005  44.0460730  18.1518686
  51.4252138  43.7323284  19.2689753  42.0484400  20.1550174  35.2702284
  41.5028429  20.3538227  34.5092845  41.5259314  19.5405257  35.7856083
  35.5257750  75.8424807  10.1784599  36.0110807  75.2466679  10.7491755
  35.5637288  76.6874409  10.6265998  51.8012238  37.9490447  13.0000091
  51.8678284  38.7689757  13.4894073  51.3299131  37.3575354  13.5867071
  72.1545410  32.2939777  17.7454698  72.5488949  31.5198326  18.1472361
  71.4831209  31.9441366  17.1597767  30.0278926  16.4736342  13.0553198
  30.2996969  16.9945312  13.8109791  30.3085709  15.5828583  13.2650089
  23.3122230  39.3188238  48.3449173  23.5984302  40.0978041  48.8218927
  22.4491453  39.5513082  48.0024576  17.4537706  31.7095566  32.8653669
  17.9744697  32.3690438  32.4069142  17.0531404  31.1924553  32.1665573
   5.8300352  28.9293861  70.1739216   5.3932714  28.5779381  69.3980646
   6.5480757  29.4579935  69.8257494  16.8980134  31.4036489  19.3125808
  16.5090382  32.1918631  19.6915901  16.1919844  30.7574677  19.3269324
  15.0076020  28.8405061  63.3016682  14.8278344  27.9012942  63.3440447
  14.1771221  29.2541814  63.5370541  20.0594711  20.3724933  46.4450741
  20.1628590  20.2562308  47.3895454  19.5415652  21.1727071  46.3575363
  40.5822468  36.5482330  44.3543243  39.9455452  36.0722923  44.8875427
  41.2098217  35.8804917  44.0777206  10.7417476  68.1397772  35.4854894
  10.2376378  67.8658581  36.2516952  11.3996148  67.4535131  35.3737593
  34.9729395   4.4812611   4.8281321  34.1505194   4.6848470   5.2735645
  35.5862761   5.1456457   5.1422071  18.1944263  25.0668836  16.3319707
  18.7514532  25.1134682  17.1090043  18.1590724  25.9670067  16.0083032
  18.2229221  48.1448030  41.2066650  18.8087213  47.4085331  41.3826752
  17.9641688  48.0316687  40.2920723  33.8750291  26.0678768  16.2225354
  34.2984128  25.5160737  16.8801761  34.2504382  26.9373107  16.3617492
  22.1574402  71.8297100  35.0667286  22.5796890  72.0292568  34.2311954
  21.3779974  72.3851633  35.0798726  57.4570417  79.4102573  45.2739668
  58.0330467  80.0859833  44.9164248  57.9429388  79.0490770  46.0153770
  40.1831341  21.3062286  33.1424880  40.5421019  22.1895218  33.2271361
  39.9393773  21.2341762  32.2196531  25.2422380  17.0688951  39.0377188
  24.4402504  17.5862455  39.1111827  25.3432465  16.6602588  39.8973966
   5.1549941   6.1513925  31.2635231   4.9338037   5.2202934  31.2445211
   5.4054844   6.3195741  32.1719289  14.1841173  84.5837784  19.8389161
  13.6692369  85.2517509  20.2916312  13.9718223  83.7687016  20.2936769
  80.6227303  22.5320363  54.2074871  80.8058071  21.6334033  53.9333105
  79.9358082  22.4455476  54.8684645  13.8269484   2.2093426  30.6168365
  14.0049267   1.5097336  31.2454081  14.0497029   3.0141175  31.0847569
  16.3699389  11.6334522  65.3381491  15.6062818  11.6984057  65.9115982
  16.6434181  10.7186759  65.4061651   6.7110318  81.5882492  55.5114222
   7.4318212  81.2635994  54.9717045   6.3763982  80.8101654  55.9573317
  45.7290888  48.5020638  15.5411363  45.3803682  48.4059095  14.6549213
  46.4026260  47.8252459  15.6082320  18.0413675  27.9372287  49.8608780
  18.0551279  28.4540153  50.6664705  17.4565518  28.4198570  49.2766762
  33.5920501  21.3591647  39.1363645  33.7599683  22.0045996  39.8229861
  32.6378918  21.2936449  39.0974021  28.5964417  22.9692650  23.4010768
  28.1868625  22.2711372  22.8901029  27.9353380  23.6606526  23.4350491
  36.0471511  24.6731758  59.6177721  36.6527224  24.5728922  58.8832951
  36.6133261  24.7725821  60.3831482  43.3432674  32.9403472   6.9830734
  42.5166368  33.4196782   7.0392406  43.6979961  33.1743073   6.1253661
  13.8360667   1.2370571  10.9796178  14.7377753   1.4780262  11.1919534
  13.4103990   2.0672195  10.7654452  37.8371239  32.9754567  44.9923897
  38.7882972  33.0817842  45.0063848  37.5867844  33.1773639  44.0908384
  25.8868432  23.7080383  49.5934916  26.7213964  23.4598780  49.9911976
  25.8408356  24.6574879  49.7060204  28.5256577  65.4176950  15.1112902
  27.6184320  65.6242323  14.8865330  28.8740516  64.9879646  14.3301463
  14.0488684  21.1731863  41.8820000  13.3875287  21.5618944  41.3094902
  13.7043786  20.3048897  42.0908594  58.5009432  25.1688623  36.2061405
  59.2310476  25.1618528  36.8251181  58.2092714  26.0804009  36.1901093
  33.7422037  14.9794972  34.5002842  33.0287695  15.5711532  34.7394180
  34.3662381  15.5338490  34.0317702  28.3939028  15.3612673  27.8455639
  28.7110782  16.1419308  27.3914766  27.6003933  15.1138568  27.3708391
  84.6074677  26.4269447  45.4943132  84.8595333  25.9519124  46.2861681
  85.3791714  26.9475555  45.2714443  90.9364796  74.0115881  33.5460758
  91.2701321  74.5887136  34.2329764  90.0047112  74.2227888  33.4874654
  86.8744850  78.9453983  44.9364567  86.8094921  79.5425987  45.6816816
  86.8060303  78.0722141  45.3225946  35.1319194   3.4370434  54.2696571
  34.1747999   3.4258917  54.2640924  35.3833699   2.6736704  53.7497902
  74.2135859   2.8000808  17.1349049  74.0817547   3.1512961  18.0155301
  74.6749496   1.9729391  17.2735202   8.2408464  38.1198668  22.1627402
   8.7958354  38.6282539  22.7541471   7.9075795  38.7619257  21.5359044
  41.2583542  19.7075570  68.4593487  40.5156326  20.2305222  68.7611771
  41.7115736  20.2735114  67.8344345  22.5590611   7.4942756  66.1376143
  22.1763563   6.6182005  66.1851740  23.4986329   7.3401791  66.0391712
  34.4088650  44.1859627  51.0106134  35.2792478  43.8655233  50.7740068
  33.8955450  44.1003275  50.2072430  55.3339911  33.7790036   3.4475297
  55.4030466  33.4637761   4.3486929  54.4073725  33.9930868   3.3390158
  52.0595264  34.5586061  26.1795855  51.7492294  33.6541057  26.1368847
  52.9797697  34.4844389  26.4323449  15.6525528  17.3358369  50.2555513
  16.1675525  16.6078866  50.6035423  15.4325461  17.8624701  51.0239840
  59.9656343   4.4356564  17.8233981  59.8794556   3.5041201  18.0259955
  60.0081444   4.8637980  18.6784530  39.9929643  27.8195024  54.7487974
  39.7159624  27.0051169  54.3289423  39.4614482  27.8722978  55.5431080
   1.7608666   9.9393439  71.6148949   1.1942349  10.2450049  72.3232269
   1.3460609  10.2683318  70.8174419  56.6765308  17.5895751  13.7497580
  56.3786745  18.4781206  13.9446867  56.6553402  17.1392155  14.5941269
  11.8367279  35.8263135  20.8438873  11.1382985  35.5359411  21.4304972
  11.5290964  35.5886984  19.9691701  16.9846761  34.1764855  67.9805803
  16.0388446  34.0835118  67.8666019  17.1063232  35.0906944  68.2368183
  23.7939429  42.0931435  65.2456141  22.9827476  41.9475174  65.7324266
  24.4086504  42.4271774  65.8989048  14.2159641  29.2890286  26.1585069
  14.0960956  29.2478800  25.2097344  14.6053612  28.4451437  26.3875484
  32.8459764  43.0688047  12.2870922  33.6484170  43.5145807  12.5583887
  32.4184990  42.8244495  13.1079364   0.9265909  34.4597387  17.8766763
   0.7836997  34.9715781  17.0805395   0.2991373  34.8154640  18.5059559
  48.8436317  31.0118008  19.1398406  49.5396709  30.3554440  19.1706634
  49.1676950  31.6761923  18.5317266  47.0687294  18.5575938  37.1898508
  47.9335165  18.3171999  36.8573022  46.4678049  17.9542279  36.7527342
  19.0649641  49.4782448  28.1380105  18.1378639  49.2425108  28.1041670
  19.1247725  50.2882767  27.6315451  20.8188534  53.2157183  43.6434698
  21.4890575  52.5953674  43.3567238  20.3251743  53.4191513  42.8490353
   4.0609711  17.5476992  12.7482843   4.6880400  16.9781542  13.1939697
   3.4111854  16.9479871  12.3817396  27.5110507  23.6629486  26.5959620
  27.9919195  23.8570285  27.4005294  27.8410649  24.2982054  25.9605312
  58.9628887  13.6597610  30.5413651  59.0269995  14.2645073  29.8021722
  59.0997791  14.2093503  31.3130164   8.3662194  80.3638458  46.5598106
   8.0778480  80.9679127  45.8755827   8.9646858  80.8808231  47.0990705
  14.9431646  24.5490694  25.4518819  15.1108766  23.9108610  24.7584891
  15.8130574  24.7948551  25.7666945  81.7015457  29.6692133  33.2023358
  81.6108513  30.1895523  34.0006161  82.4968338  30.0034904  32.7875996
  35.2542329  11.2358856   7.3685431  34.2995524  11.1697721   7.3896533
  35.4437923  12.0901692   7.7564847   6.8059838  19.8083282  61.0257196
   7.4418890  19.1563702  61.3203478   6.2775564  19.9952149  61.8016529
  43.8032484   1.1511280  50.2373505  43.6676168   1.6633619  51.0345030
  44.0174055   1.8013699  49.5683575  23.7189269   6.4010429  49.7433329
  23.8051319   5.9686875  48.8937044  24.6199083   6.5723652  50.0173998
  21.8688560  48.7404299  28.9097834  21.1288166  49.2298841  28.5506129
  21.5779567  47.8285170  28.9047670   2.7838942  60.5309439  14.5825577
   2.6205367  61.4549017  14.7718883   2.6808748  60.0916243  15.4267240
  49.0948963  22.6306510   8.4676832  49.6203327  23.4176445   8.6118507
  49.6623516  22.0542336   7.9558551  19.5733535  48.2558870  47.3100376
  20.1033020  48.2528925  48.1071472  19.6655285  47.3706293  46.9578218
  38.4506464  26.9361043  44.0264130  39.2646384  26.4417315  44.1225624
  38.3422852  27.3845387  44.8651028  37.4059272  19.8008132  42.4382877
  38.3051443  20.1192689  42.5171947  37.3616838  19.0569568  43.0390787
  28.2129502  47.9126883  31.5821958  27.4613285  47.3489666  31.7652488
  28.5868502  48.1004190  32.4431181  85.2517128  50.2190733  62.1447325
  84.3640518  49.9597025  62.3917437  85.4911995  50.8911133  62.7828884
  35.9259415  19.4272089  24.4522500  36.3315797  19.4155657  25.3191710
  36.4228034  20.0837874  23.9641285  21.2668967  14.4078422  49.8202229
  20.9003115  14.6108747  48.9596272  22.1603370  14.1170061  49.6374321
  70.1521158  37.5324178  57.9556990  70.9563923  37.9771471  57.6881361
  70.0839949  37.7050591  58.8947344  42.6320505  40.6345844  34.5656514
  43.0608511  41.4557934  34.8064303  43.1634474  40.2881050  33.8488507
  68.9957952  44.1348696  26.0078931  69.5475006  43.6037683  26.5821576
  69.5713329  44.3816280  25.2839494  53.0413389  26.0457921   1.1047382
  52.9349375  26.9479728   0.8031029  52.3308802  25.9180570   1.7333561
  19.8336351  84.0433788  36.5224171  19.1362131  84.3744373  35.9565210
  19.8906732  83.1113338  36.3120008  47.3503017  14.2629588  41.5903091
  47.5071764  14.6999931  42.4273396  48.1813717  13.8351727  41.3840151
  32.2794080  36.3568854  29.2372489  33.1163025  35.9383821  29.4389796
  31.6265750  35.8096170  29.6737599  38.6727023  42.2292042  34.7019649
  38.9667773  41.4265442  35.1326537  39.0849543  42.9339504  35.2015758
  61.7265940  17.2005260  13.6194241  62.4476910  16.5889430  13.4703708
  62.0436239  17.7804339  14.3118358  44.3648005   9.3170112  33.2796836
  43.6252737   9.1381103  33.8604879  45.1164055   8.9197862  33.7196040
  51.9930172  20.5522203   4.2055815  51.8696260  20.2633667   3.3013859
  52.6665401  19.9680090   4.5538539  47.9038191  28.4770560  41.6813850
  46.9913101  28.3036494  41.4500952  47.9786873  29.4311261  41.6619396
  62.9996204  34.0814805  47.4790573  62.1798325  33.7701178  47.8627586
  62.8329754  35.0009608  47.2716475  64.4031715  39.0807271  39.4492245
  64.4863558  38.6476135  38.5996819  64.5490980  40.0077724  39.2607522
  89.6778393   6.6762942  23.7654066  89.1906929   6.2938881  23.0355549
  89.1681862   7.4468052  24.0159941  53.6625433  19.8918486  30.9857988
  53.1610346  20.7071519  30.9856820  54.0081358  19.8231065  30.0958157
  44.4735527  35.7793927  24.4524336  43.9947033  35.0153899  24.7737360
  43.9103699  36.5228987  24.6675014  39.0019155  45.7112980  23.2713103
  38.1359339  45.4783392  23.6060333  39.3719935  46.2844229  23.9427257
   6.8877870  64.0627766  27.2361422   7.7299714  64.2835236  26.8383598
   6.8734068  64.5565224  28.0560446  14.5248735  51.5926170  61.2363195
  14.1222560  52.3722267  61.6188669  14.4308341  50.9193325  61.9101667
  77.0967913  36.7908835  41.1093473  77.6927805  36.0689330  41.3088942
  77.6549625  37.4594712  40.7122707  79.0506601  69.9632120  68.5566807
  79.9012709  69.5496368  68.4095335  78.5962248  69.3700552  69.1549110
  54.7357655  67.6970911  17.3405147  54.3837690  68.5805178  17.4495268
  54.1719580  67.1459579  17.8832865  74.1985226  14.2579269  40.0995159
  75.1013517  14.2798328  40.4167700  74.1033792  15.0638938  39.5919728
  57.0378399  35.0900650  43.6074591  56.7950630  34.7044897  44.4492579
  56.2119818  35.1588345  43.1284380  58.4362173  41.0486221  45.0979996
  57.9826117  41.7337370  45.5890083  58.7885380  40.4654312  45.7703018
  68.9489698  40.9128428  39.9922156  68.4008884  40.3397655  39.4560957
  69.4592381  40.3144169  40.5378723  27.7890468  30.7413602   1.1715987
  28.5993767  30.7136154   1.6803470  27.1650243  30.2303267   1.6870341
  54.5881939  32.2497678  33.4772134  54.2677879  32.8044415  34.1884875
  54.7063398  31.3891602  33.8792419  66.1631441  16.6003120  20.6101131
  66.0758018  16.9136500  21.5103483  66.7607212  15.8551896  20.6727719
  27.7431440  45.6168318  24.9879408  27.3865604  46.0561991  25.7599735
  28.3581805  44.9739075  25.3409481  43.9544916  43.3437681  24.3950558
  44.6903086  43.2965899  25.0054502  43.3305645  42.6953888  24.7214723
  72.8679323  29.7085834  51.3062477  72.2875261  28.9528108  51.3966274
  73.7150145  29.3998504  51.6277647  56.1079884  22.2444677  32.5386453
  56.8144655  22.7742147  32.9080915  55.3346109  22.8059745  32.5918484
   1.8460049  83.6140823  72.7881527   2.4471600  83.1150436  73.3411455
   1.6865903  83.0461311  72.0343304  34.7992301  26.7486095  40.6803083
  35.2726483  27.5027966  40.3291512  34.6122241  26.9850206  41.5888071
  36.8769956  21.9440603  39.9672556  36.4179659  22.7648640  39.7889090
  36.4508367  21.3028431  39.3985200  58.1566238  39.2988729  47.4161339
  57.4093342  39.6225786  47.9191256  58.4586191  38.5318375  47.9026413
  61.4946795  61.4550447  13.8520491  60.8933258  60.9399366  13.3142078
  61.5062761  62.3182726  13.4386027  25.4615641  12.0568001  58.6426592
  25.3616619  12.6470089  59.3895912  24.9282789  12.4513650  57.9526186
  72.5727558  62.4423265  26.6786909  72.0048475  63.2040787  26.7946458
  72.0386887  61.7001104  26.9617367  44.1222858  42.5550461  41.3950968
  43.4234619  43.1884670  41.5583420  44.4730377  42.8006983  40.5390263
  15.4273915  53.8634062  19.1436696  14.6640730  53.8378859  18.5666716
  15.8222222  52.9957438  19.0570545  55.5218458  33.7483263  31.1478043
  55.5642223  33.1856012  30.3746462  55.5751562  33.1432891  31.8876147
   9.9681169   4.5608369  74.3641853  10.0814116   4.1931719  75.2406645
   9.5869178   5.4258513  74.5147419   3.6025083   5.0195080  28.5935569
   3.3030587   4.4149670  29.2725945   4.5371437   5.1310980  28.7674427
  69.6961212  62.2643137  17.8469133  70.3231621  62.6858425  17.2592318
  70.1709414  61.5147543  18.2059979  78.3427668  23.3373332  45.1967192
  78.1609344  23.6525130  44.3113804  79.1834688  23.7343693  45.4243517
  26.2398148  28.7140012  74.4088745  25.7753944  28.0965376  73.8438225
  26.5223718  29.4127369  73.8188219  57.2195387  77.0471907  43.5251904
  57.7897978  76.3902092  43.9244509  57.0685625  77.6876020  44.2203951
  63.0899811  33.0618238  31.4803481  62.3999882  33.3022642  30.8620191
  62.6612568  32.4714994  32.0999813  48.5618877  79.7949648  20.2753162
  49.2946005  80.1555061  20.7746887  47.7955723  80.2688503  20.5984616
  62.2355223  52.3187590  40.2002859  63.0714083  52.1431875  39.7681975
  61.7762995  52.9088879  39.6027064  86.8640614   4.2299762  47.0443487
  86.1473179   4.3855515  46.4292765  86.8599319   3.2827809  47.1823168
  31.3485909  37.5696230  62.7591038  30.5133653  37.8349352  62.3740864
  31.9770384  38.2154346  62.4362850   0.4942873  54.7654581   8.5156423
   1.2556436  54.7337723   9.0949196  -0.0178454  53.9916897   8.7506545
  30.8158064  48.2669163  55.8436728  31.1330223  47.4804401  55.3997564
  31.0487628  48.9847326  55.2548599  65.8898592  52.5501537  25.4259706
  66.4508390  51.9104195  24.9874830  65.8201408  52.2307539  26.3256121
  73.8983345  72.4779892  11.3001704  74.7824860  72.1112728  11.3048935
  73.9619589  73.2493019  10.7369125  71.8442488  60.8882380  22.7327943
  72.3771429  60.5207729  22.0276499  71.8111658  60.1963902  23.3934617
  28.2876897  22.6398134  31.7142820  27.7819848  21.8271947  31.7263460
  27.6844668  23.2920432  31.3579822   7.2064430  22.4145937  28.6737537
   7.3556024  21.5675521  28.2536316   6.5979385  22.2240210  29.3876410
  54.4707155  43.5212564  43.7998199  54.6836710  44.4456100  43.9280653
  55.0690985  43.2308769  43.1114531  76.5191126  17.9604793  55.2476597
  75.7313347  18.2333064  54.7773409  76.8215561  18.7542093  55.6889677
  53.4586620  46.6774273  19.3891311  53.6727333  46.3514090  20.2632689
  52.8968620  47.4360895  19.5473921  67.5497770  10.2948260  54.5047426
  67.8341150   9.5495141  55.0337934  66.6137886  10.1482987  54.3680239
  54.2021799  61.1744690  12.4920416  54.4919062  60.8940983  11.6238940
  53.8137245  60.3902388  12.8797531  65.0854445  48.3353329  35.7355762
  65.0508022  48.1437969  36.6727757  64.3060160  47.9120541  35.3756356
  74.0072870  80.2421856  33.7704349  74.7755480  79.6794796  33.6736512
  74.3434143  81.0374355  34.1837549  55.1426554  32.4320483   9.2816269
  54.2597294  32.6039934   9.6088976  55.7145977  32.9394412   9.8575342
  51.6532040  19.5578003  26.6978216  51.2537813  19.6838415  27.5585222
  51.0840559  20.0386500  26.0969162  10.5136168  67.9295206  66.2015676
   9.9507982  68.4162855  65.5994654  11.3275421  67.7980995  65.7152700
  43.7351370  46.6517544  10.7882595  44.5948362  46.8175459  10.4013956
  43.2198238  47.4278402  10.5683208  63.1507015  70.8868647   2.5224397
  62.2738075  71.1956167   2.2944948  63.7388229  71.4191055   1.9866525
  48.1817102  35.0170279   9.3610716  47.7571297  35.7077312   9.8698860
  48.3138895  34.3051434   9.9871558  33.3119440  37.3878431   1.6438147
  34.1920662  37.5589752   1.9789727  33.1170058  38.1415176   1.0868529
  46.0997772  63.8062716  19.4538152  45.3587770  63.7988329  20.0596976
  45.9005737  64.5136356  18.8404775  66.5805149  74.9036503  22.2016430
  66.3089991  74.4510126  21.4031291  67.5296926  74.7842026  22.2337151
  30.4812980  18.0629408  65.5692911  31.3489985  17.6711774  65.6685305
  30.4703546  18.7834942  66.1993027  51.4988661  57.9875517  38.1139803
  51.5680075  58.4211683  37.2634363  52.3298788  57.5232553  38.2143784
  84.8742008  51.8531704  44.9304867  85.0493908  52.4049759  44.1682196
  85.4890156  51.1245203  44.8450804  53.0717325  42.8212166  38.4618926
  52.5364351  43.3626461  37.8817749  53.5239267  43.4488726  39.0256310
  90.3115559  63.9984083   8.7637585  89.5964622  64.4930840   9.1639692
  90.0432301  63.0830050   8.8429451  59.4971943  28.3756280  41.1043072
  59.4804287  28.3854532  42.0613098  60.4097509  28.5563326  40.8788776
  46.6323328  69.0255785  42.2870064  47.4514246  68.5871792  42.5175047
  46.4688635  69.6256638  43.0146122  56.4796543  69.6627760  21.7005396
  57.2655869  70.1776981  21.5177989  56.3440084  69.1433382  20.9080648
  60.1436138  75.6430292  35.6530285  60.6013870  75.5920935  34.8139334
  59.2163944  75.6797171  35.4181767  55.0506449  50.4410648  19.2489910
  54.8444080  49.9164486  18.4753764  54.1978359  50.6570625  19.6262133
  54.4519806  78.6344147   2.5003141  54.7926712  78.2832479   3.3230203
  54.5470858  79.5829105   2.5871226  41.2190485  68.8466454  54.1326666
  41.8669796  69.5436287  54.2357588  41.6797829  68.0503225  54.3969107
  59.8310852  29.3543792  44.5623636  59.4569016  28.6025643  45.0217056
  60.7776785  29.2284083  44.6281767  36.3652778  79.3522358  10.5214155
  36.4337111  80.2791595  10.7502532  36.2252998  79.3490076   9.5745122
  52.4505949  63.5497665  42.7091360  51.8966341  63.2878828  43.4445143
  52.8542757  62.7346039  42.4111795  54.9160814  62.2183037  63.4545374
  54.1557693  62.3065472  64.0293121  55.5362558  61.6900778  63.9571333
  55.6773281  54.9545002   4.8210654  55.9118605  54.3527508   5.5275518
  55.8840656  54.4745350   4.0191150  20.2440691  58.9612055  57.0429659
  19.7310138  58.2767200  56.6134405  20.3047872  59.6596098  56.3912201
  72.6254892  42.4227858  17.3032641  72.6216841  42.0181179  16.4358187
  73.0529451  43.2689524  17.1709394  56.3386202  67.7299643  43.5423517
  56.1809921  67.3586512  42.6743031  55.4639816  67.8884315  43.8975048
  22.7788711  68.6774445  33.9034939  23.5288286  68.0838346  33.9412260
  23.0030894  69.3031454  33.2146859  45.1197815  59.4814682  45.0397873
  44.8529720  60.3776217  45.2446175  45.9264040  59.5813513  44.5342064
  72.3866415  66.2582016  20.4359412  71.6843367  65.6081390  20.4155707
  73.1913519  65.7406187  20.4639959  73.4568930  34.9652433  28.8406825
  73.5233355  34.1370821  29.3160439  73.4594488  34.7123718  27.9174924
  33.8731241  11.8464148  65.0329971  33.1724405  11.6624153  64.4073582
  34.2080402  12.7042997  64.7720432  64.5904541  84.5931149  31.9988513
  64.6004343  84.5796585  32.9559040  65.5135584  84.5515537  31.7490911
  49.2178679  56.0437489  42.4060440  49.5258760  55.1379967  42.3749161
  49.6487999  56.4688873  41.6645622  51.2321949  17.1518219  24.1207004
  51.6008806  17.7975237  23.5178995  50.2952194  17.1490622  23.9249921
  69.6939278  86.2292767  21.7621017  69.5793629  87.1082783  21.4009070
  69.4627714  85.6424522  21.0420680  44.2279196  29.5443153  32.0663404
  44.5709848  29.7198987  31.1901498  44.9919176  29.6066594  32.6396227
  91.1485672  81.3676071  73.3761692  91.6252804  82.0169544  73.8932037
  91.8199158  80.9533310  72.8340483  58.0824089  47.0133543  26.6294074
  58.1809711  47.2338915  25.7031894  57.1652031  46.7541599  26.7176127
  68.4134293  54.1331291  46.9869041  68.4382772  53.7773848  46.0986185
  68.2513523  53.3725834  47.5450563  54.4884062  30.0339413  34.9976254
  55.2101231  30.4663277  35.4541373  54.5714092  29.1111898  35.2381921
  44.6830702  54.9148512  49.3718624  44.6390820  54.1251087  49.9109411
  43.7729788  55.1998758  49.2898703  46.7888546  63.1551504  28.8687038
  47.1324873  62.4608231  28.3065128  45.8436298  63.1390619  28.7186098
  50.2140570  57.7164698  40.5715609  50.6856012  57.7930117  39.7420931
  49.9715281  58.6155558  40.7930470  69.1288519  20.4432821  41.0107660
  69.4809341  19.7426069  40.4618359  69.6153498  20.3715730  41.8319893
  57.1977425  59.0030956  24.7695923  57.7727652  59.5331430  25.3215289
  57.7653122  58.3136177  24.4250464  90.6013393   5.9629273  43.2046318
  91.3218594   6.0063833  43.8332844  91.0240173   5.7633966  42.3693037
  66.6306543  73.8385868  12.0424080  66.7653799  74.6899796  12.4585927
  67.5139236  73.5224152  11.8524122  51.0586929  64.3114853  35.4765224
  50.7168579  63.7074375  36.1356950  51.0597515  63.8044548  34.6646428
  78.1110811  55.8301401  48.6013460  78.1587029  55.9546709  47.6534796
  78.4590244  54.9500751  48.7450743  16.9619536  46.7983580  18.9374518
  16.7455220  47.7113295  19.1268539  17.1917999  46.4251900  19.7884214
  59.2429113  81.0954571  24.4248056  59.8622417  81.4819622  25.0438952
  58.4390020  81.6014576  24.5427990  49.4957733  41.7408562  44.6966171
  48.5696411  41.6377926  44.9154472  49.5631886  41.4373446  43.7913179
  56.9292116  62.3500872  13.0987763  57.0785952  62.3125315  14.0435028
  56.0289192  62.0450306  12.9863298  68.2489395  52.2718859  22.0443368
  68.3387804  53.2208824  21.9573307  67.3447609  52.0922709  21.7865872
  55.9415054  55.8090639  42.1026945  55.9137154  55.8163071  43.0594635
  55.0455189  56.0141230  41.8355036  51.0631275  21.6275930  18.4951258
  50.1607943  21.7492795  18.1997967  51.5143681  22.4262881  18.2218146
  46.5455627  58.3764791   0.2393170  47.1876955  58.9972925  -0.1049013
  46.9460249  58.0366898   1.0395706  50.9735107  70.1333523  39.9719429
  51.6024351  70.4990816  40.5939770  51.2442923  70.4839945  39.1234374
  67.8029919   7.6881319  27.2409654  68.6920738   7.3590910  27.1086931
  67.5592327   8.0659401  26.3959360  62.1028996  74.4948435  60.0775671
  62.8572130  74.7208500  60.6217766  61.3459349  74.6403074  60.6450891
  51.3523149  65.0489473  51.5024948  51.5052795  64.4574642  52.2393703
  50.5899525  65.5652905  51.7640877  66.3677216  54.4476032  39.6015787
  65.5419636  54.4088221  39.1190290  66.7486382  55.2910137  39.3570542
  32.2004914  16.7991138  11.0977590  31.5908241  17.0599115  11.7880642
  32.9582071  17.3713756  11.2186480  64.1684961  19.0694320  37.8710270
  63.4232998  19.3018723  37.3170590  64.7649956  18.6019444  37.2863197
  70.9522152  33.3898115  30.8155155  71.2182617  32.4923897  31.0157204
  70.7508278  33.3768368  29.8798299  44.5636797  42.0994854  43.9121962
  43.8050222  41.8081999  44.4179916  44.2455006  42.1501255  43.0108452
  58.9087391  55.1011515  35.2154350  58.8814974  55.6709576  34.4467878
  58.1256390  55.3341103  35.7141471  72.4363232  20.5235267  26.7081141
  73.1186771  20.0164390  26.2682462  71.7192507  19.9019790  26.8334770
  66.7895889  41.7488813  54.5619774  66.7185545  42.0241594  53.6479712
  67.7003050  41.9279766  54.7959709  19.9772382  15.1018083  71.5926743
  19.9342155  16.0502362  71.7145920  20.8262396  14.9520600  71.1767387
  47.0939016  60.6539583  27.3255110  47.1753454  59.8212862  27.7905416
  47.6879311  60.5707932  26.5795588  50.1098204  47.0638418  34.0540886
  49.2648792  47.0673847  34.5038509  49.8890591  46.9429922  33.1305671
   5.0596738  41.8000317  11.5503883   4.4421789  41.1765718  11.9327891
   5.9158695  41.3858461  11.6581511  51.2598038  38.5505795  17.1383190
  51.6445780  39.0742683  16.4355183  51.7205381  38.8340449  17.9280019
  59.2218065  66.5278721   2.6326722  59.9406719  67.1220875   2.8480145
  59.2404318  65.8682394   3.3260459  62.2984695  66.4565468  39.6214581
  63.0112171  66.0098124  40.0782394  61.6834116  65.7584429  39.3965316
  70.6901741  68.0325747  36.6142321  70.5000067  68.6098576  35.8747649
  69.8401642  67.8878736  37.0298958  40.8437586  23.3163476  43.5432768
  40.1970387  23.4226632  42.8456497  41.0067654  24.2060781  43.8563871
  46.4563990  41.0144472  41.9302511  45.8841038  41.3692045  41.2499142
  45.8900309  40.9242105  42.6966143  71.8451405  82.7286243  33.6531401
  72.0069551  82.4674129  34.5596814  71.4439535  81.9587040  33.2500124
  53.4769011  61.0178280  27.3321247  52.9735470  61.5670776  26.7311311
  52.8146505  60.5423784  27.8337288  69.9857330  68.2680178  17.7267551
  70.7108450  68.3537531  17.1078086  69.5979500  67.4164820  17.5249076
  30.2670550  60.4710531  45.2205515  30.3843045  59.9608946  46.0219383
  29.9681997  59.8333740  44.5722580  50.7266998  37.9442239  21.0533834
  49.9592590  38.2009816  21.5645957  50.7671690  36.9921660  21.1438417
  53.1608200  79.4489956  15.8937836  53.9964771  79.7805548  15.5651975
  52.5761938  80.2065182  15.8690715   2.6476270  55.8022976  21.0474730
   1.9578823  55.9551048  21.6933322   2.2326514  55.2583647  20.3780222
  70.7136631  63.5263586  60.0301981  70.9888458  63.0736399  59.2329836
  70.2713585  62.8532076  60.5473709  11.6199732  70.1907301  31.7317462
  11.1572552  70.9289598  32.1281624  12.4009728  70.0786829  32.2737002
  34.1163778   8.2029098  29.3395782  34.1097426   9.0631467  29.7593164
  34.6273279   7.6513076  29.9319410  76.7738676   8.2393909  58.9684772
  76.6391420   9.1631097  59.1801977  77.7097654   8.1709754  58.7796688
  67.3669529  75.9171343  60.2707291  68.2036924  76.2833786  59.9844360
  66.7297697  76.6094637  60.0949097  20.0601101  12.2626472  17.7403092
  20.9383821  12.1069312  18.0876148  19.5717573  12.6270354  18.4785271
  30.1002789  54.1597223  18.5868096  29.2871165  54.3731785  18.1291711
  30.1002312  53.2041216  18.6421394  57.8531837  58.3348417  33.8259411
  57.1988869  58.0778599  33.1762600  58.6845922  58.0310297  33.4616780
  69.2095423  72.4894857  26.8511033  70.0985527  72.1354055  26.8284082
  69.3015480  73.3882427  26.5348792  56.6252518  70.7443762   9.2010814
  56.0568714  70.9136057   9.9524367  56.0240793  70.5108643   8.4937692
  87.0212650   1.9814388  53.2308054  86.8084812   2.8082800  53.6635733
  86.4973259   1.3273033  53.6932182  90.6008434  46.5521240  73.9841461
  91.2159634  46.1431170  74.5928860  90.9748650  47.4158287  73.8099098
  75.6328583  55.0814056  11.0369289  74.8073339  54.7852802  11.4204097
  76.0232878  54.2892122  10.6678391  87.9399204   1.4589560  36.6363025
  87.5050545   1.1376293  35.8464479  87.2325325   1.5671009  37.2720265
  57.2842264  10.5116749  68.4085083  56.4475346  10.5012763  68.8733435
  57.8370428  11.0993969  68.9234924  22.4209285  83.2050896  50.6969166
  22.9342699  83.7939548  50.1437855  21.8148327  82.7764893  50.0926161
  61.0578346  67.7205086  52.0060062  61.0610342  67.9543114  52.9342079
  60.3682709  68.2638359  51.6245317  71.4061737  40.7816505  49.8345709
  70.7789278  40.4827881  49.1761780  71.8934584  41.4820004  49.4006395
  38.3821177  82.5059319   4.5589426  38.2218552  82.5372601   3.6157748
  37.7167678  83.0827236   4.9342343  11.7176390  11.1478591  26.5726495
  12.3350000  11.6687143  27.0862699  11.7474997  11.5350413  25.6977606
  58.2784796  70.4990101  34.2043829  57.6288128  69.9715662  34.6691060
  58.5318279  69.9608517  33.4544301  62.6917219  70.0034189  37.2591305
  62.7733755  69.0809345  37.0170879  62.5152874  70.4531431  36.4327836
  60.7100058   0.1346628  33.5474968  61.3336134   0.7231538  33.1220245
  59.8528624   0.5160603  33.3575678  54.7815514  72.7588940  57.0091438
  55.2908278  72.0474672  57.3973989  54.3995380  73.2164288  57.7581167
  75.7634258  36.6785002  27.1968150  75.1963186  36.1513352  26.6340399
  75.5876589  36.3580465  28.0814886  69.6546984  70.8448267   8.0250961
  69.5251083  71.1243105   7.1188247  70.5417013  71.1332607   8.2401830
  46.3528204  81.5108585  21.5872717  45.7552958  81.9641304  20.9925199
  46.2669659  81.9804764  22.4169183  49.1142273  60.4374790  19.7975278
  49.5300007  59.6433449  20.1332617  49.7162008  60.7572317  19.1255057
   2.3050846  26.2118840  41.8737984   1.6106448  26.8682671  41.8177032
   2.9828432  26.6253614  42.4085093  21.8638706  19.1220701  21.1422491
  21.3702130  18.7406659  20.4162550  22.1498466  18.3689582  21.6592336
  89.9560833  10.3751123  45.4767179  89.7772884   9.4354528  45.4405928
  90.8263969  10.4383695  45.8701324  69.6524022  77.2608523   1.2097846
  69.2215703  76.9151167   0.4280625  70.0168417  78.1008128   0.9307156
  30.4588938  42.3603582  74.3708515  30.9840465  41.5681410  74.2575550
  30.6188750  42.8694439  73.5761976   4.0632737  42.9551649  15.8462310
   4.1496545  43.4951401  15.0606120   4.2626956  42.0671844  15.5496514
  39.8461699  67.5684929  12.2182178  39.9148512  67.3531103  11.2880969
  38.9065409  67.5492954  12.3997653   1.0716491  76.7038965   7.6410526
   1.0130694  77.0845938   6.7647707   1.8420738  76.1369991   7.6048934
  70.0530767  62.5371695  34.1981554  70.5532169  62.4754143  35.0119591
  70.6995058  62.3890591  33.5079217   6.9976032  16.5428472  37.3638153
   7.0455378  15.5970693  37.2243857   7.5159705  16.9165826  36.6511798
  48.0785561  76.1153603  50.7976103  47.8275871  77.0196915  50.9858418
  47.4890375  75.8447552  50.0937128  74.0892458  77.9052544  45.7253075
  73.8632298  76.9832563  45.6025410  74.0492535  78.0375957  46.6724730
  90.7695293  31.4422870  59.7782993  90.2573109  32.2387576  59.9179459
  90.2796745  30.7591414  60.2360964  61.3407660  31.7650986  47.4745607
  61.7857695  31.9634724  46.6506338  61.3270426  30.8088589  47.5151682
  53.5943794  54.6640110  24.2686868  54.1495466  54.8808193  25.0177026
  53.6074972  53.7076998  24.2296910  53.8867664  77.6162767  13.6257911
  54.5206022  78.3060265  13.4289908  53.3947229  77.9500818  14.3759227
  16.9515347   9.3630427  27.8048515  17.7583253   9.8610723  27.6733708
  16.7086267   9.0648043  26.9283342  79.3783712  52.0127010  70.5764818
  79.8837519  52.0894146  69.7672033  79.1870165  52.9167891  70.8259726
  77.7964401  75.5657434  26.8929338  77.8182030  76.2103701  26.1856723
  77.2036886  74.8836946  26.5772009  48.6754274  42.0807266  29.2999434
  48.7939739  42.9238510  29.7373438  49.5597172  41.7212152  29.2291117
  14.6318364  59.4241142   1.3129675  14.5403469  59.3095350   0.3670643
  15.0263345  58.6064148   1.6162336  63.8982868  78.4230661  25.1137233
  64.0155125  79.3728209  25.0923276  63.0176735  78.2825327  24.7658753
  65.4351377  55.0365067  20.7877588  64.7335386  54.3853664  20.7900810
  66.1618233  54.6072149  21.2392664  37.3043609  26.3113022  20.6622434
  37.5729156  25.4842567  21.0623765  38.1215596  26.7076802  20.3600836
  61.7651415  28.8842154  33.2212734  62.2057676  28.5670114  34.0095997
  60.8812761  28.5212421  33.2784271  75.7047749  64.6299267  54.5979977
  76.2621546  65.3904629  54.4332552  75.0548029  64.6526957  53.8956833
   4.9141154  66.2602091  71.4473629   5.1419067  66.4392376  72.3596668
   5.7560557  66.1263180  71.0121155  51.5572262  68.2485008  17.3707581
  50.6992245  67.8278160  17.4263942  51.7475033  68.5239840  18.2674932
  68.1404924   3.5513648  26.2385201  67.5649166   3.4444261  26.9958258
  68.6460447   4.3409204  26.4315176  19.0285885  30.7058978  25.0955391
  18.5777485  31.5131140  24.8477912  19.0157342  30.7084584  26.0526490
  64.1991472  58.2253361  67.5579977  64.3228960  57.3927450  68.0137587
  65.0599957  58.6430407  67.5843048  61.0560942  78.7317944   6.5420264
  60.3252792  78.3014631   6.0982275  61.8009138  78.1480360   6.3981462
  59.1390371  54.4817495   6.8521929  59.7315836  54.0622807   7.4760282
  59.3770933  54.1048384   6.0051399   5.8105206  57.5796366  14.2465746
   6.5418231  57.9987764  14.7001696   5.5683565  58.1996250  13.5586762
  82.5821209  65.2351141  42.1077061  82.7455425  64.3501663  42.4338865
  82.0605087  65.1058912  41.3155842  85.0235176  36.8062639  31.7237425
  85.2421474  36.2564611  32.4761724  84.9718857  37.6925302  32.0816493
  70.8705282  65.0612545  12.3608303  70.2895021  65.3331566  13.0712628
  71.1128092  65.8776712  11.9238079  48.7162113  61.5159702  30.3760171
  47.8570557  61.7529297  30.0268340  49.2178822  61.2380695  29.6096444
  85.5426979  76.2320280  33.4597969  85.0979900  75.6065845  34.0318894
  85.5866432  75.7912064  32.6112819  65.5048895  49.4311762  13.0717838
  64.7413683  49.1128635  13.5533905  66.1891127  48.7873507  13.2549632
  71.6838741  14.0669477  24.0658069  71.3891125  14.7267091  24.6935511
  72.4492788  13.6678469  24.4794512  44.8516941  61.7378092  56.3809109
  45.5387688  61.4451361  55.7821560  44.4268417  60.9305620  56.6708755
  71.5179443   8.6895293  20.3557587  71.6571379   8.0264640  21.0319257
  70.6204557   8.9908731  20.4969621  63.1974697  70.5836153   7.0143211
  63.7873220  69.9979877   6.5396100  62.4914837  70.7665586   6.3943607
  26.7296553  74.6410704  56.2638378  27.2197485  74.7249413  55.4459095
  26.3654256  75.5132103  56.4153194  39.0707660  73.4934902  20.3062868
  38.9964604  72.8951502  19.5628500  39.7305369  74.1317368  20.0350404
  26.0433936   5.1730388  43.7111187  26.4845514   4.5839339  44.3231392
  26.3756943   4.9171612  42.8506947  60.7058144  59.8801517  47.1641922
  60.2250147  60.3337622  46.4718771  60.9805059  60.5764532  47.7607965
  17.7693295  19.0223682   7.1275687  17.5110066  19.6700501   7.7833200
  18.3426332  18.4187412   7.5999969  66.0631418  77.6567221  63.4393024
  66.7879629  77.0432043  63.5595846  66.4259291  78.3512163  62.8894901
  43.0209589  39.6670747   3.8482925  43.6429787  40.3944778   3.8337499
  42.1709919  40.0754404   3.6838818  23.2237458  55.2159214   0.7780911
  23.6368370  55.5395174   1.5786375  22.5093579  55.8309126   0.6117531
  82.7573395  83.6343956  24.8915458  83.5915756  84.1028404  24.9205899
  82.9076385  82.8450775  25.4117608  82.1960831  61.9723320  34.3484354
  81.4301014  62.5431681  34.2879987  81.8489933  61.0906267  34.2129350
  45.6203413  71.6882372  10.4936528  46.5052938  71.6752720  10.8582377
  45.7424307  71.9365168   9.5773089  21.1522889   4.7464848  39.0516448
  20.4427958   5.3593719  39.2445731  21.2561965   4.7918910  38.1011868
  84.8911858  84.9563217  50.4036283  85.6621647  84.5532417  50.8028126
  84.7658730  84.4753075  49.5856142  85.9235001  65.5518913  21.1719251
  85.5121326  66.1708784  21.7751360  86.3893032  66.1035252  20.5434632
  74.2363453  29.8566127  15.7048500  74.7071743  29.2348456  16.2597859
  74.8846388  30.1414132  15.0607741  70.6528330  63.6792326   7.4326509
  70.5441046  63.2382584   8.2752383  70.0070000  64.3855810   7.4468911
  41.8069410  48.0094099   7.6926649  41.5204716  47.1020985   7.5880313
  42.0636559  48.0749655   8.6124647  64.5429564  53.6306190  33.6400175
  64.9395704  52.7857876  33.8526011  63.6132002  53.5148001  33.8359141
  63.4133291  57.2622490  30.3225970  63.9422083  57.9331017  30.7544255
  62.5683737  57.6851654  30.1695371  78.4267378  14.5223939  43.1160116
  79.2228460  15.0446260  43.0174208  77.7606010  15.0067997  42.6283169
  71.9153261  60.1315784  42.4228668  70.9739876  60.1668167  42.5928020
  72.3180103  60.2137947  43.2873392  57.1336937  59.3698597  59.4534445
  57.4091148  60.2526331  59.2062902  56.8226910  58.9786291  58.6370802
  26.8296027   1.3399370  37.4764943  26.2936854   1.5494668  36.7115617
  27.0134592   2.1883363  37.8797889  70.0674868  77.6701450  17.4678767
  69.6898937  77.3299170  18.2789874  70.4272509  76.8991327  17.0292997
  87.8101540  75.7855272  22.4361563  87.7556801  76.1675167  23.3121395
  86.9790363  75.3241396  22.3239470  76.1066771   4.9661040  44.1183901
  76.3875151   5.2626711  44.9840736  76.4899302   5.5999368  43.5120821
  60.7818270  53.7860298  38.1657410  60.4656076  53.5354805  37.2977209
  60.0483274  54.2570877  38.5611081  78.9039755  41.8181419  30.9309173
  79.6638823  41.5161896  31.4285064  79.0842772  41.5475702  30.0306320
  56.2086725  54.0865088  44.7786808  55.4734898  54.2316675  45.3742266
  56.9815731  54.3285704  45.2888393  47.7522898  58.0999804  64.8370934
  47.4112511  58.7178946  65.4837036  47.9604101  58.6409521  64.0753412
   4.8296475  47.7382421   0.7409380   5.2803355  47.4217129  -0.0419553
   3.9285135  47.8874302   0.4547013  11.1407387  18.2820785  56.9466162
  11.7921460  17.6079822  56.7529821  10.3020728  17.8730714  56.7331076
  83.1407928  52.3699570  30.8386898  82.6091671  52.1172333  30.0838828
  83.4894943  53.2311440  30.6084800  22.0831037   3.8742033  19.6290338
  21.3974857   3.5969183  20.2367139  21.6630316   3.8552022  18.7691438
  49.4689322  24.6053290  16.3137853  48.7326145  25.0252438  15.8691120
  49.5946217  25.1223564  17.1094728  85.3022194  70.9492731  49.5539331
  84.4878483  71.2201595  49.1300821  85.6331921  70.2385998  49.0047216
  62.1033764  61.6338730  28.0417061  62.8915834  61.1708975  28.3256245
  62.0206165  61.4184809  27.1127343  67.1319246  24.3629265  16.7181945
  67.4632359  23.6325788  16.1956465  66.2004423  24.1735864  16.8309748
  14.6801758   8.5129488  56.7116833  15.0891471   8.9356816  57.4668455
  15.0697529   7.6389807  56.6863489  50.7835865  42.4465370  26.3301396
  51.5815830  42.8781796  26.6353011  51.0326242  41.5281010  26.2267327
  74.4837856  62.4413443  22.6487970  74.7177124  62.6277351  23.5580635
  73.7152958  61.8740463  22.7106571  31.7332935  39.8638082  73.9696741
  31.3141799  39.0724397  74.3077707  31.9260979  39.6603799  73.0544281
  68.7646914  65.0399780  33.5865283  69.0952492  64.2366886  33.9886379
  69.1844893  65.7449198  34.0795374  64.3606377  66.3083982  55.7527542
  63.4243011  66.1557627  55.8800650  64.4588518  67.2586012  55.8135414
  66.7937994  83.4897327  56.5002775  67.6343107  83.4219551  56.9532394
  67.0182037  83.8055325  55.6249809  60.0885963  64.2974663  49.2942667
  59.1453505  64.3563795  49.1424322  60.4760981  64.8399734  48.6074209
  18.5951495  74.5768642  40.3904819  19.2250872  74.0619755  40.8947659
  18.9263713  74.5482445  39.4928741  81.4653301   6.9002485  38.3324742
  81.6413689   7.0874542  39.2545366  82.0255470   6.1512715  38.1289458
  60.2151680  61.2775183  34.8240066  61.0791874  61.2210274  35.2320695
  59.7416258  60.5163002  35.1594639  62.0268726  54.0230179  52.6047850
  62.3141956  54.7033310  51.9958067  62.4920940  53.2359219  52.3214531
  25.6148624  53.8019705  13.9226449  25.2830315  53.0797291  14.4560134
  24.9723935  54.5016575  14.0405595  24.5343399  22.4632335  70.6805468
  24.9770570  23.2893944  70.4864025  23.6854076  22.5382423  70.2447414
  56.5279675  76.4838028  51.1177588  56.9398785  76.7789412  50.3056908
  55.7236147  76.0492706  50.8341503  20.8609152   3.6467817  50.7176018
  21.1904716   4.0408882  51.5252542  20.2174234   4.2750099  50.3897619
  54.3059635  54.7518873  64.4804907  54.6408033  55.6392670  64.6096182
  55.0219536  54.2862558  64.0483093  51.4358950  59.2584610  35.2571845
  51.4939451  59.2965937  34.3025088  51.9176435  60.0291872  35.5574083
  76.0763741  75.9111595  31.9274521  75.3339720  75.4716206  32.3420310
  75.8716011  76.8436527  31.9963956  16.5615892   2.8490654  72.5207472
  17.2942698   2.7192134  71.9186258  16.5006638   2.0256159  73.0049515
  43.1875277  40.3836203  64.9492359  42.6642036  39.9556851  65.6269073
  44.0559769  39.9898934  65.0329447  25.0389767   2.8144214  16.2090981
  25.0099730   3.3714789  16.9869661  25.6413507   2.1081333  16.4426267
  50.6481647  46.0106325  42.8754282  50.6123590  45.1354933  43.2615423
  51.3652992  46.4464235  43.3359003  80.6197166  51.4049721  59.0493250
  80.9943485  51.6211653  59.9032259  80.4375076  52.2536659  58.6459064
  53.2748842  49.9441242  41.6411066  53.4020758  49.0041828  41.7698097
  53.3442545  50.3177166  42.5196552  90.3778172  56.2051678  17.6007044
  90.2368069  55.4048014  17.0949757  91.0394287  56.6880274  17.1053791
  21.7734742  41.0487080   7.0592761  21.5128040  40.1306248   7.1327913
  21.7317915  41.2351561   6.1213356  49.4769192  41.5245008  18.5218883
  49.7291756  42.4072027  18.7928820  49.0827847  41.6427326  17.6576495
  80.3941059  52.2187042   6.5058035  81.1870766  52.6018476   6.8808120
  79.7832298  52.9523706   6.4366072  39.9136639  61.9225693  45.6939125
  39.3787479  61.7610407  46.4710903  39.3960047  62.5336218  45.1696301
  48.9038038   7.8153056  30.4580593  49.1085339   7.3241413  31.2537193
  49.7574139   8.0675119  30.1059651  80.6997871  17.5161052  38.5521841
  80.1523495  18.2481408  38.2681632  80.1837063  16.7368495  38.3456373
  58.1247377  65.7810020  52.3102522  58.9863062  65.3804350  52.1941519
  57.9264212  65.6577492  53.2385349   3.9553580  45.9258223   9.1105509
   3.1653762  46.3689375   9.4200814   4.6615884  46.2991095   9.6379298
  75.0664186  80.0691795  64.4735527  75.8346844  80.1004696  65.0436592
  74.3552303  79.7807837  65.0456285   8.8541490  17.5554192  32.1067262
   8.9681321  17.4541962  33.0517101   7.9567921  17.8730893  32.0063829
  49.3043804  11.1657679  42.5556660  49.8142719  10.7702982  41.8486691
  49.8658895  11.0901999  43.3271790  42.4554682  70.7555342  20.6032300
  43.1552792  70.7171392  19.9512899  42.5850248  71.5950108  21.0445142
  84.3796730  32.6500607  43.3972216  84.0060806  32.0992732  42.7092552
  83.9352036  33.4919620  43.2977962  31.2133956  69.1921329  47.2118855
  31.4099598  69.5661402  46.3529825  31.5565372  68.2995987  47.1686792
  75.6746626  44.9584627  36.0690522  76.4526606  45.4086971  36.3980460
  75.0553846  45.6618261  35.8740926  91.1303496  83.2278442  63.7451458
  90.3924293  83.6565208  63.3116245  91.7526840  83.0509186  63.0397177
  24.5513892  81.3670635  56.0583353  23.5998893  81.4570522  56.1110926
  24.7459412  81.4248943  55.1229048   6.7944938  82.1615124  48.4639692
   7.3456228  81.8399620  47.7504587   5.9043533  81.9228458  48.2052755
  68.5023737   1.9665201  21.6354442  68.1313562   1.1891145  22.0528436
  67.7412748   2.4644551  21.3370728  44.1470003  76.7892981  53.6003780
  44.3670940  77.6455355  53.9673090  44.9926615  76.3981485  53.3810711
   1.8955326  24.6066451  37.5659466   1.8325305  24.1283870  36.7391872
   2.8357381  24.6753669  37.7318454  16.9612694  83.7161064  37.9645753
  16.4234769  84.0599632  38.6778617  16.3624620  83.1704903  37.4547076
  76.0779285  63.0727053  59.7249126  76.3481045  62.1646929  59.5879936
  76.0418701  63.1709909  60.6763697  86.9978619  68.5992813  30.9024191
  86.9085979  69.5014858  30.5953431  86.2892532  68.1264782  30.4658794
  13.2912838  53.6296988  25.2766109  13.5899186  53.0722666  25.9951639
  12.6511621  53.0940437  24.8080468  65.0155020  67.2415543  31.3208508
  64.5340061  66.6067314  30.7903862  65.2754879  66.7529297  32.1018028
  63.4322834  74.5667362  31.4831591  63.9401293  75.1314068  32.0658016
  63.3553410  75.0677443  30.6711864  83.4548759  28.8952303  45.4477167
  83.6028385  27.9502273  45.4838610  82.7533150  29.0034246  44.8055792
  14.5820189  26.8537974  26.8777514  15.3467667  26.6591239  27.4195027
  14.4533718  26.0640669  26.3523865  29.2474127  72.7462578  47.6554537
  29.0059400  73.1894302  46.8421125  28.7697363  73.2192564  48.3368731
   7.6252419   0.9085017  17.7535808   6.9624394   1.0788116  17.0843124
   7.4398136   0.0185501  18.0533040  54.0286350  74.0594530  10.4727209
  54.0794611  74.9745131  10.7489645  53.5388660  74.0842724   9.6506864
  52.1115494  65.7253838  37.7003694  53.0424023  65.8591938  37.5219417
  51.8733215  64.9639893  37.1714473  66.1663580   8.8326484  73.9547825
  65.8735085   8.6038804  73.0726624  67.0591068   8.4912938  74.0068293
  30.9912872  28.4525800  71.6393661  31.5452957  28.3109522  70.8717394
  31.4817524  28.0639791  72.3637009  52.7881861  21.9590044  -0.2440447
  53.5528851  21.9329143   0.3310914  52.0724869  21.6198897   0.2935477
  87.9629517   8.8039708  37.9442620  87.3890305   9.4541150  38.3494306
  88.6852169   9.3158275  37.5801682   8.1668127  61.6513252  35.2296066
   8.9887893  62.0545530  35.5088782   8.2191092  61.6380453  34.2739272
  67.1631861  49.0929937  44.4446421  67.5500870  48.3376884  44.8874187
  67.5513792  49.8512793  44.8811579  14.0185225  14.6135926  45.2376461
  14.1873693  13.7747562  44.8086023  13.9308953  15.2377355  44.5172310
  76.2510872  23.3624101  27.5174427  75.5186987  22.9037046  27.9290605
  76.9733763  22.7349639  27.5464082  52.7749157  72.6261568  36.0751700
  52.1750402  73.3714628  36.0451770  52.4948931  72.0640993  35.3527355
  -0.3223660  61.1478186  25.5340457   0.1563430  61.6797590  24.8983502
   0.3590100  60.6762838  26.0132313  57.9257298  50.5539989  21.9669604
  58.4735012  49.9846935  22.5073957  58.4933949  51.2919855  21.7447853
  62.7080011  32.4363947  35.6617403  62.1617126  33.1164336  36.0558844
  63.1880045  32.0579290  36.3983488  76.6387558  58.1295395  47.6872206
  75.6938219  58.1252909  47.8398943  76.9931698  57.5517225  48.3630562
  36.6912389  68.3132935  21.3509059  36.2037063  68.4083176  22.1691465
  37.2255421  69.1056633  21.2970519  37.9427123  73.0953217  45.7887030
  37.1431780  73.5599947  46.0357904  38.6488223  73.6069679  46.1834908
  11.2241733  16.3120413  72.9983711  10.9808338  16.4990258  72.0916986
  11.0538316  15.3760529  73.1039190  46.4585066  52.2766829   7.8120738
  45.7854843  52.9181480   8.0396670  46.2275410  51.9905043   6.9283372
  33.6510348  84.2615032  46.2473679  33.9999247  85.0911713  46.5731907
  33.0928707  84.5093441  45.5103111  75.8393621  72.2035265  69.6243191
  75.9739923  72.2303295  70.5716276  76.7205906  72.2631693  69.2553806
  23.4868050  73.0971718  67.7904320  23.8872242  72.9130602  68.6401367
  24.0364504  72.6309109  67.1605730  21.4410067  74.0108967  51.4849997
  21.2119222  74.4628191  52.2971106  22.3622537  74.2278004  51.3418674
  77.8267956  59.9597025  25.4808998  78.5921621  59.4437456  25.7343554
  78.1678915  60.8438683  25.3462386  72.5892401  70.7126284  49.1121054
  73.3410788  70.1259995  49.1948128  72.0691824  70.3367805  48.4018183
  27.3242140  20.7426572  15.5993938  26.7520905  21.2483406  16.1766207
  28.1166601  20.5962276  16.1159384   1.9648764   7.3265874  37.6939559
   2.4961855   6.6345882  38.0877566   2.4675903   8.1277132  37.8412914
  43.6863041  73.0302143  30.9674597  44.1279268  73.8794184  30.9752297
  44.3899679  72.3931742  31.0910201  63.1129074  74.6365213  17.1005774
  63.6557865  73.9927340  16.6455472  63.2539225  74.4548130  18.0297327
  10.9022915  23.3524108  21.1039996  10.8652782  22.6216388  21.7211199
  10.2338386  23.1478167  20.4501343  65.2708864  41.8066931  72.6817036
  64.4400120  41.8016815  72.2064638  65.5192327  42.7303123  72.7201843
  83.0649567  79.7121382  54.0109110  83.1444073  80.0196743  53.1079483
  82.9741287  80.5117702  54.5291567  80.0148010  78.0811691  23.7906384
  79.5022440  77.3267841  23.5000849  79.9856138  78.6893606  23.0520725
  56.1607504  55.1991510  33.1277680  55.8493042  56.0868931  32.9512811
  56.9190311  55.0927353  32.5533819  82.3849869   9.3490225  24.8598456
  83.2314014   9.6980739  24.5806170  81.8999767   9.2167002  24.0452957
  10.5148792   5.1071203  60.0599051  11.2508869   4.6040484  59.7114134
   9.9619257   5.2814543  59.2982721  76.4257669  59.3341398  11.4033687
  77.3732853  59.4153214  11.5122294  76.1030674  60.2347708  11.4344752
  39.6323013  68.5496330  21.2917542  40.0410795  69.3438148  21.6358566
  39.8638868  68.5441637  20.3630066   9.8829162   8.6711955  53.2377005
   9.8111820   9.4863659  53.7342739  10.6432915   8.2277703  53.6137819
  69.0346622  33.6890149  47.2504234  69.9568939  33.8834000  47.0832729
  68.5842896  33.9577866  46.4496994  55.4181623  55.8196163  51.0619116
  54.9159527  55.1296186  50.6284189  55.1231432  56.6288853  50.6444454
   6.8286920  81.6171455  12.5311863   6.9895047  80.6778622  12.6212943
   7.6877010  82.0203400  12.6567531  57.1444035  69.5714617  40.5165672
  57.7781916  69.7598457  39.8244238  57.6757669  69.4664907  41.3057899
  83.2087517  58.4468317  41.8409109  83.9726925  58.0409145  41.4312172
  83.3650780  58.3570385  42.7809763   9.1703999   6.5873039  32.4724245
   9.8041594   6.0992295  32.9981279   9.5109046   6.5371275  31.5792441
  61.3223219  82.6098919  25.7862902  61.3719177  83.1460857  24.9949169
  61.3274622  83.2423019  26.5048027  24.9909735  37.5617838  16.1353660
  25.1515055  37.0897961  15.3182435  25.7888532  38.0707884  16.2786758
  67.7778339  72.0352936   2.9776639  68.5547876  71.6526270   2.5700620
  67.5701904  72.7939081   2.4321158  77.1317911  80.6378841  66.7451811
  77.1183968  81.5727520  66.5400553  77.2876406  80.6019592  67.6889277
  75.0347137  47.8183985  27.1231031  75.4978609  47.1551228  26.6114497
  74.1165733  47.7162838  26.8724561   6.2324798  81.2246132  31.4541698
   5.8328658  80.3734970  31.6334558   7.0118105  81.2450600  32.0095587
  32.0801950   6.9166625  31.4066768  32.8911948   7.1027094  31.8798542
  31.4028406   7.3771048  31.9020724   7.5776279  77.3260450  30.2922893
   8.4243286  77.5177765  30.6954908   6.9358695  77.5407410  30.9692574
  76.2880230  69.9482393   0.3408753  76.5013981  69.2298794   0.9364091
  75.5928659  69.5987225  -0.2166357  66.5364122  72.0889187  14.4001329
  67.1949148  71.3984203  14.3238449  66.2886047  72.2844505  13.4964788
  20.6462193  82.0352459  49.1202307  20.8307147  81.1036491  49.0005112
  19.8542941  82.0554638  49.6575165  71.1146498  85.6652927  28.5770750
  71.6599321  84.8821735  28.6521006  70.3678846  85.3872681  28.0467200
  19.9096262   2.3209980  40.1114988  20.4230165   3.0069050  39.6846557
  20.5199242   1.5899122  40.2078438  45.6653786   1.9492392  46.0491371
  46.6024828   1.8786386  45.8672714  45.3926468   2.7464679  45.5949593
  63.6040878  53.8434792  26.2330008  63.8615322  54.7408915  26.4442086
  64.3310452  53.5020208  25.7122612  47.1213531  32.5615859  10.8475447
  47.1771049  32.1386099   9.9906814  46.1938238  32.5126576  11.0789037
  75.4376602  74.3300104  25.6596351  75.6845522  75.2518845  25.5859685
  74.8450565  74.1811466  24.9228191  41.7873144   7.6985037  62.2729254
  41.7837715   7.4799144  63.2048273  41.2587261   8.4941548  62.2115326
  80.3472328  79.2941761  21.4737344  81.1182880  79.2068005  20.9133029
  79.7521353  78.6082935  21.1709905   7.0014352  56.6573858  32.6700282
   7.6358944  56.0477114  33.0468440   7.1687591  57.4855709  33.1198549
  61.1042786  79.4230270  49.8271704  62.0251322  79.5947027  49.6302223
  61.0968733  78.5338879  50.1815796  27.2061586  14.7379565  20.5602002
  26.8894196  14.2920184  19.7746778  26.7454767  14.3090177  21.2813210
  39.9842072  19.7447634  22.9126453  39.7772932  20.3940272  23.5848618
  40.8717918  19.9662280  22.6308942  69.9778414  73.7046909  48.0584431
  70.1295090  74.1631651  47.2319841  70.8524466  73.5786104  48.4264088
  74.8749733  65.2045965  27.7075744  75.4889345  65.6170034  28.3151984
  75.3545618  64.4553566  27.3542070  16.6354513  62.0551014  55.2800894
  17.1037269  62.8055048  54.9142361  15.8605862  62.4350214  55.6941891
  53.9099121  74.3994951  62.6743984  54.7161484  74.0346098  63.0391836
  54.1668558  74.7381353  61.8167639  10.5047703   5.4579121  37.7356648
  10.0903141   5.9167147  38.4663892  10.6799483   4.5793766  38.0728889
  43.2474422  85.1736927  29.1674900  43.1774330  84.3342495  29.6220970
  43.8096189  84.9920654  28.4143639  84.2609406  62.9928732  54.5152426
  84.2414284  62.4037790  55.2694416  83.6723232  62.5868654  53.8789034
  77.0024204  77.6327229  40.2771759  77.0499372  76.6816950  40.1795816
  76.1189842  77.7957344  40.6076336  32.6168346  17.0562732  26.5972853
  32.8173375  17.6365721  25.8629251  31.9515514  16.4588130  26.2557125
  90.9270065  30.5714202  48.3653164  91.7267225  30.8778548  48.7928486
  91.2244020  29.8930669  47.7589941  13.9508116   8.3360416  41.2258577
  14.1788781   7.4096084  41.1487865  13.7231350   8.6015809  40.3348541
  69.7702217  79.5314264  12.9409385  68.9304161  79.7751284  13.3302617
  69.5359945  79.0090513  12.1738076  10.3538489  31.4475632  21.3098454
  10.2411604  31.6920209  20.3912735  10.8757031  30.6456137  21.2819886
  70.3928423  71.9627047  18.7453842  69.6465349  72.4683952  19.0671420
  70.0940657  71.5986156  17.9120755  70.4794502  70.9798431  51.9138908
  71.1016178  70.8470392  51.1986971  70.8819437  70.5446005  52.6654148
  -0.0350211  12.0772934  29.6394396   0.1512506  12.2211707  28.7116289
   0.3353574  12.8423798  30.0795436  60.7054138  82.7015591  36.5116501
  60.4989386  81.7774105  36.3718033  59.8522997  83.1278515  36.5935063
  26.2432671  11.3736916   9.8242766  26.2672424  10.9577632  10.6860542
  25.7030988  12.1538758   9.9498188  64.6366501  72.6733732  35.8749580
  63.9772558  73.2955837  35.5679059  65.4712152  73.1215191  35.7374930
  88.1609821  56.3702965  52.0705748  88.8308716  56.3259220  51.3882875
  87.7334595  57.2154093  51.9318724  54.8534584  69.2635775   7.6914060
  54.1439629  68.6734724   7.9456162  54.5501614  69.6662140   6.8776941
  60.0044298  80.0703716  35.9071469  59.1779041  79.6747208  36.1838126
  60.6774330  79.4765663  36.2398505  78.0161381  44.3226242  48.0930185
  77.9795218  44.5135403  49.0302706  78.8818979  43.9363050  47.9609203
   9.4524246  10.5450463   5.6551898   9.1561359   9.7511780   6.1004061
  10.3387201  10.6890368   5.9868211  13.2616293   2.4772693  42.0221424
  13.6694896   1.8193936  42.5852394  13.8977814   2.6203358  41.3213730
  43.6555147   4.8904088  32.3480177  44.5686865   5.1230252  32.1799874
  43.2223129   5.7271695  32.5165462  84.6147823  45.4208040  22.4370027
  83.9176464  45.6476879  23.0524397  85.3870964  45.2906799  22.9872942
  65.8562231   4.2186546   7.5689477  66.5105438   3.6195168   7.2095996
  65.0308180   3.7381816   7.5050795  34.7956443  80.0571823  42.8528833
  35.4668260  80.4016781  42.2637558  35.1050472  80.2871609  43.7290192
  41.5897560  12.7499604  22.5673509  42.0199585  11.9819427  22.1914434
  40.7038593  12.4515116  22.7731419   6.2363249  80.0996780  42.7128029
   6.6035396  80.9358406  42.9995441   6.5678453  79.4628239  43.3458424
  21.7778397   8.7558144  39.0172648  21.6654634   9.5040751  38.4309959
  22.3155069   8.1400269  38.5193181  83.9026260   5.8133227  36.1032057
  84.6114159   5.5029643  35.5397034  83.2907963   6.2416881  35.5045462
  71.7835236  77.4169254   4.2371327  70.9381342  76.9796610   4.1354221
  72.0472097  77.6391363   3.3442023   0.6656591  57.4083471  35.7201385
   1.4132857  57.9485941  35.4643703   0.9614218  56.5087175  35.5807805
  70.2366495  71.4428043   2.0132987  70.4541826  71.2408972   2.9233241
  70.5488873  72.3385715   1.8854778  85.9757710  78.9521503  66.3305044
  86.9313335  79.0056896  66.3468456  85.7865810  78.0184221  66.4231730
  56.7472029  80.3162956  34.5722723  56.1082172  80.6532574  35.2002740
  57.2270060  79.6440458  35.0561166  27.3158073  35.4234242  27.3924661
  26.4793396  35.4307413  27.8577614  27.1308184  35.8588290  26.5603399
  73.1789732  12.7732241   6.8558401  73.1599045  13.0438221   7.7737969
  73.4309387  11.8501937   6.8834174  10.5996084  78.2957983  41.2403870
  10.0231481  77.5699663  41.0014486  10.6798136  78.2346153  42.1922541
  83.5682011  80.9160614   1.7181319  83.2877731  81.3934422   2.4989618
  83.1466007  80.0602818   1.7963123  22.0244455  80.5146790  38.1810236
  21.3841057  79.8162317  38.3165288  22.6149392  80.1714516  37.5103951
  69.4301414  59.2402554  14.5499778  70.0650787  59.2227983  13.8338888
  69.3822145  60.1615667  14.8051751  74.3208504  57.1739769   9.7434187
  74.0207815  57.1681643  10.6523514  74.7676420  56.3346386   9.6333182
  65.4799223  74.3172121  38.0935168  64.6207952  73.8953829  38.0795312
  65.6868982  74.4083261  39.0236187  61.2022400  30.8963227  42.4755192
  61.8913507  31.4753199  42.8012848  60.9250927  30.3977418  43.2441807
  90.2642250  20.4272938  33.9648080  90.9533310  21.0480762  33.7281990
  90.6331348  19.9255180  34.6916914  87.8982162  22.0058250  63.8459492
  87.3005867  21.3450551  64.1958714  88.3509350  22.3508644  64.6155119
  27.9628921  65.6845188  68.4964943  28.5927844  65.8920860  67.8062868
  27.1075058  65.7987642  68.0823803  28.7297249  17.7916026  38.7193751
  27.8252339  17.9300928  39.0003514  29.1234398  17.2774470  39.4242597
  21.5558100  22.1900892   1.3437259  20.6670094  21.9945240   1.0470432
  22.1029377  22.0475411   0.5713517  64.9955225  76.0947895  49.0026617
  64.0669012  76.0607958  48.7730122  65.4351425  75.6271648  48.2925224
  80.8994102  60.1925850  54.1688442  80.2918911  60.9298849  54.1092443
  81.6780281  60.4849005  53.6949921  29.1665030  78.9067316  49.6495962
  29.7576880  79.5727205  50.0005770  29.2050958  79.0281916  48.7009144
  20.1198959  34.8518753  66.8111515  21.0762405  34.8465705  66.8512726
  19.8772609  33.9274526  66.7582226  76.0155869  19.3785560   3.2072520
  75.0745726  19.5009470   3.0817467  76.4162350  20.1193738   2.7523893
  81.7589283  76.8690729  44.4838476  81.1750031  77.5868225  44.2386961
  82.3658752  76.7920017  43.7477016  80.6834698  20.8503008  50.4241467
  81.2639046  20.3321981  49.8665667  80.9430122  21.7573762  50.2626514
  54.2924595  66.3295460  53.6447096  54.5878553  66.9765759  53.0041456
  54.0099192  66.8492317  54.3972588  57.0191479  79.1557693  32.0331097
  57.9498243  79.3184805  31.8795037  56.7965078  79.7195673  32.7739120
  72.2988605  84.3733597   8.3998233  72.6305437  85.2612591   8.5334414
  71.4195442  84.3867493   8.7777841  59.3296242  78.0790186  18.0583203
  59.8346519  78.6918688  18.5927284  59.9860096  77.6243401  17.5304389
  41.4906502  14.4113874  71.6686964  41.2147903  15.0848019  71.0468864
  42.3887110  14.6504879  71.8979216  58.6093044  84.6013832  28.6616206
  59.4881010  84.2321301  28.5744333  58.7068558  85.3022194  29.3062472
  48.7210274  31.1641383   1.5973170  48.1290913  31.8525743   1.9004630
  49.1750145  30.8732176   2.3881976  11.4056945  29.7229743  29.2950225
  10.7957840  30.3458118  28.8996577  11.7557907  29.2276597  28.5545301
  12.1667767  20.6099963  18.4571195  12.5614572  20.4127264  19.3065572
  12.0197225  19.7531652  18.0565619  89.0465927  73.4969234  21.0424495
  88.9238834  74.2467356  21.6246462  89.8943424  73.1324244  21.2967849
   0.3073003  56.1345482  13.0103540   0.6186655  56.7581987  12.3543441
  -0.0780508  56.6803455  13.6958039  59.6808863  58.9513493  60.6389952
  59.5140266  59.1639423  61.5572500  58.8123178  58.9249992  60.2375937
  54.5549822   8.3475912  61.2088680  54.9004936   7.5857306  61.6740799
  54.0247202   7.9771841  60.5032825  20.5652285  12.5613713  29.5865417
  20.6426620  13.4069467  29.1446829  19.7954857  12.6540732  30.1479077
  32.2588587  84.5154285  49.4960022  32.5315881  84.1931629  48.6369324
  32.0894122  85.4475498  49.3594122  62.0051813  60.8812857  21.0179639
  62.6984882  60.4189491  20.5470061  61.6950703  61.5424585  20.3991652
  70.2957010  73.6603308  71.2365055  71.2443018  73.7462187  71.1415768
  69.9666309  73.6325073  70.3380823  26.4470363  66.8699932  26.4121246
  25.6260610  66.9584274  26.8962860  26.8810368  66.1164379  26.8121600
  67.8944302  71.1268473  51.3169956  68.8436890  71.1378336  51.4395523
  67.5983858  70.3603935  51.8080521  55.2726030  46.9349527   8.0527192
  54.8049402  46.4215612   7.3939705  56.0178375  46.3869429   8.2987696
  90.5641270  75.8603477  30.3176546  90.6560707  75.3042746  31.0913205
  91.2778187  76.4938927  30.3918719   1.8030727   2.8135848  27.7342153
   1.6495459   3.3353725  28.5218692   2.3968285   3.3467910  27.2056556
  33.4334040  22.8128505  24.4477463  32.9076648  23.5483718  24.7621298
  32.8053451  22.0987630  24.3388653  60.6944084  58.4995031  29.9949837
  60.5590534  58.5768127  29.0505600  60.6822538  59.4021225  30.3133631
  70.5201817   3.1696585  66.8971014  70.9030342   4.0224156  66.6910410
  71.2603045   2.5630787  66.8745565  29.8041201  66.9893122  16.8662488
  29.4536328  66.4404202  16.1647427  29.2783475  67.7883863  16.8305194
  61.9440985  67.8942204  32.2507644  61.3848209  67.3105049  31.7382073
  62.2096205  68.5752487  31.6327548  50.9201384   4.9276763  57.6871204
  50.9438086   5.8722967  57.8399706  50.5698633   4.5622927  58.4995461
  75.4033089  77.8178453  58.3959770  74.6298170  77.9075146  57.8392935
  75.8763742  78.6423159  58.2833099  86.0757256  63.1608200   4.1882107
  85.3801155  62.8264713   4.7544000  85.8190536  62.8885603   3.3071736
  26.0762572  10.1985645  53.4346628  26.4088297   9.3202066  53.2499599
  26.8309426  10.7727420  53.3042622  60.1714993  57.5995207  33.0569744
  60.3597307  56.6891527  32.8288555  60.1549911  58.0583954  32.2170973
  42.5780630  33.1234336  71.9416857  42.1801472  32.8013992  72.7505016
  43.3782053  32.6068234  71.8461895  87.3026943  63.7064362  26.1567807
  87.7554417  62.8650761  26.2147641  86.8020725  63.6534262  25.3426528
   3.1557128  28.8154817  23.1854749   3.3149174  29.0151978  22.2629786
   2.4984622  29.4553137  23.4590912  60.3589487  43.7560034  26.3331771
  60.6782579  44.5412397  25.8885694  60.9927607  43.0763912  26.1037302
  83.2696533  37.4401832  20.5900645  82.7990818  36.6294312  20.7836652
  83.5061264  37.3649502  19.6655905  22.7849865  84.6516228  17.6624787
  23.1562495  84.1061592  16.9690347  21.9888449  85.0186253  17.2781610
  71.8626595  46.9463253  41.6444492  72.6932335  46.5331793  41.4084673
  72.0937300  47.5754023  42.3278999  18.7397146  81.6964054  41.6021061
  18.5778534  81.7114067  40.6588125  18.8815498  80.7720184  41.8061161
  51.0481310  67.6274681  14.9292409  51.9417715  67.5915146  14.5881426
  51.1564159  67.7580070  15.8712947  80.1439762  58.6983395  59.2594671
  80.3558350  58.4960127  58.3481979  80.9679890  59.0105391  59.6333122
  89.8835182   5.1648110  49.3006849  89.2140388   4.7429124  49.8392200
  90.6519508   5.2145934  49.8692513  74.9638462  80.9557819  10.3646600
  75.3008366  80.0833893  10.1607120  74.5971680  80.8711815  11.2447858
  43.1198025  55.0323868  66.1471033  42.8256226  55.9364843  66.0362005
  42.3185825  54.5399857  66.3254976  48.2225943  81.6089249  13.8980532
  47.4293804  81.3582706  14.3715680  47.9023743  82.0233917  13.0968606
  71.3295698  72.1617889  59.5896482  71.7157030  72.2774076  60.4578447
  70.4262638  72.4630356  59.6872139  47.4160480  16.1287010  17.6715946
  47.7479982  15.7104790  18.4660304  46.5579128  15.7286298  17.5309670
  56.2468195   9.6924651  24.2920947  56.9414234   9.3629003  24.8623061
  55.7773066  10.3297460  24.8302984  62.9892874  66.5069485  64.2671394
  62.3518372  65.8113670  64.4285440  62.9192686  66.6829967  63.3288765
  65.9029818  10.1520884  35.9460783  66.8325138  10.0432801  35.7451606
  65.7889366  11.0970128  36.0477805  76.7475939  10.1474071  21.3987684
  77.0741224  10.9657407  21.0246801  77.2944880   9.4684148  21.0036612
  19.0948987  12.4623132  49.2641830  19.6852577  12.8341484  49.9195004
  19.0563607  11.5300977  49.4780016  89.8438454  52.2005081  62.3197603
  90.6056786  52.7786398  62.2796297  89.1242504  52.7281475  61.9733334
  80.6805801  74.3436146  29.6362877  81.2899303  73.7646532  29.1783261
  79.8753214  73.8317776  29.7125149   3.4992385   1.8337791  41.4636707
   3.3724669   2.7404884  41.7430258   2.6314080   1.4367718  41.5377474
  62.2494841  58.9048481   1.9038954  62.6376200  59.7761965   1.9834568
  62.3972034  58.6593294   0.9905874  37.1189952   3.5737959  58.6707163
  37.7056479   4.1574726  58.1896830  37.5846243   3.3843291  59.4852877
  27.7210379  20.7112741  22.0551443  27.0237637  20.7628322  21.4014006
  28.3329749  20.0653625  21.7022085  15.4005837  14.7467613  29.4229507
  14.9544287  14.9059987  28.5911918  15.4725099  13.7938309  29.4775677
  84.9040318  66.1113548  30.4971051  84.7281551  65.2646065  30.9073734
  85.3543568  65.8932018  29.6811104  26.1776328  24.5304942  31.4297366
  26.2026596  25.1246047  30.6796432  25.6224418  24.9759698  32.0696950
  36.0800004  34.9988031  72.1429253  35.6872702  34.1688991  71.8722677
  35.4463983  35.6632113  71.8721104  73.2929611   7.1259612  66.3198137
  73.9471960   6.4570940  66.1177635  73.2184315   7.6389080  65.5150986
  81.1135578   3.9131105   7.4901682  81.1598587   4.2155996   6.5832019
  81.0487080   4.7159243   8.0073881  57.7771711  52.0934439  14.1271627
  56.9053745  51.9779778  14.5051444  58.2218075  52.6907539  14.7286236
  83.9050102  63.4128380  27.3647928  84.2193604  62.5574446  27.0720100
  84.2449188  64.0281439  26.7150998  50.4437304  50.3466654  41.3760662
  51.3765621  50.2355146  41.5596533  50.0107384  49.7045946  41.9386435
  78.4248304  71.1533213  36.8949628  79.0948772  71.0770082  37.5742579
  78.8622093  70.8654022  36.0936928  40.1131725  68.6263514  31.1793303
  39.5923018  68.1005907  30.5722904  39.6302676  69.4489717  31.2588835
  87.7919865   7.1867484  51.5035295  87.3486996   8.0331808  51.5608311
  87.3096657   6.7089796  50.8287430  79.0229797  61.5360069  35.6361580
  79.0478134  62.4923849  35.6052232  78.2184172  61.3022041  35.1732850
  14.7946930  20.7506394   8.1703675  15.5909681  21.2314606   8.3961737
  14.7040033  20.8681083   7.2247416  15.7859349  12.4337626   1.0260893
  15.1980710  12.6468408   1.7508277  15.3661215  12.8177619   0.2563278
   2.2725457  40.8842230  17.7124929   1.9433495  41.7105532  17.3588824
   3.1513360  40.7986879  17.3428404  15.6997609   9.8963553  58.7424231
  15.5277288  10.1314867  59.6542072  16.6056645  10.1665604  58.5922194
  76.1470079  49.7394037  41.5423679  75.8453655  49.4625950  40.6771374
  76.0819197  50.6942225  41.5245581  88.6120605  46.3073730  37.6117325
  88.0689144  45.7105207  37.0969605  88.7820435  47.0436144  37.0241189
  23.9192629  16.0796046  20.0078678  23.5234261  15.6289101  19.2619336
  23.9673758  15.4125786  20.6927013  78.9124107  59.0742970  29.0391350
  79.3579674  58.4944868  28.4214497  78.0460501  58.6833525  29.1523266
  27.0953059   2.5185344  11.1716318  26.3655972   2.2193478  10.6291902
  27.7544260   2.8150752  10.5440521  67.6427984  76.1912155  43.4109545
  68.3349323  76.5806150  42.8765869  66.9634008  75.9473658  42.7823162
  37.1161509  27.0333433  26.3741755  36.3144660  26.6349339  26.0353494
  37.0173717  27.9668307  26.1868906  74.7954416  73.5779619  18.4773874
  75.4732800  74.0457726  18.9651573  74.0245485  74.1421795  18.5375202
  79.2093611  28.9805222  22.3940086  78.7937832  28.3021879  21.8616652
  79.9841452  28.5553265  22.7616358  31.7142797  13.6774564  44.6617842
  31.4398336  12.8158009  44.9755669  31.2780857  13.7741828  43.8152552
  25.0898790  51.9140482  64.7548532  26.0034013  51.9275141  64.4693327
  24.9583006  52.7630615  65.1768684  18.1010747  81.4500618  20.0376296
  17.6975858  82.2418976  20.3931928  17.4979949  81.1606693  19.3529570
   1.9967259   0.8457271  34.3846107   2.5381362   1.3811909  34.9645972
   1.7637958   0.0817186  34.9121189  81.9890881   4.6690080  42.4532032
  81.1621571   4.6696693  41.9711065  81.7526531   4.9576017  43.3347034
  87.0101738  27.7416587  13.2652295  87.3901749  28.5975242  13.0669308
  86.6998672  27.8205681  14.1672885  33.4359169  52.3872662  72.5631666
  34.2318726  51.9316864  72.8372669  32.9411221  52.5131607  73.3728361
   0.5260732  14.8487318  39.9244237   0.0133874  14.4783592  39.2059493
  -0.0477717  15.5092978  40.3124809   9.4574124  73.8999748  30.5040097
   8.5198641  73.8385296  30.6869292   9.8787314  73.6554575  31.3279843
  73.6843109  27.1952105  24.7445440  72.8071260  27.1082115  25.1176572
  74.2641687  26.8157458  25.4048491  34.3788671  32.6397705  27.0854163
  35.2574253  32.7892160  27.4347496  34.5257020  32.2001219  26.2479329
  90.1448631  75.9141493  66.1559629  90.2104473  76.6369057  66.7800999
  90.8986378  75.3581572  66.3532639  40.9784937   3.0358234  45.9644175
  40.0410938   3.0359244  46.1581135  41.0821056   2.3720410  45.2825928
  52.8422117   9.0780747  26.6765904  52.9977655   9.2337412  25.7450318
  53.7108707   9.1261530  27.0757818   8.0459660  59.3034029   4.9018261
   8.1242043  59.6623468   5.7857215   8.5485065  59.9057770   4.3533480
  41.4422131  15.8351326  22.8071046  41.4926958  14.8797321  22.8369999
  42.2704935  16.1064792  22.4114394  27.2035408  20.5379844   1.5254657
  26.5255451  19.8701191   1.4229597  26.9083023  21.2650943   0.9773988
  54.0184116  63.1590414  72.0314503  54.4872665  63.1700659  71.1970139
  53.7397051  62.2494841  72.1375799  52.2821903  27.9525018  17.9522622
  52.2069645  27.6176262  17.0587122  51.9908476  28.8623190  17.8923893
  86.3640308  67.8229427  73.5518026  86.1223602  67.1148586  72.9547739
  86.4187241  67.4038982  74.4106627  76.6333437  78.4380484  20.6714702
  77.4338341  77.9157305  20.7227635  75.9913874  77.8535461  20.2683854
  20.3788185   2.8736371  22.1276188  20.0840783   2.0929703  22.5965762
  21.2069988   3.1066728  22.5471926   1.5805881   7.3587149  21.4317489
   1.2755948   8.1097007  21.9408965   1.0998616   7.4179387  20.6061435
  79.7790003  24.2428994   0.9441815  80.5040646  23.6219811   0.8736505
  79.8749590  24.6250939   1.8165067  87.3255634  76.5350056  60.2958536
  87.1131611  75.8100939  60.8837414  88.2645226  76.4444351  60.1334476
  18.8734603   1.9567704  25.5606771  18.7867916   1.5436544  24.7015762
  18.9363325   1.2241472  26.1734915  48.7118435  72.2319221  55.3217936
  48.3757114  73.0321693  54.9182463  47.9366493  71.8019533  55.6829453
  78.6543179  81.2819958  29.0532184  79.5170784  80.9466743  29.2970109
  78.6190844  82.1566391  29.4405174  90.2888870   0.4138408  41.8523788
  89.5391464   0.7348002  42.3534870  90.0230312  -0.4560289  41.5542555
  46.6653490  12.7154326  32.6680636  47.3506546  12.4562836  32.0520878
  46.7094707  12.0606077  33.3648348  76.7670012  70.6366587  14.2506826
  76.6513634  71.1176682  15.0701272  77.6500654  70.8658123  13.9610076
   1.9436263  60.4902315  29.9115729   2.4010636  59.8865223  30.4968238
   2.5376678  61.2357330  29.8245525  86.9332504  81.6240597  13.0046749
  87.5352573  81.1660385  13.5912192  86.0854244  81.5759182  13.4463871
   0.2646234  81.3459778  27.9128432   0.3239133  80.7553768  27.1619010
  -0.0638220  82.1670246  27.5464725  41.8432188  15.2129745  37.2972989
  41.9575739  16.1627126  37.2633576  40.9042740  15.0799870  37.1671724
  29.2768289  86.2111674  13.6298656  29.7805931  85.6324416  13.0575645
  29.6818353  86.1082549  14.4910336  76.4732027  77.0396757  44.1200733
  76.1531115  77.4620914  44.9171543  76.6270638  76.1302948  44.3761683
  69.2537880  18.8583040  35.6191707  70.1777840  18.6258638  35.7110310
  69.2397118  19.5126176  34.9206662  80.6538677  79.3741465  34.1562223
  80.8270836  78.4879494  33.8385963  80.4385281  79.2590332  35.0817537
  87.0077229  51.8630075  31.0015607  86.2467098  51.7648506  31.5738034
  86.6376019  52.0803690  30.1459932   0.5947442  74.3087387  41.4784431
   1.3641161  74.4169188  42.0375443   0.5703654  75.1050568  40.9478569
  84.2304707  63.3054256  21.3879728  84.8052502  64.0691185  21.4393139
  83.6392498  63.4991026  20.6605244  78.3483458  31.9245672  70.2833891
  77.8222656  31.5686154  69.5673084  77.8941679  32.7277803  70.5379581
  40.7009649   8.0701226  12.6507807  39.9672294   8.6285603  12.3938537
  40.6839943   8.0775964  13.6078012  91.3955212  72.6171112  21.7779565
  91.8120575  71.7776155  21.5831017  91.7259884  73.2106924  21.1036515
  83.1672764  81.5976238  26.6233420  82.5503063  80.9240341  26.3372517
  83.9207268  81.1078644  26.9529986  11.5494382  22.5714850  50.4138470
  11.7994666  21.6533446  50.5174541  10.9475803  22.5732946  49.6695375
  47.1261551  38.6401411  74.6324694  47.3647548  38.4190126  73.7322440
  47.8212597  38.2549043  75.1660000  44.0904903  22.5567698   6.2984174
  43.6914110  21.8269587   5.8247703  43.4899855  22.7285290   7.0237631
  29.8073936  12.4034107  21.6390347  29.8614550  11.8182468  20.8834600
  30.5921745  12.9479229  21.5769053   4.8998524   0.1310904  49.2732859
   4.2391563  -0.2289312  48.6815929   5.6975819   0.1708967  48.7457705
  42.5686169  83.2663345  22.8716826  43.0509853  83.0785942  22.0665073
  41.8134499  83.7795448  22.5843453  49.6749640  11.6510892  49.2264986
  49.8862457  12.0944118  50.0481129  48.8632584  12.0648491  48.9329386
   1.1588559  82.2571278  48.2539654   1.2323468  82.4412441  49.1904116
   0.4745422  81.5905476  48.1939077  25.3283620  25.3454208  27.8498530
  26.2627769  25.5473661  27.8980017  24.8935914  26.1792064  28.0287647
  61.3085794  18.3760154  33.0495882  61.0672092  19.2969084  33.1492329
  62.0413733  18.3857572  32.4338341  39.0122986   5.5885041  44.5435667
  38.9422321   6.5199554  44.3344688  39.1847801   5.5666482  45.4848433
  30.1224279  14.9818516  37.1425772  30.7977009  15.3411913  37.7180028
  29.3499136  14.9000120  37.7018261  49.4271898  25.8323002  46.4156866
  48.4737253  25.7852292  46.4858294  49.6017790  26.7257857  46.1199903
  44.1799355  13.6230946   0.1546936  43.9193249  14.5371294   0.0413208
  43.4898615  13.2429445   0.6983104  49.1932774  70.9760714  42.4418497
  50.1092100  71.2477732  42.3828983  49.1790247  70.0977993  42.0615005
  13.7115145  10.9831715  17.0615160  13.2081258  10.5029130  16.4041090
  14.5322430  10.4964638  17.1373618  29.0725827  29.0670943  56.7353821
  29.1726160  28.2278824  56.2859964  29.9599934  29.4233823  56.7777300
  79.1853666  68.3668184   9.0219289  80.0242329  68.6993694   8.7026578
  78.6815548  68.1863689   8.2283026   8.0242020  11.4951944  43.4711266
   8.6864156  10.8649278  43.1874561   8.3592516  11.8380904  44.2996168
   1.7940751   2.5240877   5.9947664   1.7601474   3.3571017   6.4650518
   1.5521127   1.8692777   6.6496783   1.9592401  85.3099346   0.6121023
   2.6049110  86.0053539   0.7375277   2.2699086  84.8303223  -0.1558072
  51.3510180  58.8122320  60.4510117  50.7880211  58.0395365  60.4039860
  51.4416075  59.0982485  59.5420456  40.2536774  13.2051635  56.5818167
  39.8666143  12.5292754  57.1382284  41.1914492  13.1610584  56.7685604
   8.0905616  74.2333126  37.3765922   8.0377865  73.4009838  37.8463507
   7.4303025  74.7863483  37.7942538  21.1897707  27.0579362  51.1022139
  21.4567041  26.1413169  51.0330343  21.3395286  27.4176502  50.2279091
  84.9063873  84.9892712  11.9064248  84.4175053  84.1706371  11.8224311
  85.1810551  85.0112438  12.8231096  44.0129280  17.6627445  28.3751607
  43.9649343  18.5725474  28.0815840  43.2933712  17.5744855  29.0002036
  90.8313942  55.4133224  63.4121799  91.3758564  56.1077023  63.0412054
  89.9869442  55.8330345  63.5764313  20.6462145  29.9021339  23.0257177
  20.0850701  30.3480577  23.6601472  20.8200121  29.0469980  23.4191251
  17.9004467  76.7977333  25.1687407  18.5903049  77.3963499  25.4550672
  17.1556902  77.0026207  25.7340622  43.3581924  18.3302438   8.8365835
  44.0681219  18.9520955   8.9963663  43.7459183  17.6650524   8.2678813
  46.1526632  62.6491785  52.7347469  45.5912399  62.5796366  51.9626093
  46.1808252  63.5864973  52.9267693  44.0891409   8.0560261  24.2362046
  44.5748043   7.2380227  24.3421984  44.7072792   8.6477053  23.8071942
  83.8402367  37.2886920   5.7458454  83.2199192  37.8466272   5.2766526
  84.6030426  37.2412467   5.1695514  68.1658411  80.2101326  41.8579721
  68.7421417  80.7501698  41.3171673  68.6171341  79.3684483  41.9223213
  11.4567041  86.3470936  27.7673650  10.6095290  86.2377453  28.1993032
  11.2495816  86.3571262  26.8328953  40.9493446  11.6227007  44.1550970
  41.8249798  11.7619801  44.5157862  40.3702307  12.1184897  44.7339344
  82.4498272  37.1646166  63.6134386  83.0377865  37.6088762  63.0025578
  81.6975594  37.7513480  63.6913919  46.5262270  17.8051984  29.3141484
  45.6198025  17.6221108  29.0669537  47.0404005  17.5426447  28.5506558
  32.4167943  11.3927186   7.1523565  32.2936749  11.0102534   6.2835675
  31.7234254  12.0485234   7.2257978  82.1563911  58.7769699  63.2716990
  83.0026054  59.1427279  63.0140734  82.1750927  57.8772163  62.9456186
  36.9708109   1.3384475  18.0708706  36.2409973   0.9207015  17.6136029
  37.5541544   1.6334952  17.3716640  15.4804790  82.4760342  32.5239730
  15.8678591  81.8631744  33.1489229  16.0469711  82.4232483  31.7542124
  38.8305259  24.2286515   5.4670995  38.6260247  23.8821507   4.5985687
  38.1909347  23.8149047   6.0467267  35.5099797   9.5390165  14.7052228
  35.8368802   8.6716455  14.4664013  36.2953377  10.0366616  14.9328053
  70.4596758  27.6123548  21.6774154  69.5980120  27.9569674  21.4428759
  70.3510809  26.6615582  21.6568470  78.6921263  76.9975424  42.5434303
  77.9644394  77.2190332  43.1244993  78.4334469  77.3483229  41.6912174
  91.4056807  82.5189114  14.7917092  91.2002729  82.4183846  13.8622296
  91.3480993  83.4613132  14.9491584  37.3570800  10.4973078  16.8405247
  36.6734433   9.9156255  17.1729672  37.4868369  11.1383665  17.5394082
  11.0527551  19.0282881   0.7734094  11.0852849  18.8445687   1.7122495
  10.6768095  19.9065709   0.7141084  64.2981339  67.0884943  23.3436561
  65.1311970  66.8487024  22.9377747  63.8948202  66.2518072  23.5750127
   7.7385694  36.5867329  61.9043493   8.4534794  37.1693420  61.6480255
   8.0769360  36.1120486  62.6635647  29.0660453   8.5226458  45.5699873
  29.4969487   7.6684630  45.6004286  29.1408443   8.7961960  44.6557665
  62.8558969  25.0008202  43.0171108  62.5411177  25.5534291  43.7324905
  63.5030937  25.5412197  42.5639725   7.5483876  67.5649881  21.2820864
   6.8133950  67.6884031  20.6814289   8.2926124  67.3691607  20.7128644
  25.2596116  74.9572420  18.0794680  25.8654666  75.6943893  18.0033910
  25.3014326  74.7071171  19.0024626  32.1477365  65.5291176  65.4347515
  31.8201470  66.3526440  65.7963085  31.6647387  65.4181290  64.6158314
  68.1020880  32.4343824  39.6634674  67.4047041  32.8115797  40.1997662
  68.2579136  31.5708685  40.0459480  58.1118631  17.4039173  44.7023869
  58.3349800  17.7464843  45.5678892  58.9309692  17.4476361  44.2090416
  81.2498093  53.4854460  20.5666566  81.3251400  53.3346605  19.6244133
  82.1531963  53.4801626  20.8830357  55.1768970   7.0005763  51.0510874
  54.8852777   6.1347973  51.3367748  56.0076189   6.8380958  50.6041718
  55.4461145  19.1776264  38.3820009  55.2080917  18.8799250  39.2600393
  56.3740540  19.4027781  38.4487820  20.6242871  84.1126823  32.8208971
  20.5327988  84.9853325  33.2034373  19.8886621  84.0393829  32.2128558
   5.9321034  72.6650858  72.5357914   5.1773030  72.4175978  72.0016956
   5.6651258  72.4680614  73.4336424   6.6370416  71.4749765  31.3598299
   6.0664141  70.7315874  31.5547419   7.1071386  71.6369820  32.1777487
  38.9998698  20.0952530  12.9336047  38.2680249  20.7120824  12.9461813
  39.4125652  20.1957345  13.7914026  34.6081781  26.2731242  26.0496521
  34.5759678  25.3842831  26.4034271  34.3744230  26.1722660  25.1269269
  14.5804465  76.1414242  60.6669521  15.0173378  76.9445896  60.9503031
  14.1066492  75.8402061  61.4422035   5.1545060  24.4269085  20.9917331
   4.2360574  24.6533751  21.1380100   5.6003559  24.7062445  21.7913699
  59.8450565   5.0642067  33.6346579  60.2211332   4.7373381  34.4519424
  58.9682961   4.6813148  33.6044502  26.4980698  34.1043019  36.7068624
  26.1723304  34.8517704  37.2082758  26.6785002  33.4340596  37.3659921
  10.9675288  78.1098986  28.4215951  11.4097452  78.2127094  27.5789165
  10.1641405  78.6229658  28.3346534  20.0673747  20.7762170   7.0435834
  19.2971420  20.2145529   6.9569254  19.8401284  21.5705943   6.5603077
  17.2723186  80.9780407  12.0442021  17.2198927  81.0218811  11.0894454
  16.4529598  80.5607224  12.3101532  85.8262539  81.9749832  34.6425724
  86.5402222  81.8523693  34.0169144  85.4272079  81.1086845  34.7234058
  13.5547018  39.4347429  24.2009377  14.2771041  40.0605249  24.2535067
  13.2676673  39.4763660  23.2887363  31.7302537   5.9059268  25.3466988
  31.4850783   6.8306321  25.3144407  30.9333205   5.4380006  25.0973558
  37.0998383   3.0186003  11.3605535  37.2511768   3.8543713  11.8019331
  37.7450681   2.4247777  11.7443323  53.2251692  16.2267745  40.5055237
  53.2710886  15.3493941  40.8854246  52.7662230  16.1042273  39.6745086
  45.1087093  79.6639061  74.2026138  44.5885038  80.2684116  73.6732769
  44.7335052  79.7306585  75.0806808  50.1144695  26.2616730  26.7943358
  49.3683958  25.7436085  26.4923215  50.6889582  25.6271219  27.2227526
  71.3772440  66.2258005  23.1048846  71.7885733  66.5248013  22.2939348
  71.4620781  65.2727127  23.0792117  49.4280243  47.7186584  69.7866726
  49.9974346  47.4834967  70.5192757  49.0430784  48.5570097  70.0420427
   7.5953251  45.8311033  51.7106152   8.1434608  46.5503025  51.3967133
   7.1417582  46.1907434  52.4729538  58.6612940  22.9449081  34.2104411
  58.7699699  23.4937096  33.4337592  58.8265705  23.5350418  34.9457359
  35.9546852  28.9339900   9.2819136  35.7758832  28.9672422   8.3421499
  35.6573677  28.0650520   9.5516914  33.6303496  10.8196378  35.2508378
  34.0041995  11.6251552  35.6080627  34.2843628  10.5091882  34.6246433
  13.2157207  22.4387002  32.8050089  13.2095587  23.1823802  33.4076142
  14.1437399  22.2709250  32.6411057  52.6830769   9.2388278  46.6050196
  53.5642338   8.8661075  46.5754509  52.6785469   9.7806227  47.3941135
  31.5208125  83.7659454   7.5994569  31.9613981  84.5227432   7.9859310
  30.9466815  84.1388702   6.9304800   8.8448948  25.6714559  13.9124000
   7.8985292  25.5431342  13.9768827   9.1947168  24.7957063  13.7483323
  10.2804208  27.0488286  11.7148864   9.4199502  27.2020292  11.3245618
  10.1471972  26.3067985  12.3046947  75.5478716  67.4977684  29.8325086
  75.8670473  67.8257608  28.9918041  75.0832701  68.2403135  30.2185154
  43.8844872  32.2801757  28.1740808  43.8444519  31.7834020  28.9912987
  44.8165846  32.3122334  27.9586911  74.8688221  70.2543640  59.1581249
  74.0620279  69.9734879  59.5898914  75.3972960  70.6327677  59.8608017
  11.6760111  42.1132946  41.4429283  11.6254616  43.0690956  41.4535856
  11.8742919  41.8940687  40.5325079  46.7741823  26.0393000   3.3510622
  46.8569231  25.7967281   4.2733112  47.6362658  25.8569646   2.9771712
   3.6232117  74.4332981  28.9138389   2.9284567  74.3169022  29.5619130
   4.4185704  74.5494509  29.4335938  46.5587759  25.7482314  34.1912436
  47.2600985  25.6445432  34.8343801  46.8847942  26.4149594  33.5867476
  64.2358971  15.2041829   0.5145547  64.3078852  15.7768607   1.2781583
  63.4213686  14.7209954   0.6534790  22.1959925  43.6139584  37.1101213
  21.9722772  44.3159676  37.7211618  22.3626328  42.8545189  37.6684356
  18.0546701  23.8559604  48.5412836  18.2713163  24.7348166  48.2299757
  17.7902865  23.3811593  47.7533150  41.7714024  23.3960152   1.1676171
  41.4033842  24.0655661   0.5909909  42.6585674  23.2561255   0.8365624
  50.6493759  12.2936213  51.7210913  50.1804829  13.1069636  51.5344238
  50.9030056  12.3690915  52.6409864   4.4440335  86.0949802  44.0392733
   5.0419492  85.5464458  44.5470476   4.7637227  86.0284805  43.1394911
  52.2886896  64.9703217  71.2324858  52.8523970  64.2837477  71.5889597
  51.8442011  65.3363180  71.9971514  15.0682449  33.3467913   6.0950434
  14.5717192  32.5625896   6.3289779  15.7518721  33.4053922   6.7624646
  13.0007994  80.6541920  24.0361214  13.7558961  80.6038189  23.4500122
  12.5064027  81.4125538  23.7251639  49.2090130  45.6368303  28.4228587
  49.5675611  45.0982904  29.1283035  48.8778734  45.0054359  27.7841711
  71.4717770  62.8723097  31.1237359  71.9764900  63.4567595  30.5581260
  70.5594301  63.1149006  30.9656191  40.4126692  10.3996801  20.6755638
  40.4281855  11.0472357  19.9708211  40.0473833   9.6132404  20.2702093
  36.3947535   4.1431442   8.9115113  36.5195489   3.6474973   9.7208273
  36.4826846   5.0589913   9.1755652  21.6887116  80.2950668  28.0082989
  21.6703224  80.4757214  28.9481163  21.9937444  79.3900299  27.9442930
  45.3726196  44.4161654  74.7487879  44.4372845  44.5092249  74.9296713
  45.5976105  45.1970625  74.2430019  11.8410408  23.9888024  15.5522656
  12.4360979  23.7875509  16.2745094  12.3389721  24.5821619  14.9899304
  67.0148802  32.9922581  17.7223420  66.1924171  32.5063539  17.7830076
  67.3800707  32.7400541  16.8742490  56.3274240  28.0541372  23.0395603
  55.4887676  28.3751392  23.3709931  56.2823629  28.1981397  22.0943284
  16.4638317  66.1954927  19.2062151  16.8126547  67.0278883  18.8873529
  17.2395420  65.6691837  19.3998742  67.7172995  38.9024782  38.5021114
  67.8907824  38.0823469  38.9641953  67.2670603  38.6352921  37.7007818
  51.3636971  43.5600281   2.0150746  52.0716572  44.1792345   2.1928653
  50.6285477  43.8802004   2.5378388  49.3358612  12.9700756  11.8799984
  50.0920105  12.5825334  12.3207772  49.4579315  13.9141262  11.9804966
  16.8766224   7.0705819  38.4076905  17.1197152   7.9732263  38.6135340
  16.8340182   6.6340482  39.2584872  35.7696700   4.1403562  29.5246267
  34.9883819   4.4519317  29.0677428  36.2810564   3.6956358  28.8486528
   1.6597952   4.4075850  30.6141949   1.6961995   5.3341496  30.8516479
   1.2545545   3.9823866  31.3699841  55.0235605  21.6086221  27.7153397
  55.2767372  22.5298095  27.7748942  55.5128193  21.2738657  26.9638085
  34.2399979  73.7173128  40.0600958  34.0748096  74.6358013  39.8472118
  34.4504762  73.3107281  39.2194867  65.8282137  26.9641280  30.1215625
  66.5128422  27.6071596  30.3060389  65.1753712  27.1060133  30.8070517
   0.2219172  65.6600094  22.6837683   0.9910997  65.6439209  23.2532692
  -0.4653350  66.0546684  23.2205749  55.3701830  21.6524506  17.2944248
  55.0604200  22.3245072  16.6872847  56.2476206  21.9418001  17.5446510
  36.4198399  30.0566983  26.9123912  36.1830974  30.7622147  27.5144148
  35.6360483  29.5093060  26.8648434  62.3516226  20.5197287  56.5940094
  62.7185535  19.8454857  56.0221767  62.9437160  20.5444646  57.3457003
  39.3454432   0.6332418   2.6131269  39.6715236   0.0176504   3.2695952
  38.5696602   1.0237806   3.0154604  45.0224209   5.0553966   9.1057336
  45.0405169   4.1087145   8.9653832  44.2680645   5.1984078   9.6773338
  75.9627867  31.0071063  51.3525057  75.8099270  30.1230240  51.6860676
  76.4922380  31.4299703  52.0285988  69.4590664  15.1243258  67.2914553
  70.2789879  15.4712605  67.6430225  69.1938734  15.7619333  66.6286135
  91.5511126  76.9680214  17.6489067  91.9992387  77.4952650  18.3102882
  90.6560541  77.3071241  17.6383936  49.0755367   9.6185899  51.5383625
  48.2530308   9.4093293  51.0957241  49.6289253   9.9910957  50.8518982
  20.2877855  64.3256807  27.8421926  20.4853797  65.1009750  27.3167348
  21.1119080  64.1185856  28.2828379  85.8033371  28.9007020  32.3326278
  85.6668949  28.5317159  31.4600086  86.5264988  28.3909130  32.6978469
  33.6431432  15.8768106  40.9168720  33.7329674  15.5704927  40.0144720
  34.0485239  16.7439318  40.9169388  21.9271946  30.1052523  27.7255297
  22.7489424  30.4363751  28.0879092  21.5802097  30.8352160  27.2127104
  39.9574399  26.4222312  10.8134568  39.9961567  26.1239409  11.7221677
  40.8736229  26.4941239  10.5457306  52.9751825  24.1556501  69.0554619
  52.4097824  24.6460962  68.4587908  53.7583590  24.6988082  69.1440296
  46.6816568   6.6229016  32.5583220  47.5035143   6.7498845  32.0843363
  46.6887856   5.6985205  32.8067183  79.2095947  22.1360159  24.5401907
  79.6536255  21.2956882  24.6538711  79.4599247  22.4222803  23.6617708
  76.8934679  65.5787086  57.3834467  76.0231733  65.2177238  57.2145939
  76.7296743  66.3654280  57.9035187  28.3507776  33.0498886  11.0716796
  27.8590727  33.8490510  11.2608922  29.0412784  33.3301020  10.4709113
  48.3145523  16.9279265  12.0208645  47.4243546  17.1662748  11.7620838
  48.8763380  17.3836207  11.3939869  19.4803083  22.8282738  33.7509704
  19.1397405  21.9697237  33.4997010  20.3610587  22.8553534  33.3771014
  56.9695330  18.4201920  20.1037598  56.6271210  18.1562424  20.9577608
  56.2188339  18.3533847  19.5136619  56.9459867   4.4900161  24.0093660
  57.6211405   4.0166777  23.5232067  56.2012291   3.8891271  24.0316987
  57.7952957  29.1400814  24.9858069  58.2285166  29.3219209  24.1518497
  57.0803928  28.5451174  24.7596097  39.5029473  11.5586996  58.6129284
  38.5886836  11.4121962  58.3702564  39.4590735  12.1406972  59.3716002
  52.5572062  30.1318741  26.2835598  51.6493988  30.4339170  26.3133264
  52.9919624  30.6099296  26.9897366  83.4841728  68.5710049  53.7406874
  83.2631302  67.6546764  53.5742044  82.8234673  69.0681887  53.2585001
  17.2426450  32.9903936  58.2221556  16.4383376  33.0537152  58.7372398
  17.8550804  32.5236583  58.7907648  78.0472660  84.1789627   5.5456775
  77.8951836  84.4849968   6.4397973  78.1819582  84.9793339   5.0382376
  28.1647539  41.4032030  28.5552979  27.5062656  41.5338993  29.2376041
  28.4955263  40.5180550  28.7080693   6.9281131   3.1358778  32.4187160
   7.8698438   3.1814724  32.2535014   6.5881032   2.5824997  31.7155814
  50.7534027  10.0239766  28.2211995  49.9173117   9.5857316  28.0627036
  51.3340378   9.6859425  27.5394154  46.0111809  30.9051871  30.2845812
  46.7878056  30.3528976  30.3743839  46.3090849  31.7798400  30.5345225
  63.6818886  71.1103582  73.1083584  63.0042696  70.9396648  73.7625217
  64.4932508  71.1668015  73.6130714   7.8164667  10.2062559  33.5811400
   7.0684582  10.2526248  34.1765952   7.4841386   9.7383255  32.8150916
  71.8865395  55.4390383  73.8737488  71.9702911  56.1299038  73.2165432
  72.5611830  54.8019314  73.6388302  41.6603565  79.7356176  71.2928534
  40.8317137  80.1618958  71.0740662  41.4328241  79.1072178  71.9781113
  53.0402231   7.4099571  49.2271566  53.8617659   7.6575577  49.6514177
  53.2897520   7.1968323  48.3279657  36.1092234  14.9330544   8.6250019
  36.4014435  14.0239239   8.6907357  35.1549649  14.8750663   8.5774434
  52.1527100  24.2599201  11.6327751  52.7259874  24.6133137  10.9525585
  52.6499224  23.5354686  12.0124876  64.8992109  29.2726398  15.6945217
  65.7585096  28.8516164  15.6704521  64.2762947  28.5505080  15.6124818
  37.2166395  19.7745156  59.7398043  37.4384236  20.1297426  60.6005383
  37.5424600  20.4272437  59.1201115  25.6375527  12.1704745  50.8763599
  26.0395455  11.3924122  51.2626934  24.8391032  12.3059618  51.3866091
  44.3141270  13.7162697  32.0069122  44.0326881  12.8050780  31.9247246
  45.2580070  13.6628211  32.1567750  21.6250825  35.3462815  20.8779192
  20.7253838  35.3635240  21.2042308  21.6189003  34.6769667  20.1936603
   8.5288721  26.5480161  17.3194087   9.0317887  27.1233225  16.7429304
   8.5165089  27.0037127  18.1610858  23.7025046  43.1900835  11.0615087
  23.3625984  43.1730986  10.1668549  24.2693138  43.9609718  11.0877836
  64.3837166  44.4539404  30.2695298  64.7222233  43.6499071  29.8756051
  65.1258326  45.0583458  30.2555871  11.9160104   7.6607990  24.6851826
  11.3609862   6.8813360  24.7100067  11.8677461   8.0175406  25.5721092
  83.6009884  85.8021736   8.4311157  82.6640606  85.6353378   8.5338914
  84.0250301  85.0890160   8.9084202  71.8139601  13.3842909  19.3970501
  72.5359869  12.9950178  18.9037144  71.0852909  12.7755797  19.2756319
  30.0999427  19.2119420   9.7524381  30.9221768  19.6522617   9.9675667
  29.4782090  19.5332158  10.4054785  35.9491301  10.7987881   1.9125488
  35.8394504  10.8571351   2.8616527  35.6535745   9.9156964   1.6911277
  53.4828854  17.3743773  27.3014069  52.8747272  18.0615819  27.0291400
  53.5839605  16.8228543  26.5256238  39.0315604  23.5420179  41.4185143
  38.3859706  24.1967320  41.6845894  38.5102153  22.7783632  41.1709976
  52.0140886  29.9586082  31.6126943  52.7641249  29.4521308  31.9244003
  51.6642046  29.4450498  30.8846354  61.5125370  75.0285196  53.3454084
  62.3303223  75.4251146  53.6457062  60.9765482  74.9575710  54.1352892
  58.8400555  13.5632479   3.2693341  59.1122913  14.4739509   3.3822033
  58.7243176  13.4632134   2.3244378  22.8003860  33.2025409  64.7286797
  23.0680490  33.1483412  65.6460953  22.8193474  34.1383910  64.5285368
  10.1546752  48.6314821  48.9784241  10.5694878  49.4716549  48.7827873
   9.9994320  48.6551189  49.9226570  11.2179971  76.2874222  53.9147758
  11.9376898  76.7559719  54.3375444  10.6719446  76.9771957  53.5375834
   1.8213457  84.6423626  43.4279346   1.3158561  85.2663422  42.9070091
   2.3736148  85.1889896  43.9868927  23.3951974  28.8622737  37.3353004
  23.0593514  29.1088533  38.1970644  22.6527023  28.9869905  36.7442155
  46.2110806  47.6412153   7.9765248  45.8833218  48.2874537   8.6019713
  46.4084291  46.8708849   8.5093254  23.0449533  14.6922255  13.4225953
  23.9067531  14.3278396  13.2207215  23.2314444  15.4766893  13.9384162
  43.8785648   6.2462091  14.8312759  44.6394682   6.8050146  14.6731639
  43.3577490   6.7271042  15.4744887  82.9140472  64.2820644  71.9090080
  82.8154278  64.6643925  72.7809763  82.0778942  64.4541931  71.4760494
  40.6761456  13.5685980   8.9283121  40.8732986  13.8569319   8.0371183
  41.4056206  13.8977575   9.4534343  16.2452888  85.0975609  45.6092739
  16.9844067  85.6929207  45.4848433  15.6028104  85.3734684  44.9555731
  25.0073814  70.6595898  72.6621437  24.9843907  71.2464762  71.9063234
  25.1119041  69.7863770  72.2842455  58.0230999  57.1576881  69.4488049
  57.7746439  57.9272842  69.9608803  57.9994154  57.4569225  68.5398865
  38.7630463  85.7855129  14.4013357  38.5829759  86.6321373  14.8100507
  38.0051637  85.2454185  14.6252573  48.2502651  22.4375224   5.9890705
  48.1898499  21.5401530   5.6614876  48.2433271  22.3456669   6.9418281
  40.0912428   4.2863747  72.9496527  40.3718567   4.0333316  72.0701885
  40.9007359   4.5304754  73.3983898  55.5781031  13.2911158  21.7157936
  55.5121946  12.9893100  22.6217747  54.9408054  12.7592027  21.2391853
   1.3886079   8.5953343  63.1006479   1.5390274   9.3146408  63.7140036
   0.8711860   8.9855099  62.3961830  71.0690308  58.5765886  33.1068897
  71.7882013  58.8386202  33.6816573  71.1223125  57.6213455  33.0768347
  32.9708481  48.4614420  10.6305289  32.6933146  48.6894846  11.5177739
  32.7484512  47.5347757  10.5407429  56.0630941  16.0486770   3.5936216
  55.8794165  16.4588141   4.4387740  55.9178305  15.1146030   3.7440744
  10.2178776  16.8833017  43.4365416  10.4919589  16.0390258  43.7947416
  10.9434068  17.1510780  42.8725052  37.2887111  15.0582707  31.1024237
  36.3632584  15.2348363  30.9333324  37.5283360  14.3954968  30.4547048
  36.3628983  19.6102178  17.4669623  36.1865091  20.5114269  17.1968889
  36.5966773  19.6789837  18.3926249  56.1872339  30.0387764  46.5881348
  55.3893137  29.7108579  46.1733723  56.5963173  30.5881739  45.9195185
   6.2891716  39.2496586  37.6835060   5.8852476  39.5784950  36.8804216
   5.8365285  39.7147560  38.3870888  12.6243663  31.3382769   9.4606191
  12.3974049  30.8878374   8.6470932  13.0586350  32.1424246   9.1760296
  54.1716576  41.2096930  70.6084061  54.9884224  41.3972902  71.0709381
  54.4498682  40.9111166  69.7425652  81.8212032  17.9682016  50.0196934
  81.2127876  17.4295247  50.5255508  82.6858234  17.7341950  50.3571939
  58.8897800  12.6938927  57.2400618  59.3394995  13.2799351  56.6313457
  58.4710455  12.0411825  56.6789341  26.2807035   3.6104044   5.4934502
  25.9927869   4.4031692   5.0408357  27.1833730   3.4825259   5.2017874
  34.7608590  22.2687244  17.4826753  34.5898533  23.0270028  18.0412495
  34.0370798  22.2645736  16.8562889  28.5437727  58.9179659  16.5972042
  27.6512074  58.6879969  16.8554175  28.6343074  58.5682249  15.7107973
  47.4071741  26.8933129  19.4695485  47.8700447  26.0602331  19.3803346
  46.6903400  26.8378949  18.8376367  25.5651832  82.2447205   6.6414541
  26.0110807  82.6121998   7.4045843  25.0033092  81.5577888   7.0001245
  62.1382122  13.5244213   0.6675635  62.2342510  12.5827585   0.8099566
  61.2592790  13.6228882   0.3014861  54.5458937  57.9702616  17.1483493
  53.7119770  58.2052851  17.5552654  54.8635006  57.2289848  17.6639724
  39.0045691   3.8745594  39.0009665  39.4365382   4.2352569  38.2266712
  38.4018397   4.5631808  39.2815900  60.4665422   0.2486931   8.0762893
  61.2805653   0.2083717   8.5782558  59.8085499  -0.1353520   8.6557615
  17.5593150  77.9742336  11.1996794  17.5178051  77.6007652  10.3193223
  17.2868443  78.8848448  11.0866392  63.9191675  86.0334301   2.0445445
  64.7486401  85.5572319   2.0823434  63.3127785  85.4993629   2.5576693
  39.5162106  22.7399755  28.0629539  39.0080118  23.4628272  28.4309888
  39.5423985  22.0857310  28.7611747  43.7289190  13.5797274  21.2480211
  43.3966827  13.7289286  20.3628159  42.9999733  13.1667900  21.7110014
  21.9873357   1.8928866  45.8327866  22.9055095   2.1285014  45.6998444
  21.9032001   1.0249633  45.4379940  51.0488462  66.2161875  63.4654474
  51.2651634  65.9595346  64.3618679  51.7735910  66.7806339  63.1964159
  56.9216394  30.1635337  36.9697952  56.8344164  30.4941320  37.8638458
  57.3435068  30.8768296  36.4907646   3.7247461  82.1044445  74.5387650
   4.3282500  82.4491405  73.8805866   3.9658812  82.5586700  75.3460836
  56.6968632  34.1397357  11.0033476  57.3617315  34.7578025  11.3069582
  56.3995838  33.6978865  11.7987239  67.1548080  11.0995173  22.3127866
  66.3112926  10.7438159  22.0331645  67.0354557  12.0488441  22.2850990
   2.1965976  55.8519268  26.9607115   2.5589868  56.3994217  27.6572394
   2.8918201  55.8082104  26.3042164  73.6356878  17.0088899  22.0761752
  73.8908577  16.9596446  22.9974222  73.4441614  16.1034012  21.8319607
  35.9088302  54.8978949  66.7521667  35.4533124  54.6884441  65.9367704
  35.5850816  54.2520428  67.3800945  48.5976315  49.6663332  74.5790625
  49.4759512  49.2880821  74.5377588  48.1414557  49.1413641  75.2367449
  49.4577169   2.4579522  42.8920841  49.2555237   3.3923137  42.8439379
  49.0266943   2.0798184  42.1256208   3.7130588  15.1013815  28.9292169
   3.1375024  15.4386830  28.2427812   3.1274861  14.6325874  29.5238352
  83.7082767  42.3386145  17.0528638  84.1517258  42.2663879  16.2076581
  84.3922234  42.1598673  17.6982272  86.1071205  78.9925337  61.1630344
  85.3631687  78.8265800  61.7420244  86.4095402  78.1215000  60.9059858
  57.7066088  32.6389170  35.8725595  57.7015686  32.1664286  35.0401163
  57.6362133  33.5608888  35.6250858  44.0095758   6.4184839  27.9744577
  44.8371887   6.3306129  28.4472823  44.0446854   7.2948104  27.5909853
  24.3509579  55.3065443  33.6853886  24.1666675  55.9949303  34.3244457
  23.5112119  54.8643541  33.5607982  57.0026636  62.5661182  24.0144038
  57.7377272  61.9579601  24.0922213  56.4115191  62.1484470  23.3880377
  58.5271358  20.5556703  19.0995610  58.0089426  21.3577223  19.0330625
  58.0173159  19.9883986  19.6779382  61.7090607  21.2271023  61.7328835
  60.9022951  21.0002589  62.1953773  61.4574623  21.9429994  61.1494255
  35.3641582  12.2476089  32.7355695  34.6498942  12.8596151  32.5580621
  35.8177185  12.6214683  33.4910464  82.2946262  45.9688759  14.7373855
  82.3677540  46.2056065  15.6619620  81.6103458  45.2999401  14.7148168
  65.0022078  15.6413126  18.0841637  65.1839304  15.8204079  19.0067339
  64.0497303  15.5574918  18.0395448  90.7995510  62.8648329  37.3904538
  91.2674999  63.4826899  37.9521489  90.8043861  62.0433998  37.8818345
  40.8827639  31.0147548  13.6693549  41.3490057  30.3915882  13.1121147
  41.5460920  31.3300061  14.2832315  57.8397512  65.3125238  74.0347338
  58.0967331  66.0108089  74.6368885  58.4000969  64.5735693  74.2717838
  64.6749783   8.4463602  56.9509172  63.8839626   8.7656611  57.3851633
  65.3929186   8.7557846  57.5032330  53.4246635  25.4689646   9.1075414
  53.8508415  26.2873864   8.8529974  52.4916220  25.6315851   8.9689112
  51.9079638  38.5373855  23.7827706  51.0314655  38.1554413  23.8286090
  51.8812799  39.1065574  23.0136395  62.8089857  54.7666311  70.8905983
  62.0872736  55.2820778  70.5304861  62.6233196  53.8690805  70.6146097
  83.8113880  43.2600546  27.2076154  84.6169662  42.7431393  27.1984625
  83.3456326  42.9638767  27.9896522  60.7242393  78.6689568  67.1855354
  60.4683208  78.6493111  66.2633896  60.9015083  79.5922613  67.3652887
  84.4589233  27.2267723  60.5926943  84.8848629  27.9522657  61.0492802
  83.5751343  27.1989489  60.9592485  48.7013531  30.2069592  23.0399108
  48.9765835  29.3265867  23.2956958  47.7526617  30.1394105  22.9319263
  56.0432673  17.0444894  51.1751127  56.0059261  16.7424822  50.2675724
  55.9283018  16.2502098  51.6967773  36.8558621  16.8771636   3.8713032
  36.5568924  15.9964609   4.0976036  37.6773810  16.7375696   3.4002906
  75.1795578  50.3044128  66.6451311  74.8422432  49.5784283  67.1699142
  76.0079384  50.5380726  67.0639658  62.3760033  22.5562906  35.7333755
  63.2287312  22.9911232  35.7297897  62.0364904  22.7021360  36.6163778
  58.6869335  21.9067550  26.6329646  57.8713322  21.4743328  26.3799119
  59.1705990  21.2396359  27.1200490  55.2489996  37.4461865  44.9627447
  54.7677946  36.6775656  44.6563244  55.3814363  37.2888613  45.8975935
  67.6862764  13.2936287  13.2710063  68.0637646  12.5475037  12.8051388
  67.2319412  12.9044712  14.0182459  69.9380064  25.7574439  35.7511592
  69.6041107  25.8464646  34.8585129  70.5407047  26.4936495  35.8559680
  39.3292046  15.9248614   2.1308708  39.6182823  15.0127482   2.1576057
  39.7354937  16.2818301   1.3411023  57.3962069  35.4368925  20.6333518
  57.1956253  35.8649397  19.8010206  57.2633314  34.5046854  20.4614067
  64.9580145  22.0080948  65.9217644  65.6347656  22.0058894  65.2448368
  64.9460697  22.9087830  66.2455702   0.5452375  84.4235039  55.8931017
   1.4877236  84.2643452  55.9442711   0.3784303  84.5771980  54.9631643
  54.8346186   5.7281208  37.5635934  55.2754450   5.5595607  38.3963561
  55.0245905   6.6468585  37.3736906  40.3538561  21.7462826   8.1958526
  39.9964356  21.4187121   9.0211892  40.6212378  20.9590936   7.7214354
  72.4419212  19.0804136  29.9653172  71.5600157  19.3031263  30.2634287
  72.3674679  19.0319204  29.0122509  58.7463284  41.7253780  22.4730229
  59.3555832  42.2672367  21.9715929  58.5350418  42.2527409  23.2433987
  45.7166672  80.0212669  46.3017559  45.4133320  80.2629375  45.4266500
  46.6444778  80.2565765  46.3071156  44.4367552  48.8287544  13.2226813
  43.4997988  48.7546253  13.0414391  44.8530531  48.7604475  12.3634577
  69.3868828  40.5300474   6.4030546  69.6593809  40.6824064   7.3079097
  68.6956787  39.8711514   6.4687890  67.9202318  25.0895262  23.2320070
  67.2470474  25.0796700  23.9124179  67.9929876  26.0101914  22.9803824
  86.6500187  35.5127907  11.8458331  85.8303165  35.8901310  12.1650910
  86.5449429  34.5698380  11.9724321  30.0970674  49.1165972  16.4684534
  30.4055429  48.2674265  16.7846572  29.8906374  48.9679766  15.5456698
  27.5119591  19.7008955  18.8410187  26.6357613  19.9756479  18.5707974
  27.3952508  18.8048518  19.1567981   6.8468165  51.0211802  42.0063972
   7.1898377  50.1282454  41.9712067   6.7770952  51.2142992  42.9413176
  28.7133980  31.4137816   8.1047034  27.8894162  31.6465640   7.6768041
  29.2201996  32.2258043   8.1063217  33.0499005  24.4770861  11.2848604
  32.7987933  24.5964718  12.2007895  33.4224701  23.5960007  11.2515402
  56.0734797  13.6962795  13.7397110  56.4296293  13.9712667  14.5845604
  55.2672577  13.2297206  13.9600742  75.9258938  23.6280322  23.7642670
  75.0248766  23.6181593  24.0872216  75.8473825  23.8753390  22.8429055
  16.8265390   6.4563769  30.1854992  17.0117259   6.6052002  31.1127472
  17.6564276   6.6360956  29.7436643  43.8768387  43.0597782  34.5168567
  44.4662857  42.9799843  33.7669134  43.7316179  44.0014744  34.6082234
  69.4748640  28.7334967  60.6970501  68.7800741  28.0751276  60.7037401
  70.2076674  28.3038974  60.2558327  62.1124315  43.6168194   6.7501295
  62.3828793  42.8196859   7.2058332  62.7846479  43.7504959   6.0819310
  32.5105476   8.7170219  19.3108582  33.4171033   8.8420933  19.0302420
  32.3416042   7.7858877  19.1670549  41.3580275  19.3130589   7.5723267
  42.1250153  18.9674664   8.0289769  40.7147408  18.6055481   7.6152909
  91.3275051  83.9685249   2.1177140  91.7301750  84.4011974   1.3647981
  91.9411564  83.2715511   2.3498751  69.6874428  16.4931059  28.8190031
  70.1950026  15.9191322  29.3927383  68.9878654  15.9347844  28.4797430
  31.3124704  45.5199480  24.9179149  31.8737555  45.2829361  25.6561685
  30.7577586  44.7517157  24.7824717  56.6422367  27.1877074  13.5121155
  56.6674280  26.9427133  12.5871432  57.5545883  27.1394062  13.7976146
  74.1401958  43.7908602  62.1912384  74.0568733  44.6550369  62.5943375
  74.4854307  43.9670944  61.3160324  22.0339227  45.0441504  21.3931179
  22.4521613  45.5515337  22.0887256  22.6854348  44.3855858  21.1521721
  91.4034557  15.2367020  64.8828125  91.2630939  14.7803247  65.7124233
  92.3222828  15.0717866  64.6711969  66.2354898  15.8528721  28.5862517
  65.8863544  15.3947425  27.8217554  66.8867922  15.2522624  28.9486146
  77.1638632  18.0887008  23.8622403  77.1310759  18.9136314  23.3778405
  77.8516054  18.2212365  24.5146823  67.6007748  74.9556398  29.4427824
  67.7670956  75.5770540  28.7339735  66.9774294  74.3308592  29.0722132
   8.1520271  73.6591673  53.1508780   8.2149309  74.0338707  52.2723198
   7.3389447  73.1542206  53.1382561  77.6983023  18.8266397  46.2141562
  78.0388117  19.1526139  47.0472383  78.1245995  17.9776657  46.0969114
  23.7068486  76.0504198  42.5130892  22.9598689  76.0727215  41.9149637
  23.6290598  75.2086782  42.9621506  54.8174858  60.6314898  38.4639740
  55.6409645  61.0330868  38.1867862  54.8203135  59.7687101  38.0494404
  21.9877076  25.8798337  13.0439997  21.1072350  25.5708122  13.2573307
  22.2081780  25.4303479  12.2281647  88.2349014  52.5195503  47.4066162
  87.5353813  53.0377483  47.0086622  88.7687874  53.1594419  47.8775024
  20.3147721  43.4987593  12.2230637  21.2661362  43.4460545  12.1316326
  20.1645732  43.4975052  13.1684053  30.8404469  85.1096058  23.9966440
  30.6191397  86.0408688  23.9996123  31.7838120  85.0870991  24.1572332
  68.1229305  39.7172880  16.8927193  67.2658205  40.1090670  17.0603728
  68.6846161  40.0643730  17.5857353  69.4597435   5.3508794  37.3642302
  68.5952854   5.4730505  36.9717789  70.0697231   5.4370296  36.6316080
  31.7076612  38.3503795  10.7581460  30.9629178  37.7846694  10.9620202
  31.9458461  38.1185722   9.8605013  25.8937526  41.5363646  40.0329924
  25.1743221  41.8871403  39.5080090  26.2065864  40.7805109  39.5359564
   6.1724907  67.2920752  74.2923641   6.5027499  66.9168997  75.1086950
   6.9071621  67.7996206  73.9475584  27.6303935  23.2977557  10.1608002
  28.3550787  23.3699346   9.5396298  26.9825268  23.9288402   9.8473781
  65.6061554  56.9463587  74.0312910  65.0755501  57.3516130  74.7171879
  65.0802279  56.2066412  73.7272406  77.5892305  50.4998875  72.2171021
  78.1960344  51.0892868  71.7691851  76.7472315  50.6515503  71.7878342
  85.3993511  13.4000838  11.7767119  86.2193108  13.8916206  11.7289424
  84.7628021  14.0286267  12.1172678  76.8185377  37.2325969  52.3315573
  76.5545702  36.7164612  51.5698719  77.7730036  37.2750378  52.2730160
  37.8830242  25.0950265  27.9938149  38.7740779  25.3522992  28.2305980
  37.6572084  25.6635761  27.2576141  38.4538388   2.1865737  63.7448931
  39.0361929   2.0287333  64.4879818  37.6803017   2.5983173  64.1300392
  53.0711603  18.3300781  13.8686121  53.4682465  17.4692357  14.0009201
  52.1403456  18.1942630  14.0457404  37.3727846  44.7104311  14.7459745
  38.1708717  44.2018890  14.6022010  37.6344872  45.3992176  15.3569710
  59.3002796  43.2743788  14.2310405  58.6014652  43.8651705  14.5118511
  59.1123295  42.4503994  14.6804440  70.6022930  41.1266184  28.1944728
  70.6159449  40.1931667  27.9830194  69.7099686  41.2899828  28.4999156
  41.7489481  45.1009941  25.8316398  41.2549591  44.9169540  26.6305995
  41.5673447  44.3546486  25.2604866  74.7433233  29.2628503  20.4562998
  74.6442747  28.8497639  21.3140750  74.6420670  28.5447741  19.8315227
  16.6563201  31.0783911  73.0899382  17.5973296  31.2533927  73.0795860
  16.2682414  31.8284535  72.6393461  63.2270145  27.7933502  20.4093385
  62.8959656  27.4547076  21.2411809  62.5456095  28.3937621  20.1069808
  64.2236471  45.8618546  37.9924536  65.1162004  46.0236025  37.6868057
  64.2985392  45.8336496  38.9463019  78.4524441  29.5283532  12.8279936
  78.3824730  29.4440436  11.8770850  79.2889071  29.9720931  12.9681969
  63.6049652  28.7075877  30.9813046  62.9516220  28.6357474  31.6771603
  63.1551361  29.1755271  30.2778006  31.9336462  39.3189716  25.3942704
  31.9468546  39.8268795  24.5830441  31.1778688  38.7389588  25.3014278
  67.8147697  85.3633595  71.6092014  67.7908087  86.2413597  71.2286949
  68.6780214  85.0236130  71.3734150  53.2870102  48.4395456  23.1288576
  52.7024603  49.1651583  22.9097271  54.0706062  48.5956669  22.6017547
  77.7066231  43.9153290   1.9434853  76.9323540  44.4194794   2.1936259
  77.3557806  43.1318808   1.5199940  29.7102380  36.1967659  59.6580172
  29.1773152  36.2217093  58.8632822  30.4564977  36.7638969  59.4638777
  37.4891019  42.2518063   5.1871312  37.0203876  41.8267202   5.9053499
  37.2093844  41.7771006   4.4044158  52.4027443  22.2812629  27.8866887
  52.3502970  22.3245192  28.8414717  53.3080626  22.0270324  27.7078176
  53.2506132  32.8611469  48.3721304  54.0665531  32.3642230  48.4316349
  53.4478664  33.6970043  48.7948179  82.8893566  50.4524803   4.7841272
  82.7215004  49.6689701   4.2605218  82.6253986  50.2087355   5.6713384
  57.5520945  16.5201044  64.5300817  56.9581366  17.2686958  64.4747972
  58.3477736  16.8123245  64.0854073  31.5821147  15.5586803  47.5220394
  31.3637877  14.6488404  47.7239275  31.9469476  15.9039187  48.3368635
  60.0725651  39.8381615   4.6602383  59.4944382  39.8253727   3.8974592
  60.9529352  39.9142051   4.2922685  77.7047634  11.8337238  52.6346636
  77.3594952  12.7221525  52.5468206  77.1563673  11.3052213  52.0548534
  19.9482834  30.4570961  12.4656606  20.6177473  29.7912574  12.3084736
  19.7800303  30.8359265  11.6028702  70.2808094  62.4045181  69.3877506
  69.9956656  62.5452232  68.4849072  70.5448627  63.2722807  69.6935225
  54.4905233  43.9460373  28.7648201  55.3894567  44.1315556  29.0363550
  54.5345449  43.0753136  28.3696842  70.6722450  44.1081190   0.9033682
  69.9330139  44.6888399   0.7229955  70.9581900  44.3508577   1.7840171
  52.6231432  29.1899419  11.8317938  52.4545336  29.5963025  12.6818967
  52.0028782  29.6119952  11.2373388  18.5999203  71.7845201  67.8208256
  19.5278513  71.8197727  67.5885916  18.3429325  72.7011919  67.9203320
  15.7632017  11.4100647  55.3641319  15.7049751  11.3146114  54.4134855
  16.3624012  10.7157874  55.6383038  62.9211473  13.6745691  21.1038923
  62.3475170  14.1996932  20.5458379  62.9365778  14.1422403  21.9389224
  73.3180714  82.9137707  73.3170462  73.5628414  82.2395611  72.6832008
  73.9638329  83.6086273  73.1890011  46.1218357  40.9577131  20.4632187
  46.4173222  41.8295479  20.7255650  46.9281483  40.4801702  20.2681589
  19.0464795   4.6479094  67.4964905  18.5635829   5.1876283  68.1223869
  18.3678150   4.2366594  66.9612169  67.0671558   5.3735280  21.5371084
  66.2319851   5.8314055  21.6323376  67.5718546   5.6330901  22.3079109
  11.4252198   0.3556247  51.7907143  12.1964025   0.2725193  51.2298203
  10.9495354   1.1058918  51.4342642  48.9236975  42.4195004  15.7405984
  49.7981739  42.7032185  15.4740822  48.5035801  42.1417093  14.9266183
  32.9684258  62.3752213   0.4493838  33.5623765  63.0690336   0.1628895
  32.8588462  62.5262594   1.3882187  65.9782362  14.8057997  36.4365983
  65.8946085  13.8905323  36.1691594  66.5657711  15.1923335  35.7872701
  47.9817915   1.8556900  19.9423039  47.5809956   0.9883873  20.0004578
  48.0500078   2.1494159  20.8507657  57.2715569  25.8546305  54.7763586
  57.3919296  25.2729154  55.5269241  57.9809189  25.6223559  54.1771221
  57.8922367  39.0331006  43.5087776  57.1042585  38.9335418  44.0430212
  58.3591795  39.7685385  43.9054203  56.8623781  30.0782681  17.1870303
  57.3161221  29.8880243  16.3659596  56.3334990  30.8525300  16.9945812
  50.9166384  54.5408154  39.5191050  51.5511608  54.4085121  40.2234554
  50.9566498  53.7337637  39.0059757  46.5572691  67.8140450  73.7799740
  45.7605362  67.9817104  74.2832947  47.2326756  67.6678658  74.4423103
  46.2058640  31.9389582  18.9105380  45.9856462  31.9396377  17.9790139
  46.9716644  31.3683438  18.9751971  24.2117453  13.4755731   9.8927653
  24.5506239  14.1080904  10.5262601  23.5931253  13.9767480   9.3613863
  42.0405388   7.4294317  22.3178935  42.8596878   7.8450114  22.5871944
  41.3621283   7.9031086  22.7991676  85.6602478  79.9680471  10.8239579
  85.9955502  80.4214668  11.5974009  86.4222240  79.5151567  10.4627025
  62.3108387  10.3195941  25.3042603  62.1058321  10.0258601  24.4166112
  61.6156864  10.9422672  25.5170393  42.9355574  39.7036576  10.7007205
  43.8479376  39.9736404  10.5963254  42.8190804  39.6138334  11.6465521
  24.5239162  22.2638249  11.0614109  24.2503762  23.1811023  11.0648847
  25.0100017  22.1557498  11.8788898  55.9594536  36.0020232  39.1498137
  56.9002724  35.9879470  38.9740419  55.7912540  35.1849818  39.6192646
   2.7566281  26.8868446  15.8142853   3.0520418  26.9221997  14.9044991
   3.5059005  27.1988606  16.3216984   0.6469801  53.0875397  55.6349897
   0.4015329  52.4374199  56.2932682   1.6039636  53.0693960  55.6256247
  52.8508759  38.8468742  19.3813765  53.6297607  38.8922071  19.9359214
  52.1249628  38.7407255  19.9962080  27.6975870  43.5966873   9.6359307
  27.7356958  42.6606703   9.4393331  28.1158113  44.0165281   8.8842320
  42.5776148  22.4414134  59.0255308  42.8870726  23.0123186  58.3223009
  43.1324959  22.6609635  59.7739553  50.4073668  18.4411621   8.5702586
  51.3376284  18.2282305   8.4960544  50.2183676  18.9637363   7.7908832
  30.0797629  20.2618384  14.2920601  30.5623555  19.8436630  13.5789919
  30.5517340  20.0043440  15.0840020  51.8585014  84.3461037  17.4081230
  51.7297506  85.2659225  17.6396072  52.3827362  83.9897346  18.1253481
  55.8966446  48.1219578   4.9802279  55.0090313  48.3500433   5.2565432
  56.4596224  48.7349653   5.4529899  74.1890287  16.8234432  10.1456749
  75.0448418  16.5568328  10.4814351  73.5674667  16.5234232  10.8089137
  71.2616396  79.8947191  45.2471018  70.7046127  80.6257248  44.9795437
  71.4426517  79.4217348  44.4348478  66.0426188  33.9718366  24.6117330
  66.0713530  33.6349511  23.7162352  66.9617558  34.0685344  24.8608613
  53.3114958  53.6090040  40.8016539  53.6080503  53.2877207  39.9501491
  53.6589861  52.9765654  41.4305449  20.3967714  74.9551821   3.6333361
  20.7798767  74.0886831   3.7698600  19.4764161  74.7816992   3.4356469
  28.4016252  29.1797757   9.5232713  28.9357305  28.5058737   9.1027743
  28.4644556  29.9347973   8.9382708  62.7916622  12.1038568   3.7155256
  62.6920462  12.3050559   2.7850270  62.0995760  11.4684629   3.8986149
  42.7345896  27.3816800  12.7188385  42.1455336  27.5796628  13.4468830
  42.5849771  28.0883098  12.0907295  68.9824677  37.3764944  15.6382978
  68.0747223  37.0765352  15.6857634  68.9881802  38.2005644  16.1252344
  45.8117342  29.3879819  28.2262206  45.8518076  30.0585961  28.9080572
  44.9981594  28.9154911  28.4025097  64.4615316  24.7053552   2.7913958
  63.5584736  24.3925405   2.8449115  64.5893478  25.2069950   3.5965368
  41.7129278  53.7573147   9.1643411  41.4579582  54.6743965   9.0634143
  41.3737869  53.5076332  10.0239182  49.6655178  44.1544819  30.6412196
  49.1409540  44.8249054  31.0789275  49.9122858  43.5491085  31.3404107
  46.3452053   0.3011039  50.9250116  45.4333115   0.0351318  50.8069181
  46.3594246   1.2251045  50.6755066  58.6202908  30.0363946  12.0221531
  57.9305601  30.3530478  12.6054430  58.9128876  30.8168030  11.5514302
   3.9540893  23.3608127  12.9424930   4.6184006  23.1972432  12.2730398
   4.2359799  24.1712809  13.3666551  57.2785568  40.7822847   3.6710379
  57.3521709  39.8283219   3.6433583  56.7466307  41.0037374   2.9066780
  25.5505943  80.7970619   2.5685576  25.7256007  80.1197624   3.2219160
  25.7235909  81.6204929   3.0249193  29.5377588  14.0210021   9.6557957
  29.6205497  14.1453588   8.7103260  29.0159774  14.7673106   9.9507505
  79.2616844  31.6581297  41.0522652  79.0384102  32.5262547  41.3880301
  79.8508787  31.2907457  41.7111301  23.7218286  86.2582117  11.3992167
  23.5380699  85.3215645  11.3274121  23.1723406  86.6622681  10.7276261
  41.3523245  40.3245926   6.3222879  41.0857630  41.1626863   6.7001492
  40.7057095  40.1541758   5.6373954  41.6574526  81.3144970  67.5869608
  40.8394241  81.5815830  67.1677637  41.6720963  81.7976665  68.4131384
  51.5975809   7.6948392  22.1290684  51.9095421   8.0806786  21.3105083
  50.8512878   8.2386839  22.3810744  19.0669060  35.2157426  21.5580702
  18.7963080  34.3086648  21.4158797  18.3675873  35.5935001  22.0914412
  17.9459441  76.1434412  56.8831253  18.0756116  75.2750254  56.5019798
  17.4338913  75.9830856  57.6757908  62.7571678   9.3167210  19.5353699
  62.6209593   9.0120852  20.4325175  62.1168184   8.8293046  19.0170968
   5.0835472  56.9740963  65.0655031   5.6398368  57.1059322  65.8332205
   5.6521970  57.1707630  64.3210602  40.2003145  15.9416103   7.0519394
  40.4067183  16.2297809   6.1627901  39.5868373  15.2166319   6.9324088
  17.3265314  85.5288315  27.7521706  17.2920716  84.7384834  27.2132826
  17.0010495  86.2234592  27.1796536  76.4667511  72.8136778  66.5923023
  77.0371389  72.0482731  66.6633224  77.0199633  73.5497332  66.8538523
  51.7114782  47.8385878  30.8127570  50.8139467  47.8855515  30.4834175
  51.9952679  46.9475508  30.6084204  51.8393850  50.6102467  21.8532872
  50.9002161  50.6599331  21.6751885  52.2166538  51.3338375  21.3529658
  11.2527025   5.8555722  17.2613394  12.0071101   6.1948961  17.7429628
  10.5491102   6.4765668  17.4499023  45.2297068  71.2474108  49.9815893
  44.4283676  70.7837439  49.7384787  45.4932117  71.7050409  49.1832352
  84.1561794  81.6628742  71.9718313  83.8216782  81.8852901  71.1029959
  83.7758160  80.8054638  72.1626472  50.3752422  77.9949713   8.6591089
  50.1363754  77.1127367   8.9434308  49.9541903  78.0936289   7.8051674
  63.7221003  22.4677324  31.3725376  64.3243408  22.7246070  30.6742859
  63.4323311  21.5889287  31.1276484  67.3243189  33.2487106  27.4771976
  66.8965721  32.4889040  27.0822811  67.7339220  33.7026453  26.7407203
  85.5128765  59.5317268   1.0672750  84.8241997  59.2371798   1.6632642
  85.0564480  59.7162485   0.2463878  53.7741327  52.1738911  73.1942844
  54.0301991  51.4299774  73.7394905  52.8194523  52.1207428  73.1496477
  73.6496687  26.7705989  14.5373523  74.0952969  27.3860383  15.1194882
  73.9190817  25.9070349  14.8502529  26.5876985  23.5429907  20.4792285
  26.3595676  22.6151180  20.5361581  26.0446715  23.9644527  21.1453533
  48.1536961  18.2200634  53.0021763  47.3623943  18.3666062  52.4839163
  48.5431337  19.0894377  53.0957556   6.2660152  48.6173773   8.8458085
   7.2217035  48.6211872   8.7921715   6.0587841  47.8457117   9.3728960
   3.8329223  33.0270290  38.8043714   4.6693546  33.4544158  38.9886355
   4.0567407  32.1040583  38.6849523  40.5676699  34.0503216  10.6168413
  40.4417562  34.4477224   9.7551864  39.7232985  34.1561222  11.0551012
  27.3015881   2.3336923  67.4359560  28.0604839   1.9563870  67.8808689
  27.6346803   3.1350461  67.0320797  57.8588247  56.4332867   2.1134366
  57.9571438  56.6304684   1.1819408  58.6948204  56.6905260   2.5022495
  67.1960306  22.9377103  36.5420628  66.3111973  23.1509757  36.8384004
  67.6641560  22.6949382  37.3409081  46.9606829  19.7208762  12.8291118
  47.4798250  20.5202150  12.9173040  47.4336338  19.1983593  12.1814060
   6.4795285  59.6092367  59.2351151   6.4198095  58.8232899  59.7782087
   6.0107458  60.2798319  59.7318840   4.6053538  59.2188644  62.5736237
   3.8730413  58.6650753  62.3029470   4.2216119  60.0896263  62.6772881
  57.5670958  14.8340356  49.7511482  57.9810905  14.3461716  49.0392303
  56.9165468  14.2298591  50.1089048  53.4444809  41.7882824  26.7934275
  52.8139210  41.1120462  27.0410657  53.9951611  41.3711834  26.1308432
  80.9450054  17.6838684  64.8110771  80.4864693  16.9146693  64.4729805
  81.3564873  18.0753028  64.0405560  34.7068024  12.8902256  68.6506653
  34.1609383  13.5601830  68.2390594  34.3356109  12.0607853  68.3498669
  55.6148577  48.6743641  25.2339029  54.8629904  48.3172417  24.7612596
  55.2675772  49.4384956  25.6940436  25.8959079  82.2966385  26.4117026
  26.1059213  81.6414070  27.0771337  26.6913962  82.3653507  25.8837724
  46.8301249  43.4910536  10.9291959  47.1173239  43.2636309  10.0448728
  45.9471464  43.1274176  10.9952021  53.6818600  27.5881338   6.9884700
  54.5241117  28.0400515   6.9373697  53.0311680  28.2802415   6.8709093
  20.7721972  54.2954779   2.4339116  20.7295895  54.6385860   3.3264887
  20.3929448  54.9879742   1.8927586   1.4191802  69.7451973  52.3325157
   1.6586713  69.8054934  53.2573080   0.9984972  70.5829239  52.1389341
  13.1984806  49.5671844  27.7382779  13.0704236  50.0981951  28.5243177
  13.3604395  48.6839104  28.0696917  80.5289745  53.7035561  17.5672948
  79.9457932  53.4601307  16.8483520  80.3233147  54.6219206  17.7420533
  66.1560822  50.8463383  34.7738099  66.3182402  51.2356758  35.6330824
  65.7290888  50.0114584  34.9658680  65.7869196  61.7926693  34.3951511
  66.4799452  61.7617559  33.7356138  66.2241316  62.1043825  35.1875591
  80.6499958  43.7087059  48.0622959  81.0482216  42.8389740  48.0971146
  81.2847233  44.2802286  48.4944010  53.6394978  61.4575529  30.6741810
  54.5322609  61.3230515  30.3561878  53.4453011  60.6703281  31.1828995
  22.8357816  16.5228105  64.1295624  22.1188998  16.5357792  63.4954119
  23.5563993  16.9698381  63.6855936  75.6676483  64.3022156  35.4218817
  75.8502197  63.8355589  34.6063280  74.8152733  64.7129869  35.2771330
  37.5870275  22.2072768   7.4539596  37.2185826  21.9335318   8.2939267
  38.5342717  22.1421790   7.5753057  51.8435144  70.6985712  16.1063623
  52.2784710  71.3363409  16.6723049  52.0614004  69.8494339  16.4907134
  36.0996723   8.0701637   1.8365899  36.1073780   7.9334915   0.8892288
  35.4867649   7.4139893   2.1682680  77.1075010  46.6493797  31.2434459
  77.6610279  47.0870066  31.8902230  77.5824451  45.8475256  31.0250711
  77.9405737  68.2400179  70.2804375  78.4151077  67.9184532  71.0470200
  77.2566605  68.8041353  70.6413651  40.8085442  65.2487183  14.5333731
  41.5365934  65.8074570  14.8053718  40.9803724  65.0640011  13.6100161
  45.6045485   1.9896981  42.9827404  44.7960329   2.4770178  42.8244352
  45.4679203   1.5681839  43.8312006  48.3126736  64.5849848   2.7858070
  47.8993416  63.7563467   3.0281782  47.5956488  65.1195431   2.4446954
  78.6899567  62.1565962  19.1680789  78.6046219  61.8320704  20.0645351
  78.8695002  63.0914974  19.2678702  47.6738405  28.8751316  15.0716734
  47.8968811  28.7092900  15.9876335  48.4664679  28.6452889  14.5867562
   4.7334707  84.4462967  69.3885088   5.4423565  83.8818932  69.6970034
   5.1232910  85.3195477  69.3472242  23.9695787  22.6296806  32.2278905
  24.1580057  22.5818110  33.1651402  24.6592855  23.1907368  31.8732762
  48.1533194  21.5986967  35.2786517  47.8417969  20.8469820  35.7827497
  48.1930542  21.2820435  34.3762207  56.2987757  31.8334746  29.0761375
  56.7119694  31.5867138  28.2487273  56.8812895  31.4813519  29.7491312
  64.4572926  18.2472992  24.2359114  63.8950968  17.6896715  24.7737026
  63.9990759  18.3123374  23.3980346  37.5465274  68.1943560  13.5317075
  37.6016879  68.2569408  14.4852650  37.0496893  68.9692497  13.2691646
  66.0024118  61.2678337  74.1357708  65.2925587  61.2650394  74.7778988
  66.5784168  60.5551434  74.4123888  52.3538065  11.2187946  30.1527238
  51.7520332  10.8793211  29.4902611  52.7492905  11.9891310  29.7447896
  23.1810451  13.7882257  64.8406649  22.9729700  14.7063434  65.0138664
  22.8972912  13.6445212  63.9378548  82.6766586  70.4484177  26.6375399
  83.5861874  70.6825638  26.4526796  82.6364040  69.5044613  26.4840579
  88.6214066  58.6514282  12.9282069  89.3630886  58.3872175  13.4725666
  88.0731201  57.8686810  12.8741670  60.9966373  35.0373435  35.5790281
  61.0277176  35.0765848  34.6231389  61.3120508  35.8948684  35.8643270
  72.8908920  57.0829582  42.1523523  73.1688213  57.9333591  42.4926567
  72.7243471  57.2397470  41.2228823   3.6451200  33.8278961  13.3205163
   4.2411202  33.3586264  12.7367342   3.3442292  33.1633401  13.9402437
  64.3331528  23.7370038  51.6880703  63.4593534  23.5019612  51.3758755
  64.8851442  23.6976862  50.9070539  71.5594149  59.8472500  27.1347165
  70.8941793  59.2037630  27.3788810  72.3550081  59.3313742  27.0038056
  64.6197796  52.0977068  13.6276054  65.2646542  51.4167309  13.4361804
  65.0426292  52.6499462  14.2852223  71.3038349  82.6010513  59.2041540
  72.1834803  82.7840614  58.8740587  71.4231682  81.8715096  59.8122263
  59.1345119  32.7361059  41.6453791  58.7152767  33.2140541  42.3609495
  59.5886660  32.0113516  42.0751572  20.9850550  12.8828764  44.2326641
  20.1738882  13.2616651  44.5714283  20.6960154  12.2013450  43.6258650
  51.3504696  51.9717884  38.1431508  50.8480120  51.4673567  38.7829328
  52.2628403  51.7438412  38.3216190  53.9671040  83.0761909  56.9771719
  53.5310650  82.3932934  56.4675093  53.2639074  83.4832859  57.4831533
  50.9036398  36.7936587  26.7908645  50.0218773  36.6907954  26.4328885
  51.3502359  35.9774995  26.5657640  82.0695496  77.1131086   0.6761356
  81.6310883  77.3451757  -0.1424763  82.0668793  76.1559677   0.6862878
  29.2987323  75.5322218  34.3903518  29.3011475  74.8726654  33.6966562
  28.5206342  75.3303957  34.9100256  39.0737462  16.8130207  32.1543384
  39.9471283  16.4774573  32.3564076  38.5729146  16.0385239  31.8983030
  25.9630799  14.8708487   3.1356984  25.0442243  15.0714052   2.9576156
  26.4209580  15.1099527   2.3298395  71.0526085  53.0656910  34.5928335
  70.7840014  53.0318832  35.5109501  70.6076908  52.3224306  34.1855907
  57.7997923  14.5980084  68.8220119  58.1733131  13.7488627  68.5860777
  57.4474239  14.9411583  68.0008411  39.9196577  70.0787067   9.9557626
  40.7506609  70.4046965   9.6102196  39.5320153  70.8333826  10.3989649
  56.8375826  36.8898273  28.3540654  55.9172821  36.6276884  28.3777547
  57.1481609  36.7549372  29.2493725  33.5259366  84.3419075  23.8684940
  33.7281299  85.2587795  23.6822009  33.7051249  83.8853359  23.0465102
  44.3574047  16.1231399   7.5895035  45.1274538  15.6015241   7.8157294
  44.0469313  15.7470930   6.7658377  47.8569889  59.5468426  49.9764442
  47.4542618  58.7306356  49.6800518  47.8225040  60.1222467  49.2122746
  88.3134174  52.5986767  17.2578156  87.7709389  52.1141338  16.6355848
  88.1117439  52.2065830  18.1074178  47.7505302  74.4068289  12.8834784
  47.7218056  74.1312742  11.9672489  48.4189606  73.8485384  13.2806492
  66.0556459  28.3378267  20.7025242  65.1115084  28.2178426  20.6003404
  66.3921452  28.3635974  19.8067904  48.6423635  61.9067430  22.6007581
  48.9844513  61.3732052  21.8834400  48.0496264  62.5270271  22.1763253
  76.6923332  65.5477476   8.0639035  75.8736229  66.0386086   7.9931587
  77.2876596  65.9860039   7.4558336  18.5792661  64.5194721   1.4966561
  19.0083015  63.6675215   1.5762520  17.8811526  64.4981623   2.1511900
  34.3906021  19.2408001  33.4668016  34.7699833  20.1195669  33.4584785
  34.0818930  19.1047025  32.5710297  52.0565557  61.5189743  33.1168342
  52.0584488  60.5906773  32.8834033  52.3492241  61.9662189  32.3227620
  44.6520996  40.1163006  31.9354415  45.5359030  40.4838848  31.9352102
  44.6753836  39.4361901  31.2622857  44.0184450  65.1429510  12.8242433
  44.4565201  65.9711075  12.6280832  43.9950562  65.1049662  13.7804031
  49.6321964  63.7322474  43.7500811  49.9654341  64.2327833  43.0053377
  48.8245726  63.3322048  43.4276819  68.3315372  65.3654480  14.0930963
  68.8125896  66.1914921  14.1427588  67.5679779  65.5651331  13.5514963
  73.7671661  28.4441829  38.0839348  73.6138248  29.3858004  38.1618905
  72.8965473  28.0529571  38.1560612  81.6319370  19.5493019   4.2650965
  81.3062191  18.8316786   4.8083821  81.0669422  19.5402980   3.4924835
  62.0918179   3.4028277  51.6488409  61.5489817   4.1763255  51.8013668
  62.9723883   3.6730677  51.9092226  78.7781334  47.7529287  40.8220720
  78.7411118  48.3130932  41.5973616  78.9505911  48.3558941  40.0989389
  50.8814096  38.0603623  10.3142095  51.3046741  37.8198242  11.1383581
  50.6476545  37.2238421   9.9119335  53.4650898  27.4183226  39.5454764
  52.8820324  26.8036079  39.1000509  54.3343878  27.2183418  39.1982579
  10.9819221  45.4429674  53.3436251  10.2807987  45.7794809  53.9016771
  11.7882800  45.7129049  53.7831211  71.9581652  39.3823123   0.6728251
  71.0612535  39.1045260   0.4867601  72.5060797  38.7497854   0.2081421
   9.6617460  13.7400115  47.8653431  10.0989354  14.5361018  47.5631237
  10.0389504  13.5727644  48.7290430  20.0363636  21.2159228  49.8759031
  20.7665634  20.7961750  50.3307104  20.4371405  21.9428372  49.3992424
  79.0357733  52.9095078  33.0887938  79.4743204  52.0817852  32.8918719
  79.4516802  53.5453510  32.5065947  56.8421221  51.6907883  11.6900551
  56.7543125  52.4153233  11.0707247  57.5092602  51.9852304  12.3101056
  30.5980825  24.0084577  61.1397266  30.6485581  23.0604100  61.2617493
  30.7983184  24.1416955  60.2132368  17.0451057  17.0248377   4.8508194
  17.0016026  17.6790333   5.5482197  16.1302185  16.8367672   4.6414328
  88.6474514  67.9245853  70.9410954  87.9645538  68.5415745  70.6780243
  88.4244251  67.1123075  70.4864502  61.1019945  71.9307518  32.3972988
  61.0024166  72.7712536  32.8443694  61.6903782  71.4280605  32.9606223
  59.0822029  56.0130024  27.2501063  59.5084381  56.8700361  27.2433662
  58.2206440  56.1709452  26.8640995  49.0648365  60.7766056   1.9723921
  49.8475027  60.5639982   2.4807861  49.3101311  60.5906296   1.0660394
  38.0802011  13.5251653  60.4808378  37.6208639  14.1575623  59.9282837
  37.4033499  13.1794024  61.0626888  62.3778772  46.2973785  29.6052051
  61.7402124  46.1454248  30.3027177  63.0550718  45.6369448  29.7517395
  76.3364506  43.9909172   7.5196409  76.3376379  44.0409517   6.5637505
  75.4534531  43.6965275   7.7429760  87.0096970  61.0580826  12.6711214
  86.2440681  61.1798286  13.2325673  87.4113083  60.2482891  12.9860485
  61.9086695  46.3423824  45.2287102  62.7442265  45.8758688  45.2076483
  61.7430639  46.4952040  46.1590052  73.9516068  58.9006615  29.7664618
  73.8511562  58.4150743  28.9477134  73.0551147  59.0695667  30.0562906
   1.9040987  46.7035675  29.3453050   2.7383566  46.2440157  29.4404936
   1.4565101  46.2428999  28.6355996  45.4038000  27.1989894  17.5032079
  45.4992676  28.1514120  17.5002098  45.3442860  26.9613290  16.5778923
  82.3969078  31.3408947  22.9347277  82.9616070  31.5128160  23.6882472
  82.7544117  30.5432892  22.5445366  49.8788548  46.7534161  38.0765080
  50.3169346  46.3509941  38.8264251  50.5921459  47.0124245  37.4931002
  68.3246851  14.9249184  20.6370354  69.0878201  14.3549299  20.5423307
  68.6684179  15.7195055  21.0453415  71.7353725  44.9299431  51.4551973
  72.5058651  44.5564938  51.8831110  71.0861874  44.2267990  51.4746952
  55.2592516  31.1977053  48.7598467  55.1625347  30.6098485  49.5090485
  55.5262852  30.6262183  48.0398989  73.5286474  33.7477255  43.9652824
  73.1938124  34.3906593  44.5903873  74.4592047  33.9561868  43.8825703
   5.9980160  43.6561298  41.1895037   6.3925385  42.8348970  40.8959675
   6.1700833  44.2724180  40.4776001  48.0661345  38.8698411  35.1612353
  48.4393835  39.3087339  35.9256244  48.0005884  39.5574117  34.4985294
  59.6180582  46.7776489  18.7285531  60.5067825  46.7222357  18.3773601
  59.0662718  46.9288683  17.9611576  66.5174532  59.7660398  29.7225070
  66.0987854  60.5468369  29.3601489  67.3922348  59.7611618  29.3339610
  59.9374294  64.1506767  15.4849482  60.6389523  63.7112904  15.0042844
  60.3908539  64.6698761  16.1490762  82.2628880  58.1816339   8.9141178
  82.9879284  58.0669117   9.5284390  81.4764595  58.0692244   9.4480944
  50.7705259  47.5941324  12.8682816  51.4566755  47.6152992  12.2012126
  50.9571266  48.3479977  13.4278297  71.5129089  49.5596218   5.5503309
  71.0228300  49.8204947   4.7705877  72.3297119  50.0558281   5.4969954
  42.6860285  23.9074421  14.7779942  42.5381947  24.6536732  15.3589559
  41.9889259  23.2899046  14.9991941   1.1724928  20.6559539  17.8745270
   0.3155782  20.6845927  17.4489605   1.4208200  19.7318268  17.8510284
  55.1080608  40.8834028  37.9568624  55.0647926  40.1302195  38.5459900
  54.3185568  41.3874102  38.1540799  66.6806126  61.8746567  39.4195747
  67.5109386  61.5617609  39.7785783  66.3888645  62.5436926  40.0388527
  78.7012625  16.8663621   8.1424916  79.1381454  17.0085883   8.9822155
  78.2773685  17.7023518   7.9484195  73.6904526  61.5706825  13.2344449
  72.9599094  61.8795586  12.6985967  74.4718504  61.8246889  12.7433908
   6.2844908  22.1979332  47.9251099   6.5193957  22.2982097  47.0026159
   6.3639134  23.0794191  48.2896757  15.8377206  26.1094236  50.2815914
  16.3309813  25.4711866  50.7969379  16.4914620  26.7527318  50.0077105
  81.5502548  27.7231765  23.3816338  81.8928909  27.9739285  24.2395115
  82.3176479  27.4197125  22.8965998  71.4705944  55.6322193  33.3521461
  70.5279064  55.4776812  33.4128642  71.8672180  54.8259115  33.6819768
  45.6130981  63.1044912  11.9920731  45.1296377  63.8592005  12.3280919
  45.0597954  62.7579308  11.2920880  28.0106831  43.5567951   3.5399264
  28.1256270  43.5288095   4.4897878  28.3829379  42.7315044   3.2291993
  42.9916763  55.2208328  14.2486012  42.4671030  55.9865856  14.4824409
  43.8139105  55.3395033  14.7240746  66.2784863  53.2468700  17.5726867
  65.5233812  53.6764050  17.9746151  66.2902737  52.3715496  17.9598653
  65.2308416  70.7674742  37.9005241  64.5723963  70.1545238  37.5734663
  65.0214100  71.5962696  37.4698591  69.7189617  10.2437043  29.4800758
  70.2194548   9.5685822  29.0218759  69.6489906   9.9215233  30.3787065
  16.0473883   7.9271728  73.1029654  15.5560696   7.9672194  72.2824574
  15.4900026   8.3768111  73.7380838  48.0879641  69.2477608  16.7360377
  47.2544909  69.1309881  17.1920109  48.1924105  70.1967525  16.6672039
  79.9151516  68.6386871  11.9632447  79.6869993  68.5592937  11.0370290
  79.7606277  69.5604706  12.1698177  70.6333208  44.7091579  32.4298692
  71.3471603  45.0461626  31.8884826  71.0420942  44.5197678  33.2744241
  63.0405283   5.9764576   2.2717443  62.3592138   5.6514370   2.8603077
  62.8142262   6.8952942   2.1276626  64.3376923  60.3497601  19.7605002
  64.6719027  61.1042213  19.2753983  64.9458647  59.6411848  19.5500839
  61.2590933  50.4564571  24.6134305  61.5226793  50.5450296  23.6975098
  61.6886568  51.1872435  25.0580239  32.2970033  76.6079426  71.4835262
  31.7689419  76.5291405  72.2779894  32.9154348  75.8790684  71.5337086
  65.1144218  14.5158517  11.2172771  64.7195625  13.6439455  11.2270284
  64.8396778  14.9124658  12.0439827  65.0252342  50.3809357  43.5255527
  65.8814812  50.1178885  43.8630199  64.4127417  49.7554970  43.9127350
  65.2733374  58.0223656  39.6096063  65.7518816  58.3572245  38.8512564
  65.9559298  57.7740908  40.2330351  68.8054085  32.2009444  58.1858873
  68.5436010  32.5531721  59.0365505  69.7609949  32.2564602  58.1874895
  90.8728886  46.2493992  18.2872164  91.4159012  46.6631269  17.6162505
  91.1699104  46.6390228  19.1095328  53.9102793  49.3893576  16.4248323
  52.9747725  49.2947769  16.6040385  54.2623949  48.5039997  16.5163946
  68.4246969  54.9631643  33.1802773  68.3562946  54.0178537  33.3142328
  68.0578756  55.3452158  33.9775920  57.5424910  16.1782074  41.6752625
  58.1037998  16.9380331  41.5208864  56.7415619  16.5443563  42.0503330
  66.2087107  76.2449169  66.7126799  65.7243109  76.4958143  67.4992132
  65.5334282  75.9658670  66.0943270  79.3520594  70.8508730   5.3645736
  78.9384174  70.8984756   4.5026761  78.6861992  70.4571915   5.9283829
  55.9686852  25.4569936   4.3802923  55.2628517  25.1040769   4.9220303
  55.7919788  26.3968396   4.3391243  66.1524630  17.9783654  11.2720084
  66.6937065  17.4515676  11.8600333  65.8256817  17.3543656  10.6238794
  64.4704008  56.8946695  17.9318249  64.1959667  55.9777689  17.9173326
  63.8210917  57.3303223  18.4839427  88.8583374  31.9647622  45.6511402
  88.4149456  31.5882659  44.8909521  88.7807369  32.9110050  45.5293417
  37.4590993  18.1376815  63.7434626  38.1437755  18.7969244  63.8568163
  37.7395678  17.4044573  64.2911386  41.4588737  63.0437613   6.1320269
  42.3498821  63.3503389   6.3003999  41.5723419  62.2669506   5.5843705
  55.5390120  33.5348225   6.4456773  55.3611612  33.1951761   7.3227417
  55.8979702  34.4093823   6.5957481  73.4597015  69.6403551  21.8052840
  74.1389751  68.9837170  21.9590616  73.1664276  69.4762135  20.9090233
  48.4569883  58.6005211  37.5705743  48.7231922  58.5161400  36.6550159
  49.0626144  59.2444515  37.9377246  84.5822525  46.2281561   4.0637183
  84.1113567  45.9955025   3.2634926  84.6689034  45.4020500   4.5394024
  51.1368799  49.4656801  16.1636639  50.7250309  48.6177635  16.3299346
  50.6472015  50.0809336  16.7094755  80.6759930  41.4300156  21.8689442
  80.8555126  42.2266769  21.3696051  81.4263630  40.8625364  21.6924596
   2.1130742  47.3589516  25.9602380   2.9701754  47.3133421  25.5365276
   1.4879912  47.3721933  25.2354431  91.5230274  39.9368334  31.0001612
  92.2997665  39.3976617  31.1491752  90.8577442  39.3195415  30.6958890
  53.9385271  56.2049389  38.4248996  54.2622709  55.3175879  38.2698798
  54.1419697  56.3769102  39.3442845  90.3046417  39.5091939  33.7711740
  90.6517029  39.5298290  32.8793454  91.0813904  39.5103121  34.3305421
  58.3586264  37.1493435  32.0011139  59.1624641  36.6296673  32.0043993
  58.5033178  37.8100300  31.3237715  47.7467823  60.0050831  16.1911225
  48.2430696  60.5628490  15.5921006  47.6635599  60.5259418  16.9898796
  78.4402800  39.2750907  19.6246123  79.0536833  39.1497779  18.9005506
  78.0515671  40.1347780  19.4631553  65.6025791  24.9023175  20.8429456
  66.4976454  24.9411392  20.5059361  65.6173992  25.4526472  21.6259861
  54.2424631  49.2133474  35.8706617  54.5294428  48.6086702  36.5549445
  54.5719051  48.8293219  35.0581169  59.7895384  74.3317842  16.3175857
  60.3473091  74.9409580  16.8013501  59.3493557  73.8197184  16.9960117
  48.9395857  48.9243221  25.3906584  49.6818399  48.4299469  25.7383347
  48.8348484  48.6014032  24.4956827  76.4968872  77.8492451  54.7992229
  77.2737837  77.2994184  54.6974421  76.8095398  78.6204147  55.2722740
  17.5949013  84.7984982   0.0727598  16.9563913  84.9178505   0.7758190
  17.3467433  85.4446602  -0.5883933  51.5755749  82.8799248   2.3727548
  51.0762310  83.4625149   2.9450074  52.3663902  82.6744461   2.8713775
  46.1661625  42.3952484  14.0358782  45.6672525  42.9811764  13.4666646
  46.8430138  42.0279884  13.4673464  73.6895466  27.6476383  18.3097982
  73.3505392  26.7537093  18.2629216  74.4577026  27.6427412  17.7387142
  75.8998299  59.4476700  32.0045137  75.5393648  59.6074915  31.1323047
  76.8067360  59.1865015  31.8447018  45.7079506   7.4322343  66.2121010
  45.4838133   8.3141392  65.9150553  45.7764149   7.5101835  67.1636629
  63.3209324  45.0951290   9.5202935  63.5723734  44.6253967  10.3155053
  62.8265762  44.4540119   9.0095979  82.1148491  37.2391009  11.2783754
  82.0509529  37.9158878  11.9522500  82.7511215  37.5841117  10.6519949
  87.2302818  43.4946966  31.0758948  87.2638512  42.6231480  31.4702439
  88.0344486  43.5554171  30.5602741  64.7935295   4.5272690  24.2386866
  64.0876627   4.0936548  23.7591410  65.4952145   3.8770589  24.2718554
  52.7394724  17.4453914   7.0083755  53.6363506  17.3786843   6.6806769
  52.6905584  16.7928374   7.7069545  12.3832512  83.5055828  25.1719260
  11.7680681  84.0995693  25.6019974  12.6052582  82.8622150  25.8449960
  78.4766722  40.1780319  50.3142023  78.8707924  40.7242632  50.9943008
  79.2173624  39.8842359  49.7838354  72.2296095  73.3260870  49.5906067
  72.3170137  72.3998070  49.3656635  72.8400278  73.4548950  50.3165770
  70.3030443  33.1966925   5.3824562  70.6576538  33.9443398   4.9013063
  71.0240984  32.5679159   5.4133165  13.4672654  80.6079578  61.5033484
  12.8758430  79.9721718  61.1005688  13.3092308  80.5200672  62.4433136
  84.0608978  30.0638127  20.3926349  84.4922829  29.7068930  21.1690044
  84.6644974  29.8735809  19.6744990  87.4819756  70.6223536  16.5481126
  87.9395676  70.9765863  17.3105848  86.5648270  70.8576012  16.6885543
  56.6061592  47.9938316  30.4336905  57.1808720  47.2914171  30.1294756
  57.1983624  48.7198305  30.6297994  80.7632256  46.4012623  42.8255463
  80.5689526  46.3581181  43.7618303  79.9090576  46.5146017  42.4086761
  55.8196592  42.1796989  17.2063673  55.7175493  41.3473606  16.7448282
  56.0544443  42.8060150  16.5216529  23.1773496  68.4346962  68.5349321
  23.4238219  67.6437235  68.0555153  23.1368279  69.1176653  67.8654957
  20.5717206  12.4767005  53.6284781  19.7982490  13.0396771  53.5963583
  21.0381198  12.7552223  54.4165993  36.1616254  10.1371789  60.5661964
  36.7669487  10.1299489  59.8247337  35.8155251  11.0294366  60.5841398
  28.6583614  10.4391944   8.5007298  28.2194018  10.5537891   7.6578683
  27.9759336  10.6061721   9.1508394  33.6049342  37.1735549  66.1525631
  32.7164984  37.2435021  66.5018797  34.1523552  37.6187134  66.7993975
  51.8437815  71.5664482  42.3534060  52.2894573  72.2230291  42.8886652
  52.3450947  70.7630873  42.4931288  11.7468265  61.1651267  74.5719816
  12.5498727  61.6256513  74.3285340  11.0910896  61.8569423  74.6593642
  34.4854808   6.5643430  59.3810129  34.9435425   6.4721787  60.2164268
  35.1345754   6.9510639  58.7933445  69.7151804  77.2789192  59.5628214
  69.8027802  76.9975471  58.6521149  70.4002905  76.7994404  60.0286007
  75.1033926  53.2218075  47.0015621  75.6962824  52.7533484  47.5891542
  75.0636435  52.6759100  46.2162876  57.2689772  22.5579834   9.1567165
  57.3062420  23.4288883   8.7612814  56.8019915  22.6893854   9.9818760
  30.4880214  78.2014704  30.0630903  29.8786283  77.5237179  29.7706437
  30.4944205  78.1223774  31.0169935  65.7750607   2.6994374  21.0045409
  65.9356880   3.6374372  20.9016490  65.7009983   2.5714442  21.9502497
  70.2399349  17.7995169  11.5345109  71.1805964  17.9099941  11.6729987
  70.1463556  17.7099848  10.5861127  77.6729202  50.6397820  48.3787203
  76.7515278  50.6917477  48.6328173  77.9651260  49.7905016  48.7097311
  16.4213908  63.5969400  15.7550144  16.7177486  62.7576065  15.4029942
  17.0871592  64.2238045  15.4721224   1.0634989  27.6490164  47.6492357
   0.4793028  27.5651813  48.4028387   1.9431427  27.5682926  48.0179405
  80.0315571  35.6528592  26.6645861  79.5271444  36.1024952  25.9866309
  80.7002735  36.2861896  26.9252539  90.5978203  47.0565605  35.1530838
  90.8373070  46.6754866  35.9978676  91.2684631  47.7199888  34.9908423
  77.2069931  55.9335041  18.6266947  77.9549360  55.8989000  19.2230308
  77.1699142  55.0595474  18.2380378  73.0572033  76.4019156  11.1576951
  72.7240610  77.1221972  10.6224942  72.2724628  75.9406090  11.4536917
  51.3986254  45.2721691  40.1745510  52.3314285  45.2242136  40.3838730
  50.9874201  45.5799484  40.9822750  57.4546576  44.5164442  44.6663952
  56.6638899  45.0312996  44.5056391  58.1738520  45.1011610  44.4274330
  21.8000938  10.1327129  73.8739289  21.3733865  10.1466556  74.7306446
  21.3721325  10.8333250  73.3817691  74.0391970  52.5015402  28.2798290
  74.0965223  52.0550489  29.1245747  73.1008625  52.5474644  28.0963826
  41.6892195  61.6135025  12.7766705  42.4480867  61.6400576  13.3594668
  42.0611477  61.4778090  11.9051826   7.4779898  62.2351122  64.6024227
   7.8528786  61.7037392  65.3048038   7.8089690  61.8363142  63.7976599
  65.6498146  36.5560007  29.8640323  66.2729788  37.2018051  29.5311165
  65.3596973  36.0798597  29.0859866  86.3639164  60.3049278  42.8133345
  86.2471390  60.6121159  43.7123489  86.0831738  59.3900681  42.8344584
  47.7754068  28.0736399  33.1645966  48.4164619  28.7783027  33.2580328
  46.9650602  28.4383154  33.5203791  49.9171829  66.6062450  28.7105846
  49.6420383  66.0421085  27.9878974  50.2724648  66.0030603  29.3634057
   8.5240549  15.5796349  71.5463018   8.0280674  15.4998350  72.3610783
   8.8667935  14.7001362  71.3874197  69.3964958  11.9969368  19.3530810
  68.5341835  12.4102616  19.3104410  69.2101192  11.0607088  19.4235981
  50.4722929  42.9582119  33.1545329  50.3735018  42.5555372  34.0172744
  51.1587000  43.6146069  33.2737613  86.9465256  64.2944670  33.8278461
  86.6884041  63.4988928  33.3623695  86.7541981  64.1074371  34.7466850
  11.4506662  61.4016771  36.6633439  10.7217097  60.9599590  37.0989370
  12.2174633  60.8729887  36.8841267  55.4670620  71.1168909  41.7914343
  55.0496149  70.5947065  42.4764824  55.8947659  70.4731560  41.2267113
  80.3042507  67.3357201  56.8236446  79.6763468  68.0319738  56.6307926
  80.5797863  67.0168686  55.9641981  66.2042284  54.0638781  14.9241757
  65.6924152  54.8622751  15.0539327  66.2261820  53.6505318  15.7872486
  53.3348751  54.3050432  49.9570704  53.1008244  54.8269749  50.7245588
  52.5724554  53.7464333  49.8057318  28.7960005   0.6230982  12.9052591
  29.0952563   1.3821882  13.4057200  28.1822753   0.9846035  12.2658181
  69.7606325  58.6284113   9.6099168  69.6979856  57.9365778  10.2684581
  70.6573153  58.9538860   9.6890134  67.9171276  43.3928156  20.3822875
  67.3394442  44.1447020  20.2512217  68.4083366  43.3226109  19.5637393
  17.2744763  60.1134443  38.5370064  18.2303226  60.1479721  38.5744047
  17.0391238  60.7350683  37.8482175  80.2302933   5.5052221  30.8943176
  80.3595829   4.5610699  30.9842777  80.9546375   5.7943565  30.3393698
  47.8415012  68.0611420  46.9716978  47.8465033  67.2131109  46.5278006
  47.5581169  68.6814165  46.2999916  88.3603382  31.9615555  53.8227940
  88.8593960  31.1886334  54.0869045  89.0221786  32.5793815  53.5121822
  64.0756607  44.7216558   5.3203452  63.7466288  45.5716753   5.0280398
  65.0236988  44.7777843   5.2007419   8.7019002  75.9681654   4.5491859
   7.9088229  75.4340315   4.5049328   8.6583972  76.5263033   3.7727687
  29.7795248  82.9059792  63.9294815  29.2130494  82.5721264  64.6250916
  29.4374871  83.7798405  63.7407637  37.6959753  21.7495775  23.5287976
  37.2682548  22.1953917  22.7976799  38.3400249  22.3804998  23.8503075
  60.4869318  64.8735523  36.4571500  61.1907148  64.2768240  36.2025285
  60.6053162  65.6379604  35.8933234  52.2932863  82.9249096  23.2867432
  52.8056288  83.4515190  22.6732206  51.5426779  83.4765244  23.5070729
  25.3377867   4.9756461  23.6664510  25.9080744   5.7180691  23.8659763
  25.7530951   4.5492953  22.9168010  62.9947424  68.0745459  41.9685125
  62.7879858  67.9447746  41.0429621  62.8634691  69.0114450  42.1141768
  43.7145329  28.0790257   8.4405684  43.4815407  28.9684892   8.7066531
  43.1180286  27.5170660   8.9351559   5.3026295  69.9582291  41.6949177
   4.4011879  70.1924229  41.9157934   5.4178464  69.0801716  42.0582008
  73.6491442   1.5323175  72.3517227  72.9152489   0.9314750  72.4806261
  73.3966970   2.0596254  71.5937996  63.9371490  59.6159935  34.1460752
  63.9959717  59.4313145  33.2087040  64.4208670  60.4341078  34.2598248
  76.5160227  52.8612900  14.5151567  76.7545271  53.0987453  13.6190736
  75.8790731  52.1539688  14.4140399  70.7562017  67.9815960   5.7979614
  71.0298920  67.1281385   5.4619026  71.4412069  68.5840464   5.5080408
  63.3699656  46.6588211  41.5717173  63.0193281  47.4383450  41.1408710
  64.1784668  46.9582224  41.9875431  37.6927114  43.9390850   8.6848515
  38.0976796  44.2941380   7.8935426  38.2644749  43.2160330   8.9427620
  77.2651529  44.3007469  33.6002946  77.3498297  43.9478827  34.4860411
  76.4267063  43.9618683  33.2866096  85.2136707  79.1751003  35.4682446
  84.7877312  78.7466431  36.2106943  86.1405373  79.2006445  35.7059312
  88.6067486  86.0538578  22.0943093  89.1846371  85.3448009  21.8123293
  88.8394070  86.2023067  23.0108595  75.5556011  55.8270550  43.7218380
  75.3245831  56.7431211  43.8757658  74.7388315  55.4191446  43.4342146
  67.0752430  62.0761538  18.8195848  67.3889923  62.1129465  19.7231555
  67.8188324  62.3739290  18.2955313  87.3462772  67.7821636  63.5020399
  87.8340816  68.2508802  62.8248501  87.2468758  68.4189606  64.2097425
  83.2351494  79.5481205  16.4612854  82.9905415  78.8751793  17.0965397
  83.3836174  79.0665865  15.6474566  80.4874992  84.9358273  44.0094662
  79.9437809  85.7234859  43.9955902  79.9361467  84.2714405  44.4227839
  63.4492254  43.6456537  36.5549994  63.5554457  44.3288231  37.2169900
  63.9638186  43.9531565  35.8087659  78.7195826  58.9202309  36.2121844
  79.6551275  58.7179470  36.2039375  78.6734486  59.8494053  35.9869242
   3.5866970   5.1566267  17.5089157   3.6051342   6.0677493  17.2160888
   2.8750935   5.1249039  18.1483269  67.1787691  46.5129328  37.2669840
  67.5161266  46.5466690  36.3718390  67.8763008  46.0927963  37.7701449
   3.0569860  68.3299255  25.1774764   2.6947591  68.2487965  24.2951846
   2.8567514  69.2293024  25.4368305   8.4078968  52.1507788   5.8291942
   7.8868365  52.9173470   5.5902362   7.9587978  51.4161062   5.4111022
  84.1311550  64.2184639  10.1169705  84.2258167  63.8729525  11.0046041
  83.8179302  63.4745216   9.6025127  66.2869120  66.4319992  38.2754445
  65.6301451  66.7948866  37.6811361  65.9265089  65.5866671  38.5433221
  59.6078920  59.4886208  18.3708656  58.8757849  58.9557266  18.0605769
  59.7042751  60.1723957  17.7079964  90.2389812  39.2861319  21.3429213
  89.4999313  39.7745776  20.9803510  89.8634243  38.7867975  22.0680785
  90.9551048  73.3932877  28.6825037  90.6762600  72.8064823  29.3854547
  90.7252979  74.2681789  28.9955401  91.6831027  75.5098104  35.9942961
  91.9726753  76.0723305  35.2759981  90.8623291  75.9031820  36.2906456
   6.9790202  60.5699396  28.9178491   7.0519274  61.4089441  29.3728113
   7.6680553  60.5968094  28.2539654  60.6477213  43.7193823  21.6943336
  61.2930441  44.0755606  21.0836554  60.5852556  44.3768406  22.3872066
  63.0264997  57.7203321  37.8668547  62.7299261  57.5806475  36.9675398
  63.9810133  57.7512646  37.8022051  10.1492167  11.0812795  14.5062339
  10.1455653  10.3174949  15.0831664  10.9151745  11.5853167  14.7809815
  67.5820112  11.9035876  15.8874452  67.4793386  12.5959408  16.5403903
  68.5139656  11.9162679  15.6694269  49.2422009  57.5179958  14.1938770
  49.3044949  57.0347214  15.0177693  48.5696793  57.0546198  13.6946547
  71.1704254  79.5626736   0.4781483  72.0213366  79.9476862   0.6877819
  70.5338907  80.2160549   0.7682265  56.2165022  80.2752590  70.6199121
  55.6841183  79.5921564  70.2122641  55.5826235  80.9295273  70.9137821
  79.0208530  24.3513274  12.2720802  79.3552446  24.6350479  11.4212465
  79.7707319  23.9355874  12.6976120  19.0219581  79.8954391   1.7577060
  18.1381965  79.6445274   2.0264831  19.5574629  79.7604895   2.5395346
  90.8582592  52.1966124  42.7202463  91.6525745  52.7296305  42.7546930
  90.9998894  51.6030884  41.9827509  48.0445957  64.1541195  11.0186887
  47.2393465  63.9948750  11.5110791  48.7440014  63.8572025  11.6008484
  28.7322879  56.8776274  48.1871367  28.4556818  56.4761162  49.0108585
  28.0865145  56.5794134  47.5466061   6.7682201  42.6848364   9.0560818
   7.4817467  42.0468569   9.0464103   6.0163450  42.1981621   9.3938148
  85.6969929  80.7544422  27.4317670  86.1713696  80.7275295  28.2627130
  85.8420658  81.6411686  27.1017623  87.6108265  35.1230621  18.1557310
  88.2274628  35.0021887  18.8777936  87.5445557  34.2585921  17.7501059
  74.9089909  36.1546540  72.9522276  75.0763845  37.0930433  73.0396271
  74.4585466  36.0689473  72.1120024   5.8786905  50.8593082  26.4606524
   5.9895450  51.2281322  25.5843472   5.1702392  51.3728142  26.8487787
  80.7606602  43.3461142  34.4764757  80.2823639  44.1469717  34.2617679
  81.5453815  43.6506796  34.9321961  23.8058209  27.2749615  64.0530586
  22.8987455  27.5748229  63.9936304  24.2587185  27.9739094  64.5248508
  28.1623197  49.4662380  73.8943243  27.5348449  50.1747942  74.0373611
  28.9310503  49.8985434  73.5223103  84.7396755  22.5091338  60.6108141
  85.6642056  22.4513364  60.8519363  84.3799877  21.6504502  60.8333397
  71.0581589  73.5621500  23.9497256  70.3053856  73.7596607  23.3924484
  70.9989834  74.1950703  24.6653700  77.5573730  27.7746201  41.9832420
  78.0198479  28.4018946  42.5390148  77.6888132  28.1009555  41.0930395
  44.3576336  59.7399569   3.2362083  45.1461172  60.1194906   2.8482890
  43.9064598  60.4829168   3.6370617  68.6185551  32.3977971  20.3004861
  68.5011387  33.2077479  19.8040748  68.6033487  31.7067242  19.6383560
  31.3717341  37.2836185  71.9909000  32.2537374  37.2894216  72.3627472
  31.3965344  36.5952182  71.3262749  54.3016720  28.6163521  69.6495390
  54.6996546  28.8759923  68.8186216  54.0165186  29.4395518  70.0461054
  25.8972502  45.1615810  11.2028599  26.5384007  44.8320913  10.5731022
  26.4210129  45.6179285  11.8613803   0.6581377  57.3307896  22.9002142
   0.6322062  58.1414747  22.3919392   1.1656930  57.5535059  23.6806083
  73.1804514  84.6351147  17.6804435  72.6479149  85.4256058  17.5923252
  73.6507463  84.7539043  18.5056376  46.4746046  53.5868788  72.3092890
  46.7487955  52.8429699  72.8456163  46.9384670  54.3358707  72.6835632
  49.8701000  63.6522293  38.2081175  49.4335079  64.5032072  38.2462788
  50.7186174  63.7994146  38.6259532  58.1507587  76.4786625  57.4837208
  57.9687643  76.2158108  58.3859539  58.4024477  77.3998880  57.5487709
  86.1733150  67.5237417  57.4366474  85.4784679  68.1690407  57.3061991
  86.0107517  66.8582678  56.7681074  62.7786541  42.2259331  33.8001728
  62.0548773  41.6097689  33.6873865  63.1625032  41.9924164  34.6453714
  79.3693972  36.3633370  52.9025126  79.6022081  35.4348898  52.9067183
  79.9414253  36.7507076  52.2399759  42.4606705  18.3121407  65.9647989
  42.3999166  19.1994810  66.3185883  42.9935741  18.4051144  65.1751137
  79.2216301  44.6299791   5.1256025  79.3115997  45.1526117   4.3287390
  78.8070059  45.2209854   5.7541156   5.0772178  43.4474325  45.5500889
   5.6766045  44.1380501  45.2672243   4.4714749  43.8859272  46.1476135
  39.1920471  68.8992596  40.7229042  38.6181331  69.5762014  41.0815191
  39.2901540  69.1327715  39.7998214  76.9023323  47.9808331   7.3671663
  77.3259115  48.8274479   7.2255355  76.2237597  47.9368401   6.6934967
  61.2539339  36.0815334  20.1027870  61.8083668  36.8546581  20.2082062
  60.6993008  36.0763693  20.8829069  76.3122749   6.9805110  48.7145042
  77.1617079   6.8725544  49.1423321  75.7006931   7.1404719  49.4332600
  41.7034531  83.2333946  40.2406645  42.1773052  82.8146648  40.9592485
  41.9185448  84.1626263  40.3212500  70.6056929  76.4511013  39.4930935
  71.4173841  76.7780685  39.1051793  69.9120903  76.9127226  39.0218687
  32.9481936  50.8686161   5.6621659  33.1316853  50.7302284   6.5913647
  32.2203326  50.2770662   5.4710680  83.9547253  71.3221979  30.6738806
  83.8275433  72.1448278  31.1464691  84.0027714  70.6566715  31.3601708
  13.4886372  60.5442572   6.5789497  12.8268790  60.4607677   7.2654903
  13.0041873  60.8609772   5.8165658  52.8953981  63.1752205  39.3198037
  53.5844421  63.0434847  38.6685753  53.1367826  62.5977850  40.0440502
  59.0118456  53.5271406  42.7642393  58.8996315  53.7878990  43.6783791
  59.4712448  54.2631388  42.3598957  90.2840137  85.7101727  65.1841354
  90.5914307  84.8195744  65.3531265  89.3332767  85.6257248  65.1119900
  20.7977843   0.1095972  61.9409323  21.7339563   0.0258079  61.7598438
  20.6626248   1.0478016  62.0741129   9.4254166  75.4126406  14.7612059
   9.7440052  74.5180178  14.8811448  10.2169788  75.9317446  14.6190977
  11.0717463  50.7844305  19.9823618  10.2822840  50.8625460  20.5179739
  11.7684114  51.1494493  20.5279350  40.1198769  24.2959690  71.4598560
  40.2274513  25.0660825  70.9016562  40.9220076  23.7905908  71.3279152
  50.3077078  76.0848475  31.7448139  50.6326246  76.4366627  30.9160280
  49.8968601  76.8330479  32.1779776  83.5237980  19.8350561  26.8994880
  84.3435097  19.3501675  26.8036604  83.7915802  20.6982136  27.2149038
  82.4912357  51.2955475   9.5104402  82.6764297  51.9714737   8.8584733
  82.7804852  50.4808283   9.0995926  20.7876086  19.1943836   3.8462287
  20.3864884  19.3759263   2.9963011  20.0490260  19.1379392   4.4524831
  44.5593548  85.4723549  26.6894913  44.1396904  84.6700191  26.3790655
  44.6663046  86.0066319  25.9025097  44.5425653  42.8225756   6.8446290
  44.2156172  43.5668755   6.3392985  45.4911470  42.8456450   6.7185593
  58.5801649  56.0843658  10.9061658  59.4727468  55.8555651  10.6469774
  58.5204697  57.0273018  10.7527483  79.9381018  71.3372040  39.1069841
  79.4546843  71.3425589  39.9331284  80.5873489  70.6420279  39.2138886
  10.1764357  47.5773907  18.1740117   9.5955443  48.3369064  18.1300378
   9.8847705  47.0973396  18.9490700  18.2046461  24.3699670  68.7661314
  18.2323682  23.7381625  69.4846630  17.3564398  24.2205906  68.3484411
  76.6623020  75.0050020  40.5824518  76.7409468  74.6564293  41.4704514
  76.1362219  74.3555260  40.1159239   4.0630028  62.1963263  35.8617234
   4.6421480  61.4704943  36.0940719   3.8590807  62.0536041  34.9374509
  40.6190252   3.2383215  27.0197940  40.4901505   3.2729664  27.9676461
  41.2582541   2.5376886  26.8904424  71.9648218  37.3583078  29.1848183
  72.3401499  37.6386595  30.0195408  72.3417091  36.4918518  29.0317082
  46.5858889  78.0132341  11.4033985  46.8196201  77.7575970  12.2957277
  45.8036232  78.5551214  11.5066183  52.6204062  23.6193490  25.6817889
  52.6379585  23.1979823  26.5410757  52.9387379  24.5073819  25.8439469
  16.2526405  32.2100830  61.1593676  15.3111732  32.1920848  60.9874725
  16.4690173  31.3098502  61.4022541  80.8006096  47.8422928   6.9891077
  80.8373356  47.0161581   7.4711668  80.1937389  47.6724195   6.2686342
  54.2043161  61.5413952  19.3803346  55.0148439  61.3951969  18.8925874
  53.7549686  62.2340488  18.8960361  87.1140480  84.0574455  30.5054712
  87.8048801  84.5835781  30.9081674  87.5749969  83.3142281  30.1163912
  88.2841682   8.7553591  24.5752144  88.9882660   9.3501878  24.3170452
  87.6862049   9.2999458  25.0871682  14.7804415  11.8163157   7.1310616
  14.8540676  11.2605643   7.9069173  14.6510923  11.2024343   6.4081156
  69.3942451  73.0442047  34.6468830  69.5604515  73.6022663  33.8871646
  68.7845659  73.5484314  35.1856589  69.3992186  63.5329962  40.3306866
  70.3156519  63.7386227  40.5153465  69.3060541  63.6787224  39.3892431
  53.6951971  66.5094376  22.2257209  53.1771374  66.7774582  22.9846740
  53.5574818  65.5642462  22.1634316  46.2082911  18.3928216  67.8772306
  47.1295595  18.6386359  67.7931499  45.7263136  19.1677713  67.5884724
   5.1047617   4.0393719  43.8666677   5.5125219   4.8434222  44.1883278
   4.1787893   4.2621514  43.7708759  72.8922939  86.3612175  31.3365555
  73.2181644  85.9498024  32.1370411  73.2850075  85.8511639  30.6281376
  35.1796246  33.0450177  70.3183746  34.9641776  32.6262259  69.4850540
  34.9447966  32.3951721  70.9807873  83.1506348  12.2849405  34.2082381
  83.1510639  12.0124781  35.1258421  82.2460365  12.1594441  33.9215493
  -0.0953416  16.7337441  42.8038883  -0.0030062  15.9353852  43.3238173
   0.8036809  16.9954693  42.6051664  42.5357962  61.2545681  19.1103137
  42.8043652  61.9985867  18.5712981  41.7261934  61.5436459  19.5312762
  74.0502691  43.2065916  27.1154642  74.6287394  43.4952927  27.8213382
  74.1752243  42.2584009  27.0760822  51.3319826  35.9363961  18.6733210
  52.1650982  36.3945484  18.7839913  50.7369280  36.6016078  18.3274400
  56.8784571  54.8582172  23.5728979  57.5618935  55.5283833  23.5681629
  56.6287422  54.7772884  24.4934011  83.4468269  63.5287905  49.5147610
  82.7666759  63.7277460  48.8712978  84.1885662  64.0757561  49.2561388
  61.8388367  75.2697277  24.3490911  61.3237143  76.0617352  24.1954851
  62.5758505  75.3419876  23.7426090  39.8374605   4.9790809   1.0083990
  39.1107154   5.5757850   1.1873328  40.2541780   5.3374106   0.2247046
  59.2366648  59.8212719  68.3621168  59.7078705  60.6073999  68.0860662
  59.8594761  59.3509245  68.9162922  84.4618893  74.4822693  31.6351819
  83.9655399  74.9624634  30.9723949  83.9230442  74.5371914  32.4244022
  77.5628328  67.7495098   1.3102639  77.7087879  67.2819901   0.4878581
  78.3454466  68.2893944   1.4210150  56.4757824  42.3478031  26.3153863
  56.2782907  41.9872332  27.1798038  55.6221533  42.4334717  25.8908725
  86.0077858  77.3039007  18.6635661  86.4203644  77.6348448  19.4613636
  86.0688972  76.3516855  18.7395930   0.3253758  14.0725768   4.6503857
   0.7025014  14.6746325   4.0088740   0.4044351  13.2094491   4.2441955
  62.1802521  39.6645951  44.1028023  63.0201674  39.2524695  44.3051052
  62.3757935  40.2671623  43.3852291  18.8550377  70.2058649  26.6126108
  19.6678042  70.0727558  27.1003842  18.2194388  69.6365261  27.0463157
  87.7835178  78.1684637  49.3787098  88.2958317  78.9627123  49.2272711
  87.6259518  78.1614685  50.3228283  58.5523748  49.8216534  31.4892983
  58.4155560  49.9805737  30.5553508  58.3112192  50.6466818  31.9104910
  72.5769997  45.7799530  30.8618474  73.3786392  45.2593184  30.8113384
  72.4404430  46.0966587  29.9689412   7.7960962  42.0950508  48.4637451
   7.1089858  42.5656796  48.9355755   7.3307437  41.6158485  47.7781487
  84.9495411  34.0969896  40.6309175  84.8497581  35.0402355  40.7596016
  84.0657425  33.7456751  40.7391357  81.4581490  75.1734352  17.4114192
  82.1651173  75.3121042  18.0416524  81.7087460  75.6981516  16.6510868
  47.6379299  10.1194441  71.8448591  47.2035885  10.1872098  70.9945726
  48.4791803   9.7056276  71.6517782  65.9974289  40.6430197   1.6959900
  66.8986368  40.3447247   1.8187894  66.0827875  41.5547800   1.4173624
  78.7905550  22.3755455  56.1998606  78.9208078  22.6982641  57.0915556
  77.9954863  21.8449926  56.2509060  73.9316702   7.1397203  60.4560614
  74.7535181   6.9667262  60.9152699  73.2510281   6.9207686  61.0924721
  77.6652002  55.2367401  12.9842126  78.5918617  55.0386524  12.8489661
  77.3713970  55.5923367  12.1454847  67.7727032  59.0797377  25.7860160
  67.7838087  58.2314491  25.3427124  67.8438044  59.7206211  25.0785923
  60.2974367  56.6131163  13.5627925  60.8133984  56.3729429  14.3324232
  60.9407043  56.9484711  12.9383135  80.9706593  80.8797932   6.2211812
  80.2940083  80.3509903   5.7984036  81.0163116  81.6769695   5.6933051
   4.1104838  44.7174835  71.0362911   3.3568761  45.2723122  70.8351135
   4.8382869  45.1214790  70.5637169  53.0510235  22.4677086  59.9883366
  53.3295155  21.9383907  60.7356644  53.7741089  23.0781889  59.8444939
  90.9425545  23.9739347   2.9586601  90.3655434  23.4273291   2.4252546
  91.5310860  24.3880248   2.3274848  60.2274656  79.1166592   3.4181109
  60.0751400  78.7008905   2.5694847  59.6793032  78.6233425   4.0283489
  52.7152872  20.2202058  65.8638287  52.1730518  19.5780313  65.4057598
  52.6669645  19.9615431  66.7841530  74.2204714  51.5285254  12.4711466
  73.6281109  52.0514202  13.0114496  73.7154913  50.7458258  12.2506738
  79.8196125  54.1596985  58.2540798  80.0844479  54.7816753  57.5764132
  79.1238022  53.6436987  57.8468704  80.6645012  54.4976568  44.6715927
  80.8548832  53.9018345  45.3961468  80.8192825  53.9750338  43.8847399
  25.7446814  14.0321290  13.0393636  25.9491467  14.9171126  13.3414066
  26.5715981  13.7019181  12.6880753  70.8782387  46.9113255   5.4965299
  70.0969696  46.7371655   4.9716294  71.0284090  47.8515100   5.3978354
  84.7212029  43.4887743  37.4740911  84.0684986  42.8856611  37.1184826
  84.3593788  43.7637663  38.3165264  58.2734251  32.6695013  52.6921177
  58.5587454  32.9811811  51.8332386  59.0864372  32.4782062  53.1597137
  15.4813099  78.7378216  61.0521364  15.1258039  79.6202230  61.1580610
  15.9990621  78.7830973  60.2483225  64.1815281  45.1213598  44.9306870
  64.5847607  45.0003481  44.0710449  64.8725891  45.5102873  45.4667902
  46.4747000   7.0938075  29.3962717  46.8331003   6.2122959  29.4997907
  47.2321701   7.6722634  29.4848895  53.6270761  51.7889833  24.2536211
  53.1237936  51.2133646  23.6777711  54.4044447  52.0174408  23.7439752
  27.6235271  55.8309937  51.7149258  27.4459791  55.4958487  52.5937796
  26.8673325  55.5560732  51.1964512  83.5943699  43.8409424  20.3330207
  83.9173412  44.4505930  20.9965301  84.0534878  43.0214310  20.5169988
  80.0256729  70.3819513  26.5363383  80.9498215  70.6177807  26.6174364
  79.9272251  69.6059036  27.0879602  45.4771757  73.2167482  16.8059063
  45.4830456  73.9848280  16.2347233  46.2231016  73.3478594  17.3912585
  36.0200858  62.0537663  19.0766180  35.6450868  62.1163893  18.1981623
  36.9663382  62.0415211  18.9327848  57.4561357  64.2295551  48.6036777
  56.7862320  64.3532324  49.2761087  57.1592426  64.7656441  47.8683567
   8.1891841  58.0715227  34.8313451   8.9620137  58.2185555  34.2860484
   7.6330519  58.8334990  34.6690464  70.8380222  27.5806141  32.6410937
  69.9922323  27.5135612  33.0842376  71.4631844  27.7583146  33.3438230
  49.9315262   0.8463136  63.3496904  49.8560715   1.5785423  63.9615583
  49.0756941   0.8012831  62.9233551  80.9992695  58.6464977   3.9969680
  81.2402916  58.0181694   4.6776611  80.1330185  58.9602804   4.2565304
  11.9244766   6.2033165  55.4180193  12.2998190   6.2289858  56.2981844
  11.0259366   5.9007335  55.5495453  48.6755753  20.5410814  54.4002295
  49.1418076  21.2158012  54.8938036  47.9186296  20.9951735  54.0300131
  84.8403740  48.1616735  12.8254545  84.2735958  48.4669733  12.1170866
  85.3340054  47.4368763  12.4417531  74.4046402  69.2815733  13.8455200
  75.1585150  69.8655081  13.7622917  74.1417408  69.0997696  12.9432654
  41.5288258  10.5650449  16.5928781  40.7792425   9.9909502  16.7502856
  41.5449476  11.1508465  17.3497188  73.7770844  40.7235956  40.7147169
  73.8665867  40.5806351  39.7724962  73.6504364  41.6682959  40.8026695
  84.9134922  53.9120054   6.4202797  85.8525276  53.8433552   6.2478220
  84.5130539  53.9554644   5.5519545  69.9061155  84.0113258  49.7312212
  69.8234701  83.4805107  48.9389849  69.4767237  83.4936142  50.4122734
  74.9713087  16.4589357   4.0568951  75.4782152  16.6138887   3.2598585
  75.3904915  17.0095813   4.7181851  16.0581529  53.3334732  34.5987701
  16.6309392  52.5743771  34.7079754  16.2855184  53.9117956  35.3268361
  52.6320362  74.9600506   8.1676626  52.0315409  75.6077433   8.5366231
  52.1029997  74.4774151   7.5325149   7.9642904  72.0789719  33.8314486
   8.4199315  71.6212082  34.5379019   7.6162207  72.8696060  34.2437315
  50.5905247   2.0902659  26.6481781  50.0866222   2.1733359  27.4577570
  51.0744143   1.2707186  26.7502713  61.6866064  62.5607777  18.7097359
  61.0072851  62.0635843  18.2541561  62.5038767  62.2863626  18.2938027
  87.1379375  74.4876575  35.8267975  86.8119144  75.1654720  36.4188337
  86.6437531  73.7033701  36.0653472   5.8861864  70.2221632   9.2616057
   5.0262314  70.2042770   9.6815926   6.2911099  69.3909931   9.5094466
  74.2918110  76.9290161  25.2339149  73.7866926  76.6291523  25.9896731
  73.6956692  76.8276596  24.4919086  22.2866082  77.3660803  55.7219458
  21.5508199  77.6975822  56.2366819  23.0031872  77.9720068  55.9106302
  86.2086964  83.2590294  26.3443518  85.8378220  84.0194511  25.8966517
  87.1558571  83.3783245  26.2744498  75.1706171  64.1964865  67.2549009
  75.0674009  63.4216356  66.7024660  75.4576778  64.8832178  66.6530514
  90.0461102  48.5659361  29.3633699  90.8846378  48.9421272  29.6309090
  89.4348526  48.8299322  30.0510478  73.1071615  62.4413443  33.1492043
  72.9531956  63.3343410  33.4575558  72.8034019  62.4456739  32.2414923
  79.1588879  74.7160959  14.6940529  78.8109112  74.5953894  13.8105536
  79.8925161  75.3206348  14.5820010  22.1931577  76.1521530  33.1771874
  22.0867968  75.4689837  32.5152230  22.8608346  75.8085823  33.7708187
  48.8921309  53.6865854  45.7743645  48.0809402  53.5449648  46.2623644
  49.5870733  53.4996080  46.4054918  17.8383029  33.3165288  25.0245285
  18.0989277  33.7836504  25.8183193  17.1146369  33.8327742  24.6695185
  33.4256649  34.9180937   5.1133847  32.7127051  35.5431700   5.2445221
  33.2882452  34.2530537   5.7879728  36.2664723  48.2055950   5.0282794
  35.4098082  48.3084059   5.4427540  36.5109944  47.2973490   5.2058309
   8.6778414   8.7409890  60.0416231   9.1368949   8.8212186  60.8777237
   7.7615356   8.6062950  60.2834320  47.3626375  67.7428150  49.5792627
  47.3282146  68.0355835  48.6685848  47.8554487  66.9227934  49.5487595
  79.7376251  75.9182739  60.8851433  79.3287230  76.6277552  61.3807917
  80.5566406  75.7433462  61.3486624  79.1588020  54.5178127  22.4651408
  79.8819351  54.2298889  21.9079971  78.4190750  53.9719009  22.1986437
  15.1408112  69.2198610  35.7970905  14.8853683  68.8785601  36.6541171
  15.0836039  68.4646416  35.2117729  69.6972990  24.8943329  68.6275816
  69.6437025  24.3871069  67.8175926  68.8828325  25.3967047  68.6499262
  90.8636475  64.3869972  34.8323274  90.8456516  63.9418411  35.6795263
  90.5358410  63.7354708  34.2124128  56.8849611  65.5796385  21.1196160
  57.6546001  65.1908016  20.7040477  56.6878223  66.3494158  20.5859327
   0.7097223  81.2550640  22.1947050   0.3602007  82.1459198  22.1739078
   1.6590288  81.3710880  22.2343659  66.0216904  11.1872530  66.6412544
  66.4088297  11.8482673  66.0673094  66.4537239  11.3200188  67.4850273
  73.2829428  46.3900471  35.6918788  72.5250626  45.9951973  36.1230874
  73.0592012  46.3837719  34.7612190  84.6508884  12.6881969   1.4779629
  85.4177284  12.5586534   2.0360035  84.4168186  13.6079705   1.6022992
  90.5732059  15.7743788  47.6895189  91.3280869  15.2116907  47.8620338
  90.8671665  16.3630378  46.9943190  39.0459323  26.8923998  18.4835672
  39.8446178  26.3963819  18.6632955  38.4009862  26.2281060  18.2406843
  86.0486603  50.7691479  41.2306309  86.8371868  51.2399197  40.9607410
  85.6354809  50.5032730  40.4091549   2.4111703  70.4441214  42.2330475
   2.5556898  71.0318708  41.4914942   1.7201555  69.8512697  41.9376516
  26.1681819  11.2228012  65.8617163  25.7214475  11.3374066  66.7004776
  26.3111711  12.1139061  65.5427837  58.6066532  84.7356796  22.6424646
  58.7873125  85.6058407  22.2869349  59.4601583  84.4133186  22.9320216
  69.0801668  67.4455214  26.9553971  68.7072372  68.1750584  26.4604902
  69.7142458  67.8548193  27.5441742   9.0827346   5.5370945  40.2869940
   8.3196211   5.9639448  39.8975229   9.6942234   6.2525153  40.4615974
  75.7522488  68.8802385  18.0644035  75.7788849  68.1293392  18.6574197
  74.9146032  69.3038559  18.2518220  85.6972313  63.1899929  23.8028884
  85.2926445  62.6898336  23.0940938  86.4285278  63.6464262  23.3868361
  39.6318674  76.2239218  33.4346128  39.3693113  76.5581751  32.5769567
  40.4461384  76.6864014  33.6328888  88.6698055  78.9399481  18.6715972
  88.4862614  78.0902672  18.2708597  88.0448151  79.0041828  19.3937457
  87.4904251  83.9080524  36.1249876  87.0304680  84.7064114  36.3843870
  86.9189644  83.5037708  35.4721355  60.3612661  74.7356224  38.0947709
  60.2389812  74.7159147  37.1456194  60.2341890  73.8281584  38.3715248
  83.7715530  46.5620708  45.7092237  84.0199566  45.9005451  45.0635386
  83.2594872  47.2006702  45.2130318  36.2747407  76.0282516  29.1171169
  36.0328960  75.2548027  28.6076880  35.4430604  76.3654232  29.4500637
   6.3246119  66.3615894  15.3061330   5.8657664  66.9479275  14.7045505
   5.9623575  65.4954910  15.1193798  67.8157377  83.1640244  12.1643245
  68.2577896  82.7672768  11.4137149  68.5270596  83.4739780  12.7248406
  29.4699287   3.8604859   6.9882178  29.3227506   3.0176890   6.5589583
  29.3099475   3.6878845   7.9160362  88.2710075  11.4143026  41.7376757
  88.6813545  10.7354188  42.2733641  87.3969746  11.5201020  42.1133089
  19.4885349  45.3383827  37.1557498  19.3029511  44.4756889  37.5266194
  19.8582029  45.1534557  36.2923956  72.9165030  82.9300785  44.1771173
  72.0097971  82.9849529  43.8752842  73.1061316  83.8012791  44.5253944
  67.1281958  61.4858580  24.1734958  66.3309383  61.0391760  23.8887215
  66.8244314  62.1401834  24.8026347  30.7719016   5.8001691  66.0136080
  31.3375354   6.0456216  65.2814531  31.2251234   6.1327022  66.7883635
  16.1603284  70.9788132  66.1679983  16.6595268  71.3124084  66.9134808
  16.4504766  71.5117311  65.4276943   9.8086911   9.3662816  35.6923270
   9.0826201   9.4722110  35.0776458  10.1100683   8.4682715  35.5545545
   2.3966105  49.8978567  32.0437288   2.6665628  50.6863976  32.5144315
   3.1883332  49.3615961  32.0009828  18.6961532  77.2948647  39.8870349
  18.5859263  77.7947569  40.6958532  18.5902560  76.3816404  40.1535702
  25.9109664  47.0780420  16.6602480  25.4613924  47.5645638  17.3511994
  26.6208363  46.6215038  17.1117902  15.5087459  69.5373106  72.0038319
  15.7063711  69.7396660  72.9182863  14.9621904  68.7525702  72.0448923
  79.3796825  36.6811585  17.0843041  79.9511480  37.4144506  17.3122156
  79.7978210  35.9184551  17.4839020   3.1264782  24.4026971  16.6232193
   3.0140924  25.3104019  16.3409615   2.3907511  24.2428350  17.2143042
  67.0232248  68.1297398  12.1992564  66.4996862  67.3286247  12.1804821
  67.4578714  68.1518507  11.3467145   4.6150926  71.2277794  34.4547606
   4.3247831  72.1388483  34.4111633   3.9314497  70.7364988  33.9992261
  40.5876398  55.4763079  74.0842390  39.9207711  54.8225117  74.2941618
  40.5993080  56.0588980  74.8436356  70.6387091  32.4518371  15.5757892
  71.0341024  33.3158994  15.6910801  71.2641048  31.9728899  15.0319862
  23.8196015  65.5415630  11.3143623  23.8022041  66.4985800  11.3069105
  23.9300919  65.3111982  12.2368336  50.5420113  56.0094643   7.4896848
  51.2885857  55.4687595   7.7475500  49.7979259  55.6284332   7.9559320
  20.8509207  61.1934280  31.0499644  21.2696886  60.7984543  30.2852035
  19.9129486  61.0897446  30.8896804  85.0386429   9.5345861  27.0316744
  85.5390644   9.2931974  27.8111219  85.6679153   9.9943542  26.4759207
   2.4821641  46.3209248  33.8413358   3.2453766  46.8848181  33.9668870
   1.7739308  46.9234896  33.6142731  55.6014442  57.6858902  31.8294454
  55.8022642  57.5210810  30.9081745  54.8020077  58.2119656  31.8099260
  17.8461123  21.9698977  36.6128922  18.1606781  22.5868964  35.9521413
  18.4786022  22.0414472  37.3277831   0.3606012  59.6498632  20.8860469
  -0.0575373  60.4789495  21.1184454   0.4063776  59.6643972  19.9300539
   8.1979591  83.2117367  35.8512139   8.0288970  83.5735130  36.7211390
   8.1912869  82.2633743  35.9807754  25.7100487  69.8472071  11.4381075
  25.7323527  69.4907379  12.3261750  26.5752006  69.6500921  11.0790992
  19.3027210  85.2169228  54.2331314  18.4267116  85.2802563  53.8525677
  19.8845398  85.1170063  53.4796476  18.9827907   4.9036846  15.3013885
  19.4279587   5.1998258  16.0953391  19.5878756   4.2750099  14.9078512
  40.1963139   3.6382470  13.3528781  40.8775806   3.7944844  12.6988959
  40.6715393   3.3323541  14.1254187   0.3647686  57.9789829   4.6942699
  -0.5701417  58.1651258   4.6075210   0.4043992  57.2137117   5.2678740
  76.0860729   7.7479684  15.2467203  75.3198624   7.6387769  14.6834898
  75.9911156   7.0688850  15.9145975  73.2531595  59.4713545  34.4243169
  73.5797167  60.3707933  34.4488430  73.8935900  58.9701748  34.9291873
  77.5157928  39.9724579  60.9849834  77.5770330  40.8228111  61.4201641
  76.6659451  39.9892974  60.5448580  42.9271317  18.8460648  43.5958624
  43.7848330  18.7352073  43.1856298  42.5016165  19.5309329  43.0799866
   8.9457428  30.2953672  61.9112873   9.8372877  30.0957417  62.1968222
   8.4660876  30.4621887  62.7226686  61.9001198  31.2765408  10.8989429
  61.5680695  31.8149042  10.1805162  61.6009665  30.3909826  10.6927180
   1.9613837  79.2262173   1.0412665   1.2142125  79.2019844   1.6390789
   2.7220979  79.3307257   1.6127765  49.9373579   4.2494267  10.7176650
  50.6961393   4.7391620  10.4004300  49.2376089   4.9003386  10.7714963
  85.1050949  19.5498443  64.9805498  85.2715874  18.7891424  64.4239092
  84.5121002  19.2254806  65.6583214  65.1542521  63.8702154   0.8931344
  64.8461914  64.2847586   0.0872301  65.4896498  64.5942450   1.4218342
  33.9279699  82.5173950   5.3105390  33.0867314  82.2802448   4.9202761
  33.7777615  82.4637794   6.2543577  32.8742814   4.2930230  72.4608421
  31.9309545   4.2913523  72.2984695  33.0019712   3.6284333  73.1377840
  50.8650923   1.9413875   9.9268997  50.3508377   1.2634411  10.3652632
  50.5061245   2.7651396  10.2567565  28.3893585  74.4705486  53.5776186
  28.4120893  73.7741709  52.9212856  27.5514340  74.9097347  53.4319162
  84.9397182  66.3525820  61.1499071  85.8134460  66.7286205  61.0430241
  84.6776199  66.6036463  62.0356274  15.8732486  19.2200851  11.2027347
  15.5114555  19.6228683  10.4133666  16.1800337  18.3605850  10.9139919
   1.5870400  55.2506447  45.8656359   1.4950024  54.2996979  45.8068323
   0.8058879  55.5941534  45.4320049  62.3423052  25.4356647  22.5804138
  62.3712015  24.9401665  21.7619514  63.1675100  25.9204507  22.5961709
  34.1304874  72.4586868   1.2257175  34.7077417  72.0547009   1.8736383
  34.5574832  73.2872629   1.0080806  64.6503019  38.3970380  45.5844212
  65.4648018  37.9456019  45.3629923  64.8988438  39.3187094  45.6549740
  31.2631273  47.7741814  28.2944822  31.3287592  46.8234587  28.2047725
  30.3935266  47.9201508  28.6669326  26.4611197   8.3698636  12.6413476
  26.2125707   9.2928290  12.5904500  25.7043386   7.8984660  12.2930694
  78.5878515  44.4060230  21.7849016  78.1913996  45.1219606  21.2884188
  79.3256617  44.1206408  21.2459922  19.4908345  56.5002871  42.1435213
  19.0184391  56.9563150  41.4470243  19.2071760  55.5891657  42.0685196
  47.3141479   8.0741787  18.0977321  48.0221367   7.7565354  17.5372934
  47.7014303   8.1164825  18.9720654  25.2144146  47.2581053   0.8138046
  24.3609858  47.5221682   0.4700568  25.1773524  46.3019371   0.8382513
  79.6715641  46.7774487  72.1343899  80.3946209  46.6948366  72.7561569
  79.0875816  47.4240780  72.5307083  45.8140469  39.0639305   5.5574197
  44.8783255  39.0366244   5.3576440  46.2231064  39.3684983   4.7473946
  78.1062077   0.3244383  34.2832994  78.0949496  -0.6313723  34.2329049
  77.5062702   0.5336172  34.9992228  66.4868975  80.9345245  53.1866360
  67.2353458  81.1084366  53.7574339  66.8385172  80.3744984  52.4945593
  26.1746860   6.8603253   1.7959799  26.1342001   7.7904665   1.5736493
  27.1042323   6.6399467   1.7359014  68.2684422  20.8181715  11.9208813
  67.6727533  20.8800721  12.6675808  67.8161240  20.2466512  11.3003910
  55.5271292  24.2704535  27.7825499  54.9548054  24.6407366  27.1105599
  56.1677217  24.9597335  27.9579473  59.4617605  17.0296788  19.6670055
  59.2353201  16.1924219  19.2620897  58.6269665  17.4914503  19.7452235
  53.7421989  39.0277362  11.3894510  53.2161188  38.6817622  12.1104026
  53.5284185  39.9603844  11.3630223  30.2662897  76.0134077  24.6964264
  31.1820054  75.8156586  24.4999695  30.2111030  75.9688759  25.6509948
  55.1750565  25.9431887  46.5308475  54.3537283  25.6559849  46.9297981
  55.7793999  26.0361528  47.2672987  91.7790699  64.8092031  10.7721865
  91.6477966  65.7552576  10.7090867  91.3737679  64.4577599   9.9794394
   5.8039445  28.9951587  33.8569832   6.2185103  29.6053648  34.4669127
   5.5341691  29.5409918  33.1183887  65.4170179  35.3525138  27.4196339
  66.0267830  34.6237016  27.5347304  65.3529501  35.4636765  26.4710712
  79.7057104  36.5055871  70.7383966  80.3313828  37.2095156  70.9094238
  80.1791668  35.8968401  70.1713896  23.0886245  54.4915533  73.8785315
  22.4448085  53.8071680  74.0611506  23.2588243  54.8937130  74.7303152
  60.4994297  12.4561453   7.4528861  60.5835676  12.7285528   8.3666408
  60.5728006  11.5021372   7.4796373  12.9335606  14.1888559  36.2540102
  13.1019592  14.4942403  37.1454215  12.3655450  13.4264886  36.3653016
  84.7498417  32.2124290  70.9720993  84.3879700  32.0689821  70.0976276
  85.2917290  31.4407253  71.1366129  46.5742970  71.4319563  62.8883839
  46.7775822  70.7107544  63.4840202  47.3454618  71.5025425  62.3257589
  23.7613034  74.5357800   1.3564606  23.5199785  74.1453695   0.5164759
  23.5779905  73.8514376   2.0001285  71.9947243  31.4858890  61.0383749
  72.6833153  30.8449602  61.2152576  71.1870670  31.0516238  61.3128471
  34.6318507  37.6264882  13.7503111  34.2359734  38.4811616  13.5798848
  35.5730700  37.7765918  13.6619580  45.6527758  67.0304966  27.2123265
  45.4147673  67.7641010  27.7792478  46.6085052  66.9965410  27.2531104
  55.7673359  21.7401457  44.9738503  54.9055147  21.4228415  44.7039986
  56.3548040  21.4659834  44.2696142  34.4816065  74.6792650  42.5812340
  34.3576002  74.3231869  41.7014265  34.7859025  75.5751657  42.4363279
  60.9590912  59.7073984  50.3831768  61.3794184  60.4773617  50.0001478
  60.1195621  60.0306320  50.7102060  38.0410314  80.0722122  28.3536434
  37.5254512  79.6365881  27.6749396  38.6899495  79.4197941  28.6172414
  80.0951672  28.0034852  54.0950727  79.7120190  28.7268424  54.5912409
  79.3833685  27.3695016  54.0076303  78.7480783   0.4711891  66.5258026
  79.0820503  -0.1562601  67.1669006  78.4733391  -0.0676711  65.7839298
  47.6426601   0.5390232  17.5248170  47.8573561   1.1476159  18.2317483
  48.1441212   0.8573321  16.7741859  86.1332226  17.8080082  38.0121469
  85.8283520  18.5329449  37.4664831  85.6768513  17.9268086  38.8451195
   8.1360477  80.0766850  21.9282460   8.3647424  79.8928356  22.8393602
   8.9501351  80.3922939  21.5359640  21.5281391  83.4196568  19.9129486
  22.1732998  82.9890537  20.4738212  22.0244455  83.6889267  19.1400278
   9.9252254  60.6614590  30.3628826  10.1268005  60.6037378  29.4289303
   9.6220773  61.5608168  30.4873443  49.9682093   9.7597510  15.6065392
  50.1224232   8.8460344  15.8464789  49.7712040   9.7315454  14.6702552
  60.7477665  22.1362543  20.3824425  61.5475798  21.8417525  19.9467874
  60.2085733  21.3483763  20.4513931   3.5150501  14.0432799  32.9543543
   3.1736705  14.8834002  32.6479411   4.3977821  14.2427993  33.2661366
  60.8365297  12.4781406  10.1849389  61.2006044  13.2043290  10.6912315
  61.1843634  11.6931069  10.6079853  57.4427748  36.0615253   5.4280102
  57.3025370  36.0271144   4.4817644  56.5855932  36.2875390   5.7891130
  88.9067650  11.9565737  20.3235126  88.6054802  11.6671073  19.4623113
  89.8103428  11.6454589  20.3781843  44.1072559  80.4621220  35.3433537
  43.1770086  80.6703472  35.2566791  44.4352484  80.4520988  34.4441581
  37.7073145  12.7549136  21.5178251  37.0619798  13.3275008  21.9324565
  38.2619643  12.4574113  22.2389984  88.2277775  69.9638557  66.8869448
  88.3421230  70.7120705  67.4728823  88.7558365  70.1788521  66.1180735
  31.0980034   0.4098641  39.8055172  31.9348812   0.0192451  39.5539570
  30.5287361   0.2637147  39.0499997   1.3043262  34.4942665  21.1634731
   1.1229426  33.7952900  20.5351710   0.9383325  35.2808237  20.7589865
  86.1586285  27.8624296  19.7874343  87.0883656  28.0644011  19.8923862
  86.1344337  27.1949649  19.1017687   5.1072395  62.1701384  72.0719957
   6.0060203  62.4842882  72.1706676   4.9276331  61.6987133  72.8854656
  49.7965670  24.6107006  72.1745062  50.3067589  24.1365051  71.5179443
  49.0695667  24.0238500  72.3826122  16.9638717  28.6384702   1.5667950
  16.7255819  29.2374229   2.2744006  17.8988004  28.4773636   1.6940100
   6.9777918  14.2624342  31.2981343   6.6591001  14.7130847  32.0801711
   7.7441454  13.7739968  31.5987372  84.7261620  38.7701344  59.7829342
  84.7774982  37.8216839  59.6644402  84.0300274  38.8935614  60.4282188
  38.5705972  40.5387926  19.3218851  39.0578628  41.0575008  19.9619961
  38.1912374  41.1863470  18.7277579   6.3512325  79.7569752  72.5760221
   5.8220136  79.0612888  72.1859169   6.8493456  79.3201828  73.2669115
  74.8846865  84.9037838  72.5818205  75.6296873  84.5084190  73.0344725
  75.2649498  85.6233692  72.0779991  76.0764742  33.6432481  31.7021418
  76.5523434  32.8127480  31.7092967  75.9639692  33.8628030  32.6270056
  35.7281828  69.8585367  44.3613148  35.7029676  70.7823277  44.1118956
  36.2056327  69.4313765  43.6501122  54.4905806  33.8094068  27.0229602
  55.3645802  34.1983175  26.9897628  54.5116997  33.2379818  27.7905941
  17.6780224   9.6173185  38.7330842  18.1881511  10.0513458  39.4169116
  16.9689047  10.2299500  38.5379791  20.4452610   3.1078705  13.3928883
  20.0744414   3.5740396  12.6436150  21.3909054   3.2275346  13.3053112
  49.5250416  23.8003898  21.8712187  50.1354742  24.2131019  22.4821782
  49.7184706  22.8650761  21.9345260  79.6450329  21.4774990  33.2994676
  80.1355267  22.2986674  33.3359051  79.4517088  21.3550258  32.3700285
  20.5446863   3.6079478  62.7118969  21.2032366   4.0542018  63.2442522
  20.9087682   3.6129612  61.8266582  85.1731873  23.7107038  47.1893358
  84.8157310  23.2312560  47.9367208  86.0061455  24.0606737  47.5054741
  61.4921236  36.0064292  70.2469349  61.7637873  35.3460813  70.8844090
  62.2784662  36.1764145  69.7282743  51.0522509  24.6678686   7.6628107
  51.7376757  23.9999962   7.6436388  51.2501669  25.2356339   6.9180250
  47.0240545  26.8998122  23.9389634  46.7478561  26.8944192  23.0224943
  47.6190948  26.1538219  24.0141821  68.2413340  32.2820091  11.8258631
  68.6304665  31.8151760  12.5653744  67.5256252  32.7873087  12.2114348
  89.6210289   8.1312424  27.2516894  89.3142033   8.8030851  27.8605533
  90.5486584   8.3296239  27.1237159  85.1249313  29.5205665  22.8475499
  84.9617767  29.4807744  23.7899041  86.0408878  29.2596292  22.7518272
  33.9193130  82.3296452   1.8004598  33.0438542  82.0706558   1.5128376
  34.2293406  81.5886879   2.3211187  73.1173229   6.7317730  39.1870570
  72.1630573   6.7657948  39.2537427  73.3439398   7.4666011  38.6170506
  33.2774687  84.8419380  17.1456409  32.3406053  85.0083160  17.2497332
  33.3419371  84.3323135  16.3379574  61.1928177  32.5825524  39.5771432
  60.5024958  32.4550653  40.2278614  60.7582521  33.0309343  38.8516521
  91.0151100  79.7325182  15.4737198  91.8309498  79.6985006  14.9742496
  90.8559036  80.6666279  15.6090653  80.2844524   5.0388199  50.4112625
  80.5432606   5.2761793  51.3017178  80.7677269   4.2331332  50.2280998
  85.3262138  72.2352362  66.3733530  86.2449360  72.1209860  66.6165018
  84.8558521  71.5943813  66.9065523  33.0756140  28.3210063   3.9555678
  33.1401753  27.6601100   4.6449739  33.0626583  29.1555214   4.4242358
  51.6801977  27.0653939  44.7299194  52.1044302  27.3310757  43.9140320
  50.7620049  26.9372177  44.4917488   0.7692515  13.3329940  33.5963535
   0.7997219  12.5100505  33.1084323   1.6582078  13.6821997  33.5327578
  62.5117922  42.0088053  71.6397762  62.0666361  42.8161383  71.3823318
  61.8040609  41.4127541  71.8848658  11.9502878  57.5620317  38.4506416
  11.6433787  58.1280804  39.1588998  11.2825465  56.8795490  38.3830380
  25.8508182  41.1393070  17.4536705  26.4609647  40.5757380  16.9779170
  26.3488388  41.4454412  18.2116210  81.3776302  20.0202036  25.1147938
  81.7037582  19.6926737  24.2765856  82.1455097  20.0222898  25.6862664
  61.6527414  58.2984209  69.0523958  62.5203943  58.2985592  68.6481524
  61.4660501  57.3744202  69.2185068  75.2211094  68.7312937  36.4869952
  74.7869301  69.5789480  36.3910890  74.5241022  68.0887985  36.3543129
  75.6207132  69.7383595  44.4799042  75.5505133  68.8381720  44.7976494
  76.1858416  69.6771336  43.7097645  80.3867817  58.5590410  70.9298992
  81.0472679  59.2295456  71.1043024  79.7503376  58.9920378  70.3609610
  51.6382504  24.6069264  42.1620750  50.8312035  24.3381739  42.6010180
  52.2824478  24.6762729  42.8666544  17.5562298  36.0858631  39.4307375
  18.3199203  35.5424476  39.2365479  17.7057564  36.3991165  40.3227854
  69.5748138  18.3685207   0.6156298  69.2172337  17.9566908   1.4022470
  69.1215849  17.9361975  -0.1081888  41.6757679  34.6338797  23.3361602
  41.2121058  35.3950715  23.6852098  41.6482639  33.9909887  24.0447974
  48.9088726  47.2240734  23.3902764  48.5864973  46.3265944  23.3075929
  49.4405890  47.3607731  22.6061678  63.7580395  49.4594240  32.4329710
  64.3573093  49.8015261  33.0963516  63.1432772  48.9141846  32.9239035
  17.7913857  74.6369028  50.7270956  17.6341689  75.3852510  50.1513481
  18.6691630  74.7855043  51.0787439  87.0563889  14.2322934  39.4931555
  87.8734207  14.2758512  39.9899411  87.2847462  13.7502086  38.6983728
  76.2487698  25.7424474   5.8855313  75.6956148  25.2780128   6.5136611
  75.7930088  26.5698671   5.7309657  18.1170547   6.1924028  69.6813393
  17.9314840   7.0303822  69.2575645  17.6643491   6.2442636  70.5231237
  58.0988550   0.9594964  33.1483769  57.5392818   0.2967682  33.5532260
  58.1141806   0.7255638  32.2203302  13.1446195  57.5920677  34.1708112
  13.8201559  57.1847153  33.6286426  13.5370660  58.4140301  34.4650817
  46.3922024  37.7248192  26.6533828  47.3307276  37.5762773  26.7688799
  46.2035704  37.3936629  25.7753253  25.7016325  84.6454716  42.7602243
  24.8299313  84.3809319  42.4663067  25.7292008  85.5901337  42.6082325
  35.4778552  22.0520043  33.7544417  36.4072871  22.0006061  33.9774728
  35.2155638  22.9326701  34.0225124  47.9605818  32.1679688  34.6201468
  47.8509665  33.0793309  34.8915005  48.9005613  32.0057416  34.6998334
  71.3539553  26.4853835  43.2448673  72.0112085  26.6317081  42.5645447
  70.9476471  25.6511569  43.0099010  38.7421346  10.2819300  50.4142189
  38.3658314   9.8403227  49.6528959  38.6084485   9.6688473  51.1370516
  36.5010834   7.7166265  57.9122114  36.8693852   8.5285640  57.5638676
  37.2136521   7.0812786  57.8428507  74.3902111  37.9079866  44.3442202
  73.9552021  37.9728723  45.1943874  74.2565107  38.7656116  43.9406872
  68.9346695  14.6064854  16.3542056  68.1153202  15.0352132  16.6013730
  69.2710733  14.2425358  17.1731114  15.9020782  70.0721025  74.4495630
  15.7499659  70.8730745  73.9480305  16.4047825  70.3587627  75.2120256
  55.0415850  79.0708160  24.4405103  55.4391050  79.3933153  25.2493382
  54.8978615  79.8572588  23.9141226  56.5730619  39.1438222  10.6165075
  56.6859341  39.5821548  11.4599252  56.0379553  38.3755350  10.8155823
   0.8122041  24.2320871  18.7271285   1.3552740  23.6737394  19.2835009
   0.0310114  23.7076378  18.5512626  41.6202021  12.2078907  70.2735806
  41.5020275  12.9797590  70.8271885  42.0677137  12.5381374  69.4945383
  86.8387032  66.9841337  54.1930676  86.6631699  67.8390980  54.5860767
  85.9921265  66.5375566  54.2030907  38.0532670  21.3519478  34.7567368
  37.9264140  20.4285383  34.9745822  38.7334752  21.3479066  34.0832901
  78.4780312  42.6034164  27.0816135  78.5829163  42.5564575  26.1313367
  78.4287691  43.5403728  27.2711349  83.2309818   3.6898273  25.7988167
  84.0346336   4.2065340  25.7405901  83.3631420   2.9709315  25.1807928
  55.3041458  28.4136629  20.4988670  54.4005775  28.4973192  20.8035016
  55.2319288  28.3642101  19.5456779   3.7136450  80.6514740  69.7307968
   4.3255666  81.3816071  69.8240471   4.2668879  79.8707247  69.7549009
  77.8014183  39.6303773  11.2369728  77.9263020  38.9639568  10.5613089
  77.5038481  40.4040051  10.7582414  31.7183495  11.1382151  13.0502152
  30.9875822  11.1021423  12.4330354  32.4407959  11.5104675  12.5445175
  57.5774813  23.5903001  38.6677551  57.4110651  23.9512634  37.7969837
  56.7190456  23.2976007  38.9737654  55.3449583  20.8180690   0.8213568
  55.5595827  20.7734323  -0.1104026  55.9715557  21.4455843   1.1816789
  53.0160856  85.7512093  58.3746386  52.2903252  85.1371670  58.4862328
  53.5160446  85.6814480  59.1879082  80.1971531  32.9275966  20.7622695
  79.9515009  33.2050586  21.6448236  79.4517517  32.4100280  20.4577446
  68.0545282  37.5654340  12.2662079  68.1188202  38.3707190  11.7527759
  68.0347300  37.8623652  13.1759727  17.3636925  74.8081779  65.1023865
  16.6873312  74.1474819  64.9532461  18.0943704  74.5320702  64.5491171
   8.2477492  48.1797886  12.3342431   7.8124481  48.5611439  11.5718043
   8.4367937  47.2777271  12.0758152   8.9017022  60.3657770  26.9980502
   9.6232903  60.6074381  26.4174080   8.1128114  60.6108570  26.5145016
  60.6233931  57.4188232  72.9335594  60.4458237  58.1968546  73.4621143
  60.8453226  57.7626562  72.0682478  88.2426739  48.2389975  16.2988067
  87.3087692  48.4048843  16.1702418  88.3811378  48.3640909  17.2376418
  50.1383018  40.9723854  21.2028337  51.0813189  41.0950947  21.0937738
  49.7778797  41.0931206  20.3243423  55.6010532  29.5427227  42.6658010
  55.1070929  29.1370893  43.3783293  56.4395905  29.7811317  43.0610847
  54.0193224  15.7967138  37.4176621  54.1270542  16.7102253  37.1528578
  53.2918978  15.4768431  36.8840337  88.4915924  56.8159056  63.6644697
  88.8334751  57.4197960  64.3237591  87.5404739  56.8813229  63.7500286
  57.9405260  25.0591183   8.0382073  58.1748676  24.9790025   7.1136010
  58.1854391  25.9547877   8.2706290  41.3110781  58.1180954  13.7463546
  42.0844030  58.1547451  14.3092501  41.1726379  59.0241003  13.4702694
  58.8363409  27.4061203   4.6049640  58.4975290  26.6019440   4.9983290
  59.6675301  27.1465826   4.2074701  66.4176035   2.6850656  12.2742558
  66.4491796   3.6387414  12.3499978  66.2202597   2.5244901  11.3514864
  56.3194752   1.4342467  37.2186279  56.0991621   0.7827606  37.8844047
  55.5849838   1.4078501  36.6053915  58.4591866  45.7173538   4.2239046
  59.0291452  45.7766485   4.9906287  58.2969666  44.7799683   4.1179749
  46.0715532  10.9091461  53.6377525  45.9755993  10.2553236  54.3302393
  46.9226980  10.7177114  53.2438755   1.9228169  81.5453148  15.7621288
   1.1297588  81.9303322  15.3892303   2.3808134  81.1665344  15.0118005
  71.5994072  15.2935290   0.5663629  70.9902716  15.3012276   1.3046905
  71.9745588  16.1740899   0.5561758  67.7169323  85.8349800  74.4139385
  67.7024984  85.5657482  73.4954977  68.3231831  85.2242279  74.8330736
  15.6724536  53.0136728  54.7752380  15.7583880  52.2862148  54.1590786
  15.8633804  52.6274109  55.6299782  71.7266273  17.9750109  25.1729035
  72.6684999  18.0198526  25.0082874  71.5368176  17.0382333  25.2243948
  68.8809872  73.1085634  60.2268505  68.4219265  73.9242411  60.4272556
  68.3161116  72.6650667  59.5940304  68.6178350  46.8989801  25.4099751
  68.2825375  47.3888826  24.6591043  69.3492508  46.3918066  25.0577903
  22.4900031  25.1433206  10.3196692  22.1270156  26.0135460  10.1548171
  22.1987867  24.6173048   9.5748645  73.0656815  61.9079876   9.0191984
  73.7871933  62.1058273   8.4221089  72.9423046  62.7136993   9.5210373
  52.2190666   7.1876609  32.0783424  52.5593090   7.7005577  31.3452649
  52.4328756   7.7068490  32.8535604  81.3540840  23.5360050   3.4895760
  82.1017456  23.5810709   4.0855575  81.5174484  22.7563000   2.9589143
  91.3236618  43.3929682  66.2507343  90.9241867  44.2391634  66.0492229
  91.3311386  43.3533144  67.2070837  78.0569601  10.5271661  40.8315420
  78.3605051  10.8626187  39.9880004  78.7915182  10.0100029  41.1619949
  40.5152607  36.1360025   8.5904920  40.6146193  37.0620108   8.3694351
  39.7349691  35.8576822   8.1109953  87.7712440  14.4296145  70.2912617
  88.6820602  14.4975460  70.0048351  87.8279495  14.2570996  71.2310791
  46.7173195  21.1863041  27.4092650  47.4359941  20.6721187  27.0413566
  45.9508562  20.6186271  27.3285770  59.1918564  57.9059792  55.4422712
  60.0685596  57.9292917  55.8257771  58.8881874  58.8127947  55.4835463
  16.9946158  52.5100517  62.0149803  17.6425600  52.1330547  61.4197731
  16.2063599  51.9855690  61.8742609  34.2353511  22.1396160  11.7192614
  35.1900005  22.1945286  11.7623568  33.9967632  21.5506291  12.4350846
  54.3203306  23.6383891  15.6140661  54.9606657  23.9663124  14.9826658
  53.4767103  23.7365699  15.1725948  75.4866505  66.0596466  61.3136864
  74.5825481  65.7886457  61.1543226  75.6700993  66.6985989  60.6249809
  45.5608892  75.1602888  49.0950251  46.0104132  75.7423019  48.4823084
  45.2040625  74.4629049  48.5449696  18.6921167  25.6403303  10.8832705
  18.9290988  24.9619675  10.2508974  17.8070486  25.9038758  10.6314170
  63.0195570  31.0230041  26.3882470  63.8962269  31.2274146  26.0628152
  62.7403831  30.2698588  25.8676076  43.9831161  16.9737208  59.2359161
  43.7868500  16.3109314  59.8980522  43.2845068  17.6211727  59.3306875
  63.2144690  23.7293434  20.6517625  64.1065025  24.0756845  20.6281519
  62.8461409  23.9578819  19.7983360  77.9313135  29.4773793  39.9045634
  78.3431816  29.1596937  39.1010284  78.4432077  30.2489471  40.1472187
  89.5310211  28.0358887  18.5388196  90.3505516  28.4555173  18.2770741
  89.7511578  27.5586009  19.3387973  61.3639355  58.2570028  11.2460351
  60.6689644  58.8249826  11.5786755  61.1488819  58.1315136  10.3217852
  67.8240013  17.1242344  18.1762767  68.6934328  16.7653298  18.3537865
  67.3426580  17.0016730  18.9945185  86.7444420  16.8609655   4.3786415
  86.7970371  17.5325227   3.6985850  85.8378792  16.8992496   4.6834600
  41.5373468  13.2383108  33.9378738  41.4189005  14.1563869  33.6942792
  42.0157242  12.8552210  33.2025981  61.2040520  17.1489000   5.0056994
  62.0464754  17.4636602   5.3335482  61.0947418  16.2893713   5.4125071
  53.3361673  46.0041475   5.6811166  53.1221104  46.8307209   6.1137682
  52.8911686  46.0543537   4.8351336  27.0419335  73.7312412  66.3632774
  26.3685107  73.0547476  66.4346075  27.3638105  73.6550188  65.4650497
  68.3511782   0.7065501  11.5062416  67.9126501   1.5069287  11.7948949
  69.2566204   0.8107132  11.7987370  33.7336183  31.0870481  65.9521198
  34.4573426  30.5484939  66.2721443  34.1503096  31.7353678  65.3844261
  69.4296074  30.1035690  13.2759523  69.3081760  29.2426062  12.8756666
  70.3103828  30.0719976  13.6494112  56.4592600  28.9785147  55.1271820
  56.4024734  29.1288853  56.0707903  56.5315247  28.0280328  55.0400352
  88.6158562  53.0452347  26.6247487  89.5345592  53.2701635  26.4777088
  88.1260395  53.7543297  26.2082219  29.0348291  71.8606234  62.3285818
  29.4543314  72.2744179  61.5742445  29.4907713  71.0248280  62.4275875
  39.6642828  60.4930925   8.7755966  40.2540398  60.2016735   8.0802578
  39.9814868  61.3656139   9.0086675  22.3486209  17.1078014  61.5913010
  22.0631170  16.8081021  60.7282257  23.1759310  16.6505587  61.7420387
  19.2842305  10.8171225  27.6057887  20.1456928  10.4415274  27.4240136
  19.4393480  11.4393806  28.3163977  66.8901920  47.2412682  12.5949037
  67.0955372  46.5932035  13.2687581  66.4121962  46.7493486  11.9272470
  63.0080509  41.0959482  11.8783724  63.8347816  40.6857157  11.6244924
  62.3507786  40.6714439  11.3269913  53.6192369  34.8447418  23.9683890
  53.9066172  35.7541943  23.8875031  53.1064272  34.8265648  24.7764277
  76.3985968  31.0261488  32.4570513  76.0846281  30.5442834  31.6918969
  76.2764311  30.4205537  33.1881881  18.7991226   8.6703038   6.6554934
  19.4405448   8.9925414   6.0222697  18.2858169   9.4431776   6.8908995
  81.9207287  21.6522098  28.8327503  81.8945408  22.6085520  28.8636518
  81.7622852  21.4378476  27.9134130  41.8234015  79.4434834  10.5352807
  41.4140701  79.0414906  11.3014913  41.3786650  79.0429020   9.7883064
  66.8631601  28.2072806   5.7495099  66.9735003  29.1201568   5.4835922
  67.7483034  27.9108787   5.9614128  73.1802273  18.5749543  43.3269072
  72.9020023  18.0128813  42.6037884  73.8522959  19.1401839  42.9460239
  86.9995499  70.4518890  72.9126120  87.1693230  70.3260374  71.9790316
  86.7653847  69.5808363  73.2330227   1.0996823  17.8002632  18.2771039
   0.5359634  17.8781879  19.0467668   1.1411390  16.8596065  18.1048334
   7.6766616  76.6950226  58.5981321   8.0558985  77.5373268  58.8489962
   6.7341721  76.8114614  58.7180805  88.6362362  29.2648745  25.0976396
  89.3513870  28.6814046  25.3513288  88.2700062  29.5698476  25.9277582
  84.5783043  61.0060787  69.2632198  85.3220940  61.1978149  69.8344040
  84.8714066  60.2688694  68.7276411  62.7229261  27.7854753  42.0838594
  63.5662508  27.4908710  41.7399931  62.2672462  28.1467223  41.3235378
  67.7521086  53.8122940   4.2403439  66.8704796  53.7063456   4.5977458
  67.8105402  54.7415972   4.0184948  43.8194180  41.1562300  74.8493528
  43.0373478  41.6413784  74.5862389  43.7065363  40.2897596  74.4585562
  80.4859543  64.2400408  12.5706005  80.5233002  65.1327991  12.9138446
  80.2639389  64.3480921  11.6457951  71.1488152   6.7458069  22.5185823
  70.2998781   6.5154189  22.8960180  71.7198801   6.8767327  23.2755375
  75.3035641  50.9270573  70.7367134  74.8079777  50.3685856  70.1377678
  74.9622774  50.7100058  71.6042662  13.9460695  77.8109646  70.6692314
  14.1906607  78.6991167  70.4092407  14.3177199  77.2509670  69.9876785
  58.1607962  19.2531943  11.5674531  57.6099253  18.4858191  11.7220640
  57.8663015  19.5931208  10.7224953  62.6025629  19.4962966  44.4115019
  62.3110962  20.4077315  44.3876934  63.2596207  19.4367623  43.7179852
  63.9781952  43.6138248  11.8137062  64.0955639  42.6642561  11.7857528
  63.6742306  43.7914848  12.7038038  55.9221268  74.7729969  74.0327215
  56.5762234  74.8125553  74.7304487  55.8385229  73.8400936  73.8354111
  70.2587271   5.4192978  14.7819638  70.8846188   4.6965930  14.8287082
  70.0310946   5.4793757  13.8541675  51.8315363  15.2051771  53.2459211
  52.4075222  15.9213197  52.9783249  51.1143017  15.2251697  52.6123571
  70.6399918  36.9954014  25.1400781  70.5455780  37.7758861  24.5940375
  71.2754250  36.4522719  24.6737456  80.7074451  61.2637281  74.3566179
  80.1383305  61.5091991  73.6271763  81.5572834  61.0932493  73.9504910
  56.2728739  17.7440953  35.1430821  56.3907480  18.2916260  35.9193206
  57.1197224  17.7741730  34.6979165  85.2819633  36.2494898  19.0429866
  86.0742188  35.8170438  18.7243164  84.6250629  35.5539298  19.0731776
  80.9941483  84.9131107  17.7119601  81.5609169  85.2095127  16.9998205
  81.0946178  85.5798531  18.3913648  50.4492092  33.8493514  30.1159120
  50.7458782  34.0620589  29.2310548  51.2409830  33.5640025  30.5718732
  38.2714438  16.5152431   9.4246083  38.7383175  15.7305610   9.7118938
  37.5362945  16.1817038   8.9102751  88.2404327  85.7667732  43.5248804
  88.4265900  86.3171291  44.2855978  88.8984108  85.0727177  43.5646200
   4.9762318  52.7059412  72.3214006   5.4452068  51.9119596  72.0647144
   5.4781169  53.0526638  73.0590487  81.0639477  74.5840168  63.4325075
  81.6622543  74.0414715  62.9187870  81.4343929  75.4650545  63.3797455
  70.8614922  41.6126490  25.3229308  70.8812332  41.5156174  26.2749958
  71.7717171  41.4947510  25.0512362  79.3305922  29.7882533  31.2597537
  80.2007866  30.0435710  31.5660429  78.8515520  30.6135178  31.1843133
  76.6349888  35.7220006  22.3014784  76.5792990  36.4131999  22.9613090
  76.0993052  36.0406446  21.5750217  32.4055338   2.1480800  74.1194677
  31.9018006   2.0783582  74.9304056  32.0987558   1.4168674  73.5833263
  87.7383995  79.1574001  71.8364334  87.7477074  79.9201298  72.4147034
  87.5767231  78.4162283  72.4201775  48.6954260  36.0215545  25.2573276
  48.0539894  36.4857364  24.7194386  49.2372274  35.5463433  24.6273565
  47.2525644  33.7673712  30.6499791  47.0031023  34.3580127  31.3607144
  48.2092381  33.7970090  30.6385660  15.8782411  14.5929945  64.6078873
  16.2024081  13.7823379  65.0002956  16.6688800  15.0688970  64.3536472
  38.3039284  39.0954804  22.8530502  39.2460585  39.0724659  23.0206537
  38.0573368  40.0091362  22.9967761   6.8506529  85.9214969  63.1109667
   7.2046949  86.8106444  63.0935526   5.9037329  86.0392183  63.0353642
  51.8259954  83.5912704  74.2313147  51.3405609  82.7686310  74.1692543
  51.9953394  83.6994267  75.1671839  76.4808893  31.3418412  35.8638072
  76.4775419  30.5258870  35.3633666  77.2317982  31.8283415  35.5236816
  49.5277786  62.0430517  68.9754629  49.8193264  61.7497540  69.8387194
  48.9817905  61.3269281  68.6509705  31.9399881  71.7685117  74.5719917
  32.7659971  71.3081302  74.4237057  31.5903316  71.3807453  75.3742437
  81.1128616  38.9361596  71.9386339  80.7721519  38.8941026  72.8321552
  82.0086002  38.6059237  72.0080614  23.4440684  10.7718551  54.3826246
  23.5215211  11.4583898  53.7201262  24.3150616  10.3767276  54.4210434
  79.9237823   8.5844022  28.1871223  79.7894669   7.6873887  27.8812480
  80.7639408   8.8432831  27.8085160  64.5729780  37.8960228  23.5477972
  65.2545977  37.4603748  23.0360961  64.9993467  38.6782980  23.8977766
  32.4372482  72.0147038  14.0346587  31.7654562  72.3715019  14.6157098
  31.9467854  71.5309095  13.3701169  90.6819344  85.2968979  48.7707663
  90.8118248  84.6320438  49.4470263  91.5599060  85.4652405  48.4286213
  72.4757481  53.2054853  14.0761280  71.9895172  53.7820244  14.6655452
  72.1797705  52.3243952  14.3048429  20.8362985  83.6811638  70.2442837
  20.9375763  83.8095856  69.3011618  21.1384416  84.5026684  70.6316805
  66.0952187  49.4217062  25.2087569  65.3349686  49.5150661  24.6347094
  65.7836533  49.7080612  26.0673356  87.1302319  48.4125900  38.8961148
  87.5076962  48.4590387  39.7745204  86.6038132  47.6131725  38.9036012
  90.0421906  15.3244412  32.0969391  89.2683411  14.8401725  32.3847961
  90.3755188  15.7384205  32.8930235  81.3848400  27.6738024   0.4779845
  81.4068222  26.9989800  -0.2005157  82.2281170  27.5929570   0.9236120
  82.1559715  35.2404904  60.9346247  83.0143166  35.4762363  60.5826473
  81.8891525  36.0039496  61.4466524  82.5345230  28.3277154   5.3831005
  82.9854012  28.4367275   6.2203890  82.4463463  29.2173171   5.0409508
  49.5410824  78.0940485  12.3481417  49.9731493  78.4784794  13.1108737
  49.3888569  77.1815014  12.5937366  69.0168190  62.0750141  62.5699520
  68.7666368  61.4060307  61.9326878  68.2237911  62.2236872  63.0849695
  82.9395008  46.4711666  41.2517881  83.3788013  47.3215961  41.2548542
  82.1931934  46.5849781  41.8402624  86.8439579   5.3662306  72.6012135
  86.9564915   4.4326502  72.7800894  87.7256012   5.7319146  72.6734734
   0.1209885   0.4919816  23.7455964   0.0750527   1.4235395  23.9608216
   0.4439274   0.4699218  22.8447890  62.9086590  29.1027045  44.5892000
  63.6247873  28.6452341  45.0297832  62.7674866  28.6064029  43.7829828
  55.8474493  13.6057055   5.0182962  55.9434271  13.8981867   5.9246492
  56.2771797  12.7506876   4.9957573   9.5617127  63.2587051  42.8615379
   9.4000864  62.3875523  42.4993229   9.2044532  63.8599062  42.2079659
  56.1848116  57.6479149   4.2229521  55.7496357  56.7956018   4.2433864
  57.0561171  57.4806452   4.5822248  87.7318954   8.5004032   7.7032202
  88.4477329   7.8737837   7.5975454  86.9621849   7.9579842   7.8751385
  73.8043737  19.9152458  36.9319010  73.6316586  20.8531260  36.8495440
  74.6288586  19.8651052  37.4155760  45.6542540  18.3142400  46.8791437
  45.1949072  19.0638709  46.5006113  46.5208817  18.3344698  46.4732122
  63.2830286   6.9168407  21.2628961  64.0904140   6.7637622  21.7537379
  63.5096312   6.7056358  20.3572059  46.3136435  40.3023100  23.8815165
  46.2663651  39.3474126  23.9280581  45.4221869  40.5760145  23.6655998
  62.7205610   4.3989831  29.0438938  63.4873152   3.9885840  29.4437599
  62.0107841   4.2370334  29.6653557   0.2835220  38.2354307  26.2390375
   0.9949220  38.5295081  26.8079495   0.7202698  37.7409077  25.5455446
  70.7786703  13.2344842  38.2477736  70.7594490  13.1358242  37.2958660
  70.9258890  14.1697347  38.3887100  56.6019106  58.7749195  12.9146624
  55.9769773  59.1668320  13.5246563  57.3621321  58.5605860  13.4553635
  43.5905266  62.5775099  16.9628203  43.9688587  63.1453133  16.2914789
  44.0193844  61.7319918  16.8308806   8.3054501  16.6664362  34.8699188
   7.4908459  16.5279353  34.3867326   8.2915574  17.5950623  35.1016355
  56.9379997  46.2690496  11.7182648  57.4003363  47.0756197  11.4903963
  56.0598183  46.5582085  11.9660830  87.1150398  49.7067404  57.7662086
  87.7525425  50.2370882  58.2442808  87.1968651  48.8325214  58.1473589
  58.6395454  15.2881873  12.3859739  57.6965094  15.3972960  12.5084794
  58.8475657  14.4727755  12.8421116  65.3016663  30.0484347  23.8776135
  65.8262873  30.4988074  23.2156706  64.3955326  30.2001238  23.6090112
  79.0333652  29.2325401   6.1605972  79.3618155  29.7898674   6.8661022
  78.9261484  28.3718395   6.5654802  29.0070081  63.7146997  13.0798471
  28.7611818  63.8974476  12.1729815  29.8264408  64.1928434  13.2068837
  44.9547529   9.3288064  73.1924200  44.7173834  10.0475681  73.7783098
  45.6819248   9.6728379  72.6736736  90.5508804  76.6902447  56.2082529
  91.1409473  77.0215559  55.5312777  90.7299232  75.7505846  56.2430859
  71.1406088  32.7926302  42.7862835  72.0352554  33.0326557  43.0275774
  71.1681795  31.8417692  42.6797962   6.6975391  55.1555538  62.8851604
   7.1468151  54.4775200  62.3805285   6.6015840  55.8854342  62.2733593
   7.7519351  67.2993517  31.5494657   8.6888617  67.1659803  31.6930366
   7.6960242  68.1435013  31.1016679  62.4909639  30.3462243  28.9985204
  61.9156027  31.0416579  29.3172121  62.7867603  30.6539106  28.1417441
  85.8446121  42.1757603  15.2594030  86.3403511  41.4349890  15.6083095
  86.2711239  42.9467964  15.6333387  53.2830286  36.3043141  16.2734246
  52.5405598  36.9046688  16.3408494  52.9652405  35.4864597  16.6559958
  58.3863544  39.8440194   6.6294509  59.1818905  39.7726440   6.1019421
  57.7157497  40.1380301   6.0129452  18.1997573  79.1694832  66.7064905
  18.8329244  79.8449469  66.4634323  17.5518727  79.1838884  66.0020256
  80.1953506  46.0155964   2.1617185  80.8676720  46.5141010   1.6972807
  79.3823671  46.2228394   1.7009158  20.1984382  70.0212097  63.3598566
  20.0060439  69.7308445  64.2514324  19.3897748  69.8570204  62.8747416
  19.7847509  29.2033267  20.4079771  19.9343038  29.2063594  21.3534164
  20.6560755  29.3133903  20.0273037  74.2770004  42.5380945  55.9622002
  74.7601032  42.7676010  56.7560339  74.8115349  42.8848124  55.2478552
  54.7151852  50.2141619  12.4231255  54.6466064  49.5370293  11.7500544
  55.3253412  50.8545685  12.0573092  68.0282021  30.5459499   5.3973097
  68.2960272  30.6093287   4.4805300  68.0159426  31.4517832   5.7064217
   3.9101675  81.1301613  48.7906504   3.1823006  81.6023636  48.3863449
   3.6997306  80.2059650  48.6571455  53.1681442   1.9459197  63.5946655
  52.4936867   1.9966330  64.2719889  52.8690767   2.5480393  62.9133081
  90.3592014  31.1142421  13.6060119  90.3451252  32.0189595  13.2937288
  90.7923794  31.1617494  14.4582617  77.3990917  48.2010508  28.7864351
  76.5650797  48.1027222  28.3271050  77.2746277  47.7325869  29.6118331
  64.4268274  53.5315704   1.4898087  64.4516039  53.6546659   0.5408804
  64.7076321  52.6259756   1.6212645  66.1255169  57.1013975  10.8000088
  65.7398891  57.3868942   9.9717492  65.8146715  56.2030172  10.9118700
  87.7110481  53.6631536  34.8462582  86.7781830  53.4882832  34.9704027
  87.7969265  53.8527632  33.9119649  57.5879812  14.9705148  22.6670051
  57.0682955  14.2726660  22.2680449  58.4678125  14.8475802  22.3106170
  37.7895188  74.5449066   2.1936627  37.3458385  75.3112507   2.5571111
  38.4738135  74.9084425   1.6316894  43.1358576  37.1235514  27.5677419
  42.3446751  36.5882945  27.6290655  43.8091755  36.6073918  28.0109715
   1.0296021  32.5164461  28.0363703   0.7970452  31.6623378  27.6721597
   1.2661609  33.0453563  27.2744489  51.2522316  62.9730463  22.7896929
  50.7098532  63.7399864  22.9736853  50.6349516  62.2416735  22.7726197
  66.7631817  22.6923513   8.8294393  67.2424269  22.8738213   8.0209690
  67.2635508  21.9949317   9.2530769   9.5965230  82.9086113  72.3759651
   9.7610849  83.7549114  72.7918100   9.9480742  83.0042839  71.4908171
  85.2190781  25.9141350   8.6663646  84.5390987  25.2688909   8.4726870
  84.7547626  26.6271544   9.1048199  52.8256941  43.4676838   6.4438176
  52.8289700  44.3954134   6.2081426  53.4984970  43.0766058   5.8864766
  75.6957960  57.0220804  33.2435560  75.6288910  57.9069567  32.8847408
  76.5403223  56.6993523  32.9291391  70.3076696  67.5410986  62.3965979
  71.2338400  67.3699141  62.2259140  69.8959780  66.6772985  62.3721886
  67.5505877  73.4617615  56.4765692  67.5578213  72.7759218  55.8088827
  68.4748030  73.6132383  56.6743469  59.1041470  72.9826880  27.6691437
  59.5160246  72.1213722  27.7378535  58.4389162  72.9856539  28.3573937
   8.9926004   2.4469250  23.7021852   9.7856742   2.5316051  24.2314243
   8.8991117   1.5050024  23.5598016  73.9204168  74.3359423   2.1426323
  73.8563442  73.5566139   1.5905704  74.2724323  75.0116396   1.5631941
  59.3684483  74.7333431   8.1464666  59.3016148  73.8446045   8.4956193
  59.1721058  75.2993536   8.8929993  75.9677935  54.3594503  23.6207652
  76.5581703  53.6079979  23.5659337  75.7407379  54.4184399  24.5487714
  46.2790346  48.5345697  19.6371913  45.9316444  47.7896357  20.1277304
  45.8132219  48.5091639  18.8013661  78.9199305  54.1462851  26.9582939
  78.0872536  53.7176180  26.7605066  78.7435150  54.6601820  27.7463412
  14.7981310  73.1335258  59.1816902  13.9975584  73.6403513  59.0458918
  14.6455467  72.6591349  59.9989462  61.4992571  18.0583930   2.1271697
  60.9628439  18.8363922   2.2795126  61.4497423  17.5688052   2.9481965
  73.3662128  45.9796619   7.7005070  72.5093079  46.3781404   7.8526777
  73.3161402  45.6374931   6.8079561  30.4650116  69.2127800  51.5772629
  30.4933405  69.6788263  52.4128628  29.8747706  69.7334433  51.0325098
  61.5144539  16.0835981  53.6132765  61.3053703  16.9625568  53.2971334
  61.6517544  15.5692899  52.8177452  79.7473669  34.7496438   7.9760939
  80.6849194  34.7030163   7.7888489  79.3266058  34.4674492   7.1639645
  28.0753517  84.5387745  18.0388010  27.7604270  84.6275425  17.1392596
  28.7470388  83.8584709  17.9913795  52.7279472  51.8651581  19.5711124
  52.9851866  52.7868986  19.5498657  52.2786522  51.7226171  18.7380183
   6.6542977  13.1856120  25.2601671   6.9551736  12.3486495  24.9063301
   6.5429991  13.0234849  26.1969495   6.6079503  49.3670559  20.5784273
   7.2627646  49.5263767  19.8986697   7.0436090  49.6157360  21.3936520
  21.2071633  71.9961357  66.9132805  21.1949468  71.0413742  66.9804955
  22.0517182  72.2515774  67.2843695  38.7592435  33.0541205  21.7062545
  39.0808201  32.2614479  21.2767315  39.2982769  33.1356955  22.4930310
  34.5183448  59.7754554   0.5633555  33.9167739  60.3920857   0.9806214
  35.3893061  60.1210372   0.7588874  73.2840824  40.9537506  22.8941131
  73.6367941  41.7623425  23.2656026  73.5090303  40.9990406  21.9648242
  13.7251437  18.1170297   0.9915002  13.6287415  17.3490679   0.4283173
  12.9069471  18.6008692   0.8788654   8.8568258  85.4009342  61.3551283
   8.2488430  85.2555370  62.0800114   9.2918420  84.5568848  61.2344265
  36.1720252  86.6904736  25.0727487  36.4108658  85.9642506  24.4967461
  36.6365242  86.5106201  25.8901381  69.5961046  70.3681469  71.7110777
  70.2733898  70.3242540  72.3860502  69.9644995  70.9416485  71.0390568
  54.6044159  58.3324146   7.0316869  54.9756336  57.6697683   7.6142067
  53.7352657  58.5083008   7.3920763  81.5436649  69.1193151  45.2289724
  81.1415768  69.9226236  44.8984432  82.4770832  69.3239641  45.2844381
  86.1811447  25.3303432  35.4302621  85.2580452  25.3679681  35.6806469
  86.4790344  24.4755077  35.7413101  31.1023092  63.1656551  68.3141613
  31.9629502  62.7614307  68.4243250  31.1768150  64.0117407  68.7555408
  41.2732983  64.4019461  11.7038751  41.5618467  63.4972429  11.8242216
  42.0786572  64.9176598  11.7447734  73.0613565  66.8851328  36.7064214
  72.3133039  67.4813414  36.7407846  73.1822824  66.6001225  37.6121688
  83.3245087  54.0976715   4.1011214  82.6065254  54.2595196   3.4891337
  83.9990616  53.6721706   3.5718188  77.4141407  60.4762888  58.0204678
  77.0851469  61.1121082  57.3850775  77.6680088  59.7193670  57.4924040
  57.9664421  50.7644606   7.2275454  57.7507401  49.8383236   7.3369676
  58.4532928  50.9921980   8.0195957  83.7233256  47.3301954  -0.0064410
  84.2394970  47.8939549   0.5697308  82.8410052  47.7000658   0.0241910
  21.8602324  81.6612530  71.5082788  21.4941931  81.0886478  70.8342123
  21.7487788  82.5450993  71.1581039  12.2763431  25.8224726  18.5476637
  12.4484348  25.9351683  17.6128292  11.5376270  26.4041567  18.7270403
  36.2520409  83.5012627  25.7165980  35.4783607  84.0483856  25.8519030
  36.6213059  83.3878136  26.5923858  38.9329052  77.5967360  52.1306038
  38.7224889  77.9987144  52.9734373  39.8326612  77.2860622  52.2313881
  80.3765678  53.1141806  24.5908904  80.1191902  53.3883476  25.4711294
  79.9650764  53.7546539  24.0106320   6.3889730  39.5923376  34.4899130
   5.9724998  40.2147961  35.0860047   7.1763915  40.0430298  34.1848254
  85.2010441  65.2798176  55.9059477  84.6234417  64.7000074  55.4095411
  84.8374748  65.2793312  56.7914104  82.2558594  28.1842971  42.4944258
  82.6129627  27.6299024  41.8006229  81.6941643  27.5994849  43.0030680
  26.0825539  77.3254442  56.2432337  25.5343413  77.9042244  56.7730522
  26.8854833  77.8251362  56.0954475  42.5912046  12.5850523  14.0501022
  41.8791676  12.5454962  14.6885896  42.7186871  11.6765642  13.7769175
  79.8236465  19.1705275  42.1801758  80.1412487  19.8701525  42.7510452
  79.1293144  18.7465191  42.6845121  27.8161788  57.7627277  19.1415274
  27.4819946  56.9895363  19.5961988  28.1287313  57.4295235  18.3003879
  74.1602230  10.4405689  20.7112861  73.6092758  10.4897034  21.4924860
  74.9783421  10.0506675  21.0193205  62.8642273  46.5673208  26.6895795
  63.0454731  45.6285954  26.7361999  62.8331280  46.8509150  27.6032758
  40.3298950  15.8000553  61.4076567  40.3297138  16.1687636  62.2909975
  39.7209358  16.3524055  60.9174395  38.9600062  41.4005995   9.0359998
  39.1537046  41.2297535   9.9576962  39.7331190  41.0871172   8.5666823
  73.8222265  35.8704400  51.9580126  73.6620522  36.5177083  52.6447535
  73.0145168  35.3583121  51.9184732  83.1857109  42.4010897   7.6862895
  83.1017494  41.7762947   8.4065765  83.6565590  43.1428099   8.0662686
  56.5961695  69.3971395  29.0587091  57.0915508  69.2928696  28.2463288
  55.7102203  69.1100883  28.8375211  70.3466654  19.0060925   8.4450555
  70.2103949  19.4815958   7.6255691  70.9429359  19.5611048   8.9477068
  87.0814037  22.1968436  25.4246473  87.2578335  21.8417597  24.5534301
  87.4634933  21.5574169  26.0257888   5.2880228  81.7987442  65.7587051
   4.7128794  82.5574207  65.8579874   5.7652277  81.7499256  66.5870285
  62.8372192  12.7395344  13.6990690  62.6577091  13.5889328  13.2959163
  63.4852648  12.3333824  13.1234729  61.1772728  24.7990179  71.1218786
  61.6863441  25.1406908  70.3868055  61.8200350  24.6713805  71.8195868
  32.4114680  11.4823914  62.6446629  32.1887064  10.8065212  62.0044947
  31.5806127  11.9202065  62.8296709  30.5338001  14.3515611   6.8426001
  31.3260078  14.6061146   6.3694829  30.3034234  15.1248884   7.3574996
   3.7990439  57.7001715  33.7943196   4.4771534  58.3339834  34.0281701
   3.9067292  56.9898653  34.4268513  23.6730051  40.4652739  52.6412153
  23.3929753  41.2388325  53.1305218  24.6230912  40.5576944  52.5703001
  61.5322638  40.9833765  21.9528675  61.4535189  41.9013643  21.6933775
  61.3982630  40.9900427  22.9006171  82.7469254  48.0925465  53.4295750
  82.9858017  47.5854397  54.2054701  83.4456539  47.9117537  52.8008223
  69.9972010  37.0986128  35.9199214  70.8914232  37.2111726  36.2423038
  69.5514965  37.9105043  36.1616039  58.7286186   1.9011775  46.4634609
  58.6996555   2.3498213  47.3085117  58.4974289   0.9945704  46.6655636
  80.7411861  34.7945523  10.8630443  81.3018990  35.5626011  10.7538307
  80.0999546  34.8636079  10.1557302   8.5711908   8.1642139  15.5305696
   7.6597649   7.9447579  15.7238925   8.5589659   8.4569138  14.6193027
  23.9684248  47.1709251  10.1695693  23.6423111  47.1400023  11.0689723
  24.4910955  46.3744068  10.0767922  53.1341219  41.6470289  21.9999814
  54.0305376  41.5871096  22.3302555  52.6293850  41.9891500  22.7378368
  76.3810921  24.7542048  12.5992370  77.3342991  24.6687722  12.5812376
  76.0780525  23.9628053  13.0443048  26.6126347  34.5879865  20.0652409
  27.1526718  33.9400935  19.6126652  26.9921875  34.6457124  20.9420753
  27.2160459   1.7475969  60.2578878  27.1597743   2.7005875  60.1880741
  27.2319245   1.4415318  59.3510818  39.8106050  34.0700173  14.7658753
  40.7383204  33.9618754  14.9753630  39.4513011  33.1836796  14.8051131
   4.9031457  47.6758575  34.0762377   5.4816592  48.0663061  34.7312999
   5.0175142  48.2229471  33.2991600   8.0662179  74.9014044  67.5782871
   7.7755690  74.9832726  68.4866142   8.5079026  74.0529060  67.5436926
   8.6002213  63.4657621  37.7668643   7.7018172  63.4164810  37.4402547
   9.0744710  63.9502859  37.0911741  55.4837942  21.4340353   6.9720244
  54.7754717  22.0106316   6.6855824  55.9946680  21.9667768   7.5814724
  11.7081153  45.9671354   7.3469800  11.1417115  45.4368258   7.9075092
  12.1799123  45.3293800   6.8113428  61.3174629  75.7483768  63.3700800
  61.4378548  74.9471903  63.8798237  61.3316536  75.4566956  62.4585152
  65.2928209  56.8675423  15.2617514  64.9326801  57.0297813  16.1336505
  65.4495859  57.7402592  14.9011672  56.6271544  15.4827213  27.8993583
  56.4847374  15.7736838  26.9986415  57.4903059  15.8271313  28.1286693
  71.0772705  42.2738504  10.9894776  70.8070707  41.5181732  11.5111840
  70.4172182  42.9416561  11.1754823   8.8977933  80.2479839  53.9462948
   9.6327084  79.8432493  54.4070816   9.2850155  80.9914494  53.4841919
  59.9998569  22.1550035   9.0586120  60.0295496  21.8731451   8.1443328
  59.0662289  22.2304344   9.2557943  66.0218859  72.9136419  28.7360168
  65.6152153  72.4403477  28.0101800  65.5812025  72.5789261  29.5170379
  84.6191311  38.5611200  34.2993784  84.0752125  39.3074751  34.0477133
  85.5171204  38.8601875  34.1564965  26.5118933  66.3766479  44.1445065
  26.8895555  67.2516012  44.2342854  26.8154526  65.9040642  44.9195814
  70.3614330  20.3692889  73.5110378  70.6376505  20.7319069  72.6693439
  71.1665106  20.0284076  73.9007616  56.2593174   1.2307614  42.5696516
  55.5776501   1.6202754  42.0220757  57.0761967   1.5999720  42.2340536
   1.5848413  45.4748106   2.4106725   1.1668897  46.3149166   2.2215271
   2.3062330  45.4197025   1.7839436  31.8188240  11.8640180  74.5456077
  31.5710403  12.7885195  74.5573790  31.0032894  11.3952061  74.7226763
  50.0136518   8.8303107  71.7763948  50.3574324   9.5589614  71.2595654
  50.4945230   8.0651063  71.4610291  34.0568328  28.6693573  27.0678067
  34.3136477  27.7696347  26.8658710  33.1231165  28.7042928  26.8600011
  20.1937151  40.6908369  12.6083541  19.6810079  40.8676958  13.3970761
  20.2310276  41.5321159  12.1532869   7.1107841  57.4007463  50.2358007
   7.2897571  57.5622082  49.3094492   6.1971235  57.1161413  50.2571630
  21.1669135  69.2624617  28.1061792  21.1339808  68.4814072  28.6585355
  21.7718554  69.0318727  27.4011207  86.5857601  13.5298049  24.6099806
  86.7860222  13.9898145  25.4251599  85.6946945  13.8039291  24.3929577
  89.3369007  77.9095268  67.7789927  89.3807888  78.3143425  66.9127178
  89.9662876  78.4021235  68.3057261  28.8379025   7.1283251   7.6499164
  28.2220745   6.5691894   7.1762568  29.0570831   7.8230006   7.0289350
  66.9362926  22.8075433  25.8638120  67.6275253  22.1948934  25.6126380
  66.1872768  22.2501564  26.0748243  17.3162019  60.6029034  62.4728823
  17.5819373  60.4760647  63.3836651  16.3788676  60.4089737  62.4676371
   2.6098216  51.6154337  22.9173326   2.8435376  51.3428116  22.0300412
   3.0717012  52.4444008  23.0426741  21.8596315  44.8329735  31.5592432
  21.1489677  44.5167589  32.1170926  22.4112058  45.3516054  32.1449208
  89.0404987  84.8893929   3.8353762  89.8565006  84.5047760   3.5153061
  89.0291882  85.7711983   3.4631997  64.7609663  17.2376060  74.3934345
  64.3028879  17.8219914  73.7893724  65.6720209  17.5298202  74.3647814
  56.7502880  53.1852436   6.6340613  57.5326347  53.7130117   6.4739811
  57.0865726  52.3081303   6.8179524  79.9243784  64.5296812  19.7228920
  80.0750542  64.9359846  20.5763817  79.8633671  65.2661133  19.1144705
  52.6664448   9.1151661  67.3254585  53.3598614   8.6326182  67.7755165
  52.4707413   8.5871381  66.5514326   6.9367570  54.6192217  36.0035825
   6.4263791  53.8358927  35.7983065   7.7428377  54.5194149  35.4971194
  70.4408312  58.3094931  17.1872890  70.7690334  59.1843557  17.3949790
  70.1214838  58.3807898  16.2877524  88.8400555  66.0345030  17.2142673
  88.1690216  66.7160654  17.1765697  88.8161564  65.7246780  18.1196237
  90.3989220  33.1791234  26.2111402  90.5061531  34.1301823  26.2259984
  89.6694374  33.0109978  26.8076539  48.7752724  59.5157290  32.4340177
  49.7148085  59.4092655  32.2851396  48.4513140  59.9292278  31.6338301
  82.0600510   6.7371017  57.1109819  82.9865742   6.8908483  57.2957945
  81.9335461   7.0743239  56.2241316  77.7637100  64.6949100   1.1141022
  78.4944248  65.1365376   1.5468368  77.4150658  64.1011286   1.7790082
  47.8577709  39.0729475  11.8471193  48.1266737  38.2781982  12.3078775
  48.4051371  39.7634292  12.2210968  91.3152646  86.2281022  18.1979549
  90.7185125  85.5357008  17.9138780  91.7521786  85.8663257  18.9689636
  54.0728569  74.7483110  19.5981562  54.6252775  74.6323109  20.3712082
  54.6125126  74.4408512  18.8698208  76.8184233  52.4592638   6.6297805
  76.0644817  51.9365501   6.9028628  76.7283344  53.2804251   7.1133202
  17.5027275  12.3648393  73.2578087  17.2181451  12.0793402  74.1259861
  18.3450651  12.7930164  73.4106541  66.5018368  36.1913753  22.1868443
  65.8266401  35.5390763  22.0001698  66.8869400  36.3885689  21.3330054
  59.5489073  13.5030293  37.3538089  59.2603445  12.5959432  37.2530198
  59.5632219  13.6460674  38.3001542  51.6642523  15.9847248  44.4944000
  52.4823523  15.4886436  44.5235348  51.9388485  16.8918478  44.3604040
  88.0445671  57.1224070  22.7061105  87.1917439  57.5077438  22.9071999
  88.4703064  57.7655220  22.1392059  65.2877522  26.7386508  52.2937965
  65.1455688  25.8217788  52.0585012  65.4184246  27.1833587  51.4563084
  16.1193836  56.5557814  19.0010369  16.5188634  56.6765022  19.8624754
  15.8122468  55.6492043  19.0043759  72.5120497  31.9365740  23.4091997
  73.2660913  32.4921083  23.6067796  72.5761127  31.2145829  24.0343857
  50.6970119  38.7548018  32.4485779  51.2471485  39.5221972  32.6056957
  50.1840019  38.6595201  33.2510591  67.3304272  79.5814705  14.1048026
  66.6053343  79.0866661  13.7231731  67.0926857  80.4985523  13.9681923
  11.2417305  76.2972593  22.6817179  10.9536886  76.1425829  21.7820835
  11.5546596  77.2018623  22.6808333  71.8344116  52.6056671  24.5568633
  72.0657730  52.2189617  25.4013515  71.6438007  51.8552828  23.9939928
  47.6580334  42.4163914   8.3777738  48.5201788  42.2278214   8.0071259
  47.0404720  42.0339584   7.7544016  59.6301222  51.2669182   9.2473388
  59.9547529  50.4346943   9.5912069  59.8013020  51.8980074   9.9463797
  35.3287888  16.8521452  70.1262712  35.2661610  17.6632464  70.6306744
  35.9413695  17.0562267  69.4196415  76.4176083  40.0384998  40.0453234
  76.9370508  40.8386183  40.1242352  75.6354427  40.2079582  40.5704212
  45.7348490  69.1771173  18.2821488  45.0920916  69.8861933  18.2645607
  46.0328817  69.1464996  19.1912544  56.3869762   1.5616016  61.4342642
  56.1975193   1.5346047  62.3721409  57.1285820   2.1618257  61.3569069
  16.3946104  83.2843304  42.3912430  17.1098614  82.6707363  42.2234631
  15.8146524  82.8174305  42.9928112  46.3890648  85.9600830  14.8437512
  47.1713972  85.8207893  14.3101013  45.6648493  85.9343243  14.2183840
  88.6274910  45.1438427  19.8641384  88.8372135  45.3091526  20.7833338
  89.2244720  45.7113075  19.3764615   8.0871612  79.3820381  12.4000609
   8.7632245  78.9215326  12.8971565   8.0622536  78.9318609  11.5556943
  84.4646263  10.4824769  46.4575911  85.0454807  11.0781085  46.9309521
  84.6478748   9.6209931  46.8324232  24.6692419  25.9142137  11.3994002
  25.0295186  26.7403150  11.0769260  24.0379524  25.6506610  10.7298899
   8.0504346  70.5887890  41.1273003   8.1863183  70.6461573  42.0730639
   7.1081454  70.7121229  41.0127926  21.9350529  13.6508298  68.6986971
  21.8266845  13.1577671  69.5119476  21.7251086  13.0224478  68.0078363
   0.0897619  73.4316111   6.2636298   0.8557479  72.9672241   6.6010380
  -0.2980898  72.8263378   5.6316078   1.8751949  60.9895611  61.1346817
   1.1009450  60.5422878  60.7930422   1.5574922  61.4664412  61.9014168
  48.2232904  20.2194619  23.8504219  48.2362509  20.0004721  24.7821450
  49.0371990  20.7022381  23.7065077  62.9237890  36.0116053  28.3852530
  62.2868395  35.3190923  28.5611868  63.5953426  35.5889750  27.8498721
   8.9627731  11.6708910  75.0317907   9.1047722  12.6138759  75.1145363
   8.9307761  11.5154159  74.0878439  32.2497058  27.4207497  54.5961237
  32.0512319  28.3568954  54.6177626  33.0070353  27.3230696  55.1733065
  81.9679737  42.3894644  38.1707168  82.4703217  41.9997120  38.8862395
  81.7147160  43.2525015  38.4982204  73.9660692  10.3694654  66.0941792
  74.0707588  11.2561762  65.7491922  73.5675430   9.8784149  65.3756571
   6.7365879  69.0054464  69.2510509   7.2117144  68.1865263  69.1101217
   5.9334433  68.7421131  69.7003222  90.3072453   0.0859644  26.8342853
  90.1735973   0.9993479  27.0874643  90.7337856   0.1345201  25.9787512
  58.1136370  53.9200544  29.0110254  58.3658695  54.5673084  28.3524871
  58.5819626  53.1248474  28.7569571  65.4934406  33.1952620   7.2550023
  66.2833548  33.2984877   6.7243284  65.7705307  33.4200978   8.1432039
  45.3453016  39.8009491  70.7903051  44.9008703  39.8162508  69.9426746
  45.8371496  40.6216574  70.8177090  71.7491674  47.6669312  57.0217848
  71.2247229  48.4659195  56.9687366  71.3445139  47.1611738  57.7265501
  73.9980030  50.6119347   3.2918140  73.1889486  51.1137819   3.3908534
  74.6927738  51.2697983   3.3190167  82.9702187  53.4498692  38.8893533
  82.6626015  54.2413521  39.3311262  83.9045429  53.6023426  38.7478113
  13.7372589  66.2699986  44.6978617  14.5226514  66.1280012  44.1694450
  13.3313024  67.0496035  44.3188477  67.2128057  48.5461140  16.3608766
  67.0980120  49.3064260  16.9309497  68.0198336  48.1346035  16.6700625
  25.9417510  49.3704462  61.1140919  25.7147574  49.3772268  60.1842213
  25.4750395  48.6138678  61.4690590  59.8703861  37.1322775  16.4768791
  60.0801134  37.6579237  17.2488499  60.6895447  36.6867709  16.2607014
  46.0636139  33.5538673   5.1594788  46.7015696  33.1213713   5.7270986
  46.0600376  34.4647408   5.4536396  20.4751325  35.7295632  54.6572876
  20.1571679  35.6229496  55.5538130  19.7275114  36.0881615  54.1790581
   0.4582182  60.6297731  50.7721901  -0.4254831  60.3152752  50.5814171
   0.4066100  61.5777636  50.6501865  17.3799467  68.1769609  45.5205727
  17.4228740  67.2447681  45.7336569  17.2755039  68.6115694  46.3670015
  87.3936081  32.0242143  61.8720627  87.9565430  32.5823283  61.3355446
  87.7088642  31.1358094  61.7059755  80.1919270  27.4363923   3.9416799
  79.7177362  28.2110000   3.6394188  80.7084084  27.7468038   4.6854028
  46.6880274  12.4514711  68.1081438  46.2420273  12.3760796  67.2645664
  47.5976467  12.6452243  67.8816843  17.1644008  53.4685087  72.3433065
  17.9898846  53.3644819  71.8700314  17.2178018  54.3431044  72.7286196
  44.9770832   3.0309561  48.4845400  45.0497437   2.6387501  47.6144075
  44.1764355   3.5540795  48.4453630  14.6601617  71.5966368  61.5550518
  13.8573599  71.7001915  62.0659494  14.4344831  70.9547424  60.8818007
  79.9132681  49.1648674  18.5117340  80.4931927  49.8746586  18.2358420
  80.0197315  49.1242981  19.4621289  35.6302834  20.9948802  37.4044132
  34.8549914  20.9894848  37.9657698  35.6111360  21.8515372  36.9777966
  39.8891115  61.2192678  57.5196838  40.6262445  61.3079739  58.1238317
  39.1990066  61.7608213  57.9027033   9.3289441  43.6345959   3.1540486
  10.2193713  43.6643553   3.5040280   8.9205855  42.8931618   3.6009753
  81.1748314  61.3568497  63.6049795  80.9723568  61.5113735  62.6822901
  81.5279102  60.4674149  63.6270142  64.7458839  38.7848020  16.3996553
  63.9126205  39.1939282  16.1661613  64.6123552  38.4608507  17.2904181
  19.2875075  63.3399200  50.5450726  19.6488822  64.2248583  50.5952644
  18.5714757  63.4090662  49.9136066  69.4066525  76.1760807  57.2517443
  69.8924208  75.3839254  57.0220804  69.5903063  76.7854118  56.5367460
  26.9933224  13.4295094  47.1883726  27.1024537  13.7794769  46.3041496
  27.7288938  13.7921691  47.6819754  30.6841922   7.7251434  38.5853958
  30.0743866   8.1620067  39.1799688  30.7687521   8.3259761  37.8450704
  19.6366811   9.7009724  56.2319088  19.0967715  10.2004659  56.8444729
  20.4832625  10.1475954  56.2396336  48.5017395  63.8150930  73.0365229
  48.6007452  63.0359650  72.4893570  47.6240015  64.1393852  72.8349352
  75.0816870  70.6411266  64.4432497  74.3191051  71.0582447  64.8441362
  75.8127069  70.8803940  65.0129795  27.6001167  47.7041531  71.9984484
  28.0283022  48.2179451  72.6832199  27.5627255  48.2933140  71.2449741
  11.5565670   1.4416240  73.9374256  12.3848748   1.0335629  74.1896629
  10.8895898   0.9380608  74.4041157  80.4439640  78.9613199  37.0973063
  81.2845898  79.2451286  37.4565220  79.8075056  79.1752243  37.7795053
  90.9391175  39.4622850  63.7347937  90.6176985  40.1147747  64.3570328
  91.8547335  39.7005343  63.5894823  66.0413742  39.0733194  14.0218544
  66.8347788  39.5207262  14.3160760  65.6055784  38.8023496  14.8298693
   1.2629218  68.0737591  59.2451811   0.6014992  68.0198574  59.9349976
   0.8126695  68.4970188  58.5141850  45.3075457  66.1235094  50.8099031
  44.4062185  66.4129591  50.6682587  45.8387852  66.9004869  50.6357718
   1.7935197  72.8121614  59.4424534   2.3138580  72.7297163  58.6432791
   2.4410355  72.8667259  60.1452923  60.9522104  12.3958004  28.7305689
  61.5924644  11.7325270  28.9881992  60.3647375  12.4666131  29.4829607
  39.5838356   8.7604815  23.1910133  38.7290502   8.3302873  23.1685710
  39.5932412   9.3153989  22.4111366   1.5638593  39.7335267  48.2166910
   0.9555686  38.9944720  48.2133675   2.1457276  39.5614910  48.9570045
  84.3490337  85.9942203   5.1068717  83.5863732  86.1346152   5.6680059
  84.4098162  86.7919323   4.5813310  26.7555785  36.5728498  52.5977945
  27.5243115  36.0167694  52.7245092  26.1082697  35.9974098  52.1902514
  36.0694909  64.3275213  52.6524401  35.2210474  63.9382362  52.8641748
  35.8620715  65.2226973  52.3843431  16.7318547  51.1378956  16.6630292
  15.8814621  50.8034563  16.9480121  16.5595198  51.5335655  15.8086419
  65.0325632  21.3220835  72.6842260  65.7188797  21.2860060  73.3504868
  65.0758648  20.4704428  72.2494125   8.4379971  64.0581417  40.4715014
   8.8328606  63.8810205  39.6177197   7.7274311  63.4208632  40.5436039
  62.8847980  32.5877428  51.1164713  61.9877625  32.4976301  50.7948542
  63.3030128  31.7554307  50.8960581   8.9183885  71.5970564  28.9767551
   8.0558252  71.7858362  29.3463182   9.4753015  72.3085308  29.2927980
  63.9142990  37.7617145   1.9881284  63.3889151  36.9626260   2.0288841
  63.9930248  37.9491496   1.0527667  38.4114313  37.2179127  72.5637722
  37.9850912  37.0032549  71.7340803  39.0933037  36.5533066  72.6616526
   8.6189473  70.6848478   3.1290415   8.4205168  69.7799635   2.8881240
   8.4787804  70.7169914   4.0753776  87.3113632  75.2748966  63.6714077
  88.2591057  75.3151989  63.5433626  86.9818211  74.8389530  62.8855419
  26.3585639  11.0277057  47.9367208  26.1317611  11.0451841  48.8665009
  26.5356302  11.9421601  47.7161455  23.2481194  26.7043018  40.3348303
  22.9970431  25.8235574  40.0564718  24.1440988  26.8102384  40.0150967
  22.8833628  25.9895587  60.1497793  22.7530122  26.9357443  60.2128267
  23.7006927  25.8284426  60.6212091  13.1062901  83.0616379  31.3155723
  13.5096216  83.6224365  30.6529522  13.8276136  82.8209877  31.8969584
  25.9707665  76.3620567  53.4439230  25.8741713  76.6191626  54.3608713
  26.2985873  77.1485949  53.0078888  64.6146250  13.6269355  68.3931398
  65.5657816  13.7209630  68.4450006  64.3009758  13.8831699  69.2604351
  69.8253918  55.9990597  66.3564587  69.8564672  56.6500711  67.0574951
  70.6442022  55.5114412  66.4459562  87.0887089  46.0716820  45.2750444
  86.4361572  45.7863188  44.6355391  86.6845989  46.8218279  45.7111692
   6.8271554  38.6181283  71.2035513   6.0952926  39.2350197  71.1961508
   7.5968635  39.1616726  71.3719034  31.6703129  69.8590422  57.6787806
  30.7645249  69.5696259  57.5691509  31.7439294  70.6325483  57.1197701
  79.7319221  25.5957031  23.6827064  80.4199600  26.2168050  23.4438014
  80.1297569  24.7351432  23.5507989   2.8939337  11.7958343  35.4735088
   1.9824380  12.0211411  35.6596375   3.3992457  12.5240898  35.8348036
  21.1883497  73.4204054  58.0144930  22.1091127  73.6819839  58.0134058
  20.9360528  73.4282112  57.0911741  27.2046208  76.9789362  49.9672842
  26.6291285  77.3421860  50.6404018  27.8575325  77.6623678  49.8160887
  27.3097587  32.0216155  72.5670242  27.7414584  31.1689377  72.6200056
  27.9784489  32.6069403  72.2113895  79.7011805  45.7757759  45.2749348
  79.0677071  45.0586557  45.2488899  79.5667839  46.1831188  46.1306429
  76.6844939   1.3986284  74.2782831  76.2644623   0.5898172  74.5708990
  75.9703062   2.0337183  74.2250633  27.2488403  76.0290432   5.3352153
  28.1911898  76.0511780   5.5017012  26.8607688  75.8138514   6.1833453
  72.5840521  60.7108402  50.8313990  73.3110571  60.1102114  50.9955454
  72.4222088  61.1279106  51.6776228  50.2708292  45.0858068  73.0312157
  50.9620905  45.1597452  72.3732519  50.6161261  45.5489016  73.7944651
  74.7405529  32.8730083  16.6416168  74.6485519  31.9254637  16.5419793
  74.0855026  33.1095099  17.2982812  70.8199883  85.5981731  43.6102104
  71.6196156  85.6549644  44.1332769  70.4410887  86.4760017  43.6558247
  21.7279148  84.7411442  67.5191879  22.5633955  85.1427555  67.2806263
  21.2397647  84.6973991  66.6969824  29.5430684  85.0047112  55.4402637
  30.3279138  85.1828384  55.9584522  28.9541650  84.5533085  56.0449600
  19.2962575   9.2960346  45.3256130  20.1734805   8.9959925  45.5637026
  19.4375730   9.8853403  44.5846796  34.3186855  13.0028677   4.4483912
  33.5174155  13.3273602   4.0374151  34.0692782  12.1597624   4.8268113
  41.8912458  23.7696362   7.5562775  41.5696001  24.5064378   7.0367599
  41.1432791  23.1755257   7.6180601  35.2608657   6.7206830  31.2429309
  36.2167358   6.7360824  31.1948848  35.0358605   5.7903093  31.2399697
  19.7064710  58.7144136  49.6214533  19.3613672  58.1857967  48.9019346
  19.1450429  59.4894552  49.6399546  23.5820222  67.7608013  55.6382322
  24.2090392  68.4570646  55.4425383  24.1097736  67.0677900  56.0350323
  73.4223795  19.1114855  57.8785133  72.6814413  19.2399096  57.2862673
  74.1164255  18.7597060  57.3210382  80.7508945  18.9879274   1.6097943
  80.5188274  18.0665851   1.7260091  80.6598377  19.1410685   0.6693220
  19.9207008  65.5943966  57.2113514  19.0032589  65.7372332  56.9786978
  19.9083960  65.4519129  58.1578064   5.3557479  60.3894472  56.8544245
   6.0541421  60.2794647  57.4996996   5.1482570  59.4987440  56.5718889
  65.8567667   7.5768232  46.0599279  65.8220530   6.8431830  45.4460907
  64.9903965   7.9795343  46.0011005  80.6535244  82.6342678  60.6602526
  80.7974720  83.0527401  61.5090084  81.4592075  82.8012657  60.1711559
  82.3095989  71.0237885  10.9061408  82.7973270  70.2112389  11.0407150
  82.9162121  71.5912962  10.4305577  31.9441319  50.3547144  54.2343760
  32.7659416  50.7925129  54.4561768  31.2865305  51.0495567  54.2657566
   7.1892333  37.9087377  65.4034042   7.7819788  38.4298444  65.9450054
   7.6926482  37.1249247  65.1833057  12.7438557  71.5500307  53.1992340
  12.9898345  70.6249952  53.1930733  11.7868471  71.5435123  53.1812334
  35.6676984  12.1857452  47.0263910  34.8251486  12.0640707  46.5887451
  35.9903002  13.0242217  46.6960621  91.0787940  13.0165386  47.6412725
  90.4134730  13.4841204  47.1363497  90.5871679  12.3610365  48.1361008
  34.8410964  76.6235113  38.4636617  34.2341089  76.8315125  37.7533555
  35.2736759  77.4544859  38.6601043  65.5274963   6.2700433  61.6970396
  64.7182798   6.2728447  61.1857748  66.1115742   6.8629646  61.2242460
   4.0914401   5.9217662  60.4452658   3.6279407   5.0848001  60.4750586
   4.9842700   5.7109743  60.7184935  39.1590762  25.2561855  53.9134979
  39.1801643  24.7482824  53.1024361  38.5886335  24.7542596  54.4956493
  74.0090990  42.9193449  59.1238594  73.2917881  42.2856903  59.1372919
  73.5798407  43.7691784  59.2225981  24.1009736  31.7091346  28.6115026
  24.0417838  31.8092418  29.5616102  24.9636555  32.0579839  28.3871889
  33.2411599  33.4887886   7.4733680  32.7711034  32.7666450   7.8902435
  33.1765771  34.2098141   8.0996138  28.0081367  55.9321785  57.7445841
  28.8358641  55.8952618  58.2238913  27.9811311  56.8172550  57.3810720
  20.6225586  51.4121962  35.6526184  19.9321055  52.0710945  35.7258201
  21.3702250  51.7969036  36.1100292   3.9167714  81.4525986  57.5192022
   3.2985699  80.9304142  58.0304575   4.0963528  82.2161579  58.0677986
  13.4227396   0.7156736  35.4522705  12.7956987   0.6886274  36.1749887
  12.9013420   0.5145151  34.6751523  75.9212780  30.8576512   7.7089792
  75.4629946  31.0601115   8.5245901  76.8228626  31.1389780   7.8646410
  19.4011068   8.9947671  21.5888953  19.7672343   8.1926388  21.9614172
  18.6883819   9.2309791  22.1825767  86.7353249  73.7077045  49.2112446
  86.0519123  74.3360662  48.9781284  86.3115788  72.8529787  49.1330481
  69.1682434   5.3419095  64.3042850  69.4355106   4.4599727  64.0454626
  69.5611715   5.4674476  65.1680422  42.2492218  67.6992130  57.8780842
  41.8145752  68.5003567  58.1704521  42.8228283  67.4587250  58.6056662
   8.8538229  79.5260859  27.7604795   8.4909314  80.2198410  28.3111620
   8.6949867  79.8236132  26.8646646  29.2395544  59.3147564  73.8008404
  28.4817100  59.8275518  74.0818119  29.9135923  59.5065641  74.4528437
   4.7806194  34.1858625  41.8362713   5.1683974  34.6931052  42.5494051
   4.0221477  34.7007942  41.5609550  42.5492907  11.0239100  67.6182079
  43.0732536  11.8247783  67.6008368  42.8387213  10.5653965  68.4070206
   2.6219863  72.5132370   3.6761424   2.4982417  73.3293247   3.1914508
   1.9175740  72.5104189   4.3242374  26.5061593   5.7455665  72.7590322
  26.0725498   6.2370485  73.4566402  27.2507954   6.2921882  72.5081253
  17.0308483  66.0017681  56.6259956  17.1709716  66.7026091  55.9892702
  16.0948670  65.8097124  56.5686798  13.8850880  72.8314352  55.4706573
  14.6118534  72.6919937  56.0777855  14.0843081  72.2657490  54.7246408
  28.4061909   2.1571761  45.5222702  28.0710316   2.5712273  46.3175488
  28.6485219   1.2727267  45.7965994  36.4773202  83.6651611  46.8164539
  35.5391073  83.6595631  46.6268301  36.8838525  83.9695358  46.0050869
  12.7502954  67.3306942  64.4620180  13.2096338  66.9291449  65.1995850
  13.4355295  67.4960279  63.8144493  88.3050251  58.3710957  68.8081503
  89.1606045  58.7566042  68.6194563  88.4359646  57.4298191  68.6937428
  24.9182463  17.2741413  51.3785648  25.0023985  16.3587749  51.1116314
  25.6911826  17.4380982  51.9188643  50.6485415  68.9965630  30.6268430
  50.8697176  68.1936312  31.0986567  51.1887360  68.9668894  29.8371983
  17.4835563  84.9634933  63.8172865  17.1345472  84.1242695  63.5170889
  17.3180282  85.5651474  63.0914450  65.8803654  56.7651367  26.5557790
  66.5157461  57.4810457  26.5545368  66.3395214  56.0366631  26.1377740
  28.8924170  17.9241061  26.4705229  29.2900395  18.5556448  27.0699263
  28.0861783  18.3479536  26.1763000  65.2513409  36.9360256  64.8394632
  64.9034548  37.2847104  64.0187168  65.9206915  37.5673699  65.1033020
  89.5829391   2.0456845  55.2704000  90.0693703   1.3746133  55.7492256
  89.5284367   1.7095147  54.3758297  57.9103899  14.0110803  53.5155010
  57.8313875  13.1343627  53.1395292  58.8315058  14.0821743  53.7659454
  60.7953930   4.8859110  73.9400816  60.6192827   5.8153516  74.0862179
  60.6058741   4.7492859  73.0118322  81.1932945  77.9351759  64.9244356
  81.0715771  78.7995481  65.3172159  81.9637680  77.5778198  65.3659153
  49.0312576  14.4514084  62.3445082  49.7913027  14.0157962  61.9587612
  49.2749071  15.3766048  62.3741150  83.6904621  58.4996653  72.7010632
  84.6379852  58.4864187  72.8361845  83.4246826  59.3835402  72.9547548
  53.6535406  68.8736343  29.1387844  53.6361217  68.3013439  28.3717012
  53.8334417  68.2855701  29.8723006  44.2530155  41.1662531   1.2510608
  44.4731855  41.4448261   2.1399671  43.3010149  41.2528467   1.2018056
  59.2493439  12.0958972  69.7785997  59.2816544  12.4322975  70.6741571
  60.1671696  11.9783282  69.5336485  80.4596806  21.3192201  43.4883165
  81.1297417  20.7281518  43.8316631  80.5980015  22.1392417  43.9623070
  40.2597189  60.7731342  68.8995171  40.5785227  60.0313759  68.3853292
  40.9704208  61.4132643  68.8626003  68.7190914  13.5694063  51.4008617
  69.2983150  13.4388018  50.6500816  68.4508896  12.6858234  51.6530132
  88.2538414  68.0686617  49.4297123  88.8943863  68.6830807  49.7880650
  87.6835537  67.8587294  50.1692629  60.1718664  14.6031821  59.1416216
  59.7115183  13.8222730  58.8342285  60.6809378  14.8944426  58.3851528
  13.7746871  18.6809182  37.0236588  14.2777419  18.5640085  37.8295732
  14.2908418  18.2347524  36.3522768  22.6007056  79.7198248  61.7452478
  22.0912719  79.0171671  61.3415384  23.3892727  79.2866516  62.0719862
  57.3632002  76.1337137  35.3353429  56.4616251  76.4015198  35.1573682
  57.2809076  75.2716923  35.7432365  85.8699036  76.5356112  54.4171429
  86.2667656  75.7050323  54.6795750  86.1524296  77.1582794  55.0869799
  10.1844513  72.9951191  46.1822653   9.9269783  72.0774841  46.2710524
  10.9920847  73.0675650  46.6909027  20.4939294  84.5895195  44.8574162
  20.7528281  84.6186924  43.9363575  19.8203731  85.2647877  44.9383879
  37.7333617   3.3602163  43.6426783  38.3256936   3.9604709  44.0955257
  36.9125509   3.4194398  44.1315508  68.0058384  84.1681767  43.8595247
  68.6570120  84.7957134  43.5458088  67.6056194  83.8198566  43.0628300
  22.8881574  28.2228398  32.8473663  22.0204878  27.9214072  32.5780702
  22.8357124  28.2821584  33.8012838  23.5866880  49.5505047  21.6920185
  24.4529390  49.9577236  21.6884041  23.6444211  48.8706589  22.3633671
  12.3789752  16.3823998   8.2599151  13.3026540  16.5390360   8.4561688
  12.0744944  15.8209717   8.9728814  16.9949007  15.7425129  42.3570108
  16.2339199  16.2955582  42.5338793  17.2756302  15.4382443  43.2200575
  19.7120118  61.7352152  39.7678852  20.5705142  62.1571302  39.7333622
  19.8093724  61.0476303  40.4266548  88.0769920  17.8760040  34.5769906
  87.6481724  18.3396411  35.2962852  87.5683117  18.1137335  33.8017702
  83.4109879  46.6769028  31.5379715  84.0710449  46.0044718  31.3694596
  82.8189182  46.6247034  30.7876682  22.5985432  53.6296225  28.5093379
  22.1018100  54.4396400  28.3937335  23.4959650  53.9201450  28.6720204
   4.4977209  11.5498304  64.2027283   5.2520049  12.1384645  64.2309761
   4.2563096  11.5141189  63.2771587  90.5391788   2.3189224  45.4779148
  90.3448486   2.9478592  46.1728287  89.7102070   1.8646473  45.3273344
  13.4529245  74.8168945  41.8751717  13.8962662  74.8097706  41.0268641
  13.7069535  75.6504822  42.2711897  67.5220728  37.8345394  45.3018045
  67.8286886  37.5019026  46.1453533  68.2916498  38.2520485  44.9149323
  62.1228313   4.9955153  14.4945073  62.5165701   5.4678357  13.7609458
  62.8413773   4.4800007  14.8607945   2.9915926  58.8296700   6.0340393
   2.1138433  58.9459085   5.6703407   3.0820149  59.5372438   6.6723132
  39.1007328  45.0825930  68.7216520  39.1750431  45.6086683  67.9254389
  38.5327697  44.3528461  68.4744310  49.7323370   6.6056830   5.0666881
  49.7451448   5.9403229   5.7547027  50.4830027   6.3917786   4.5126331
  78.2363224  45.7237768  37.1736550  78.4200811  44.9421024  36.6526508
  79.0463877  46.2323427  37.1363878   9.9837816  58.8848591  69.3674135
   9.1083276  59.1767550  69.1132307   9.9394846  57.9296255  69.3249702
  13.6313486  36.9686007   8.2475680  13.6305010  37.9225230   8.1684268
  13.8502431  36.8045616   9.1648507  71.1209774  39.9492455  53.0699778
  71.3837004  39.9355054  52.1496391  71.8976831  39.6541047  53.5452127
  14.6706355  44.2658424  18.7360060  15.2570021  43.7762070  18.1592357
  13.9419866  43.6673832  18.9007723  75.5532789  62.2261667  18.8843191
  75.2542591  61.4007902  18.5027862  76.2875652  61.9782352  19.4460917
  17.6727939  44.9224997  48.3746815  17.2262573  45.0840998  47.5435877
  17.9176784  43.9978361  48.3391666  85.0743961  14.8385262  46.9569969
  84.8636723  15.7497454  46.7532635  85.5117798  14.5122457  46.1705685
  85.6619549  51.1558723  48.6619902  86.2885857  51.7882538  48.3103323
  84.9559879  51.1336422  48.0159616  66.5314150  53.3044624  36.4189744
  66.7515087  54.1651344  36.0625553  67.1827841  53.1553364  37.1043301
   4.2346770   8.9412469  19.6888351   4.6362287   8.6898887  20.5205846
   3.3440214   9.2029220  19.9222684  83.0921364  56.2572527  19.9228525
  83.0774498  55.3299475  19.6859443  83.8847065  56.5978956  19.5080888
  10.0569296  38.4663439  18.0915654   9.6457589  39.3306327  18.0781972
   9.4046652  37.8847408  17.7010274  56.4237118  10.4043424  49.0798712
  55.5449677  10.1902807  49.3932676  56.8915558   9.5693219  49.0897799
  46.8594790  85.1943493  36.9913888  47.5659561  84.6270561  37.3000956
  46.1171532  84.6039295  36.8625808   7.9396945  31.8431139  50.5141115
   7.8011072  31.0498047  51.0314941   8.1551003  32.5157952  51.1601257
  71.4222717  32.8864479  58.6112547  72.2505617  32.4086189  58.5682440
  71.2637472  33.0071783  59.5474815  15.7570744  61.4796019  45.6633854
  15.6668997  62.3703766  46.0019398  15.8967209  61.5936518  44.7233200
  28.6308169  65.9445572  65.3618193  29.3553162  66.0749626  64.7499943
  28.7964678  65.0852156  65.7495308   0.1300338  53.9821005  26.4008546
   0.5482533  53.1385326  26.5732598   0.6882824  54.6211672  26.8437815
  19.1309619   7.3321581  10.2147150  18.9092815   7.8447479   9.4373214
  20.0596523   7.5107765  10.3625774  76.7355108  61.6557264  53.6499166
  77.4436045  61.6845465  54.2933464  76.5149593  60.7270670  53.5779238
  86.9001675  73.1819630  43.6165953  87.0939159  74.1088486  43.7565231
  86.7754555  73.1034708  42.6708078  32.8290200  58.1610394  48.7425947
  33.6047363  58.3264351  48.2067394  33.0468273  58.5285616  49.5991707
  12.8383172  18.5076892  12.6595771  13.2973158  18.6995292  11.8418062
  12.2536790  17.7818298  12.4415028  12.9076517  19.6335196  44.7267723
  12.4635148  20.0064182  45.4882956  12.3881805  19.9278700  43.9786148
  19.6562088  68.5671282  37.9297638  19.6280897  67.7852297  38.4811926
  18.9723468  68.4235716  37.2755790  66.9612646  12.9987824  18.6656225
  66.2158680  12.4063671  18.7639117  66.6023064  13.8674653  18.8466454
  66.1257744  26.9730282   1.9904724  66.9441414  26.5469742   2.2453913
  65.4403067  26.4026141   2.3383176  16.1088467  35.1152158  56.3849306
  15.8461642  34.4265676  55.7741976  16.6777921  35.6875825  55.8702183
  69.2184925  84.2204380  58.1817341  69.2762852  85.1519108  58.3944750
  69.9869490  83.8312912  58.5991907  30.4035544  47.7117252  61.9031811
  30.6168914  48.5001469  61.4040709  31.0883808  47.0860815  61.6669321
  68.2570219  71.7724562  48.3492565  68.3969355  71.8230295  49.2948246
  68.8257217  72.4515009  47.9863310  76.8778276  20.4842782  22.1404004
  76.2000799  21.0472822  21.7663479  76.8239212  20.6387615  23.0835128
  82.8359509  48.8857126  33.3417249  83.2571507  48.2121611  32.8077364
  83.4526348  49.6177483  33.3341384  19.1620898  53.9328337  41.5560770
  19.5223391  53.6975050  40.7010508  18.3346713  53.4543085  41.6072989
  38.3844995  86.5433979   4.1951594  37.8213954  85.7819176   4.3340996
  38.4156823  86.6478920   3.2441917  27.3714161  56.1357784  65.5416155
  27.5466132  56.6158962  64.7322798  28.0795217  55.4941463  65.5975389
  82.9854298  57.5032949  33.2392240  82.9750061  56.5976143  33.5488343
  83.4827232  57.9783154  33.9050245  89.0947174  85.5446255  38.8843489
  88.5099482  86.2237516  38.5481000  89.9438833  85.7427351  38.4895086
  85.6102276  17.4411428  43.0715942  86.4567852  17.0038438  43.1629753
  84.9661350  16.7421424  43.1846094  86.7351151   7.4628723  57.2001886
  87.2783279   7.5536531  56.4173079  87.1352577   8.0527359  57.8390789
  11.0850847  39.7853065  26.8578529  11.1063731  40.6954765  26.5622711
  11.5785027  39.7882485  27.6780748   8.1157500  52.5179434  56.4194965
   8.9211237  53.0351925  56.4272165   8.2933521  51.7893028  57.0142841
  56.1608696  76.3816547  63.2681227  57.1082115  76.5036631  63.3304596
  56.0564613  75.5289650  62.8459263   5.4626375  53.2793808  43.9892006
   6.4104128  53.2460499  44.1189861   5.1399887  53.8124180  44.7158432
  -0.1552031  57.7210331  27.8381562  -0.4067252  58.5642862  28.2148433
   0.7254198  57.5603914  28.1771636  59.2140627  27.1801472  46.1229515
  59.2456198  27.0017290  47.0628452  59.9605274  26.7010999  45.7630348
  18.2075167  32.1918130  42.1871996  18.2564950  31.6086602  42.9446745
  17.7516973  32.9683781  42.5118589  27.3072577  51.6269159  33.6753416
  28.1026602  51.4602232  33.1695938  27.3958993  51.0727024  34.4507289
   7.4725860  78.1459999  74.4350910   7.9456538  78.6806297  75.0727510
   6.9716823  77.5269318  74.9662066  57.4414825  40.8106661  12.7875221
  58.1830502  40.8008862  13.3926785  56.9315290  41.5783691  13.0459929
   6.8414563  11.1263347  40.9433174   7.0838255  11.5152633  41.7836905
   6.3540184  11.8155706  40.4921103  20.6610560  39.9649572  47.8546906
  20.5376863  39.7716451  46.9253635  20.7850218  40.9135246  47.8876114
  23.3117986  46.4665747  33.2319474  24.2001772  46.3927603  33.5806131
  22.7466416  46.2060404  33.9592385  15.5457735  28.7064123  71.5606594
  16.3732934  28.3457303  71.2423038  15.8016944  29.3266106  72.2433662
  81.1625290  15.3846443  59.7300243  81.0210514  14.5994532  60.2588844
  81.9238663  15.1750672  59.1890335  85.4687691  11.1471224  41.7890167
  84.8413467  11.8303132  41.5527582  85.1279354  10.7807136  42.6049900
  23.2200408  40.4201889  12.0440519  23.8345242  41.1482620  12.1365201
  22.4277616  40.7171297  12.4916601  29.1523385  30.2847481  37.1581316
  28.9699268  29.6522784  36.4631939  29.6192193  30.9954619  36.7186546
  90.8494473  34.5762229  37.2793698  90.2495670  33.9309835  36.9051433
  90.3791046  35.4072547  37.2130871   2.8757271  13.9086545  12.4086964
   2.5451976  14.2941916  11.5973127   2.6356071  14.5384717  13.0883324
   1.0412262  54.0931273  30.7045746   0.1202525  54.1476917  30.9596443
   1.0399678  53.5478401  29.9178743  12.7620196  36.0115695  15.4881382
  12.7137804  35.5214262  16.3089073  12.4749577  36.8949246  15.7194614
  54.8780012  18.2541144  41.0298538  55.3534889  18.1226957  41.8501425
  54.2404509  17.5405478  41.0056067  25.8684492  48.2760048  34.2781949
  25.5956531  48.8370800  33.5522437  26.6477036  48.7044716  34.6323299
  73.5354996  39.6759558  55.1644421  73.7894106  40.5723619  55.3840303
  74.2818594  39.3283939  54.6762037  69.4553566  63.8195324  37.5562477
  70.0442553  63.5346651  36.8574810  69.6501160  64.7498798  37.6692033
  82.0918369  12.0046389   9.4442648  81.5350246  11.2879920   9.7485805
  82.9626179  11.6148901   9.3663412  48.1738186   2.5892916  28.6401725
  48.3753014   3.4851426  28.3698249  47.5919056   2.6915210  29.3932676
  79.3830776  25.8324003  27.0664239  79.6595955  24.9353075  26.8793511
  79.6367216  26.3284540  26.2880731  90.8171749  75.0191641  46.7652655
  91.7191410  75.2613354  46.5554094  90.3095913  75.8117056  46.5907145
  32.0103812  36.7002583  55.8884430  32.2563982  36.6440892  56.8117809
  32.8060269  36.9961596  55.4461575  52.8437376  80.7129669  59.2147064
  52.4143314  81.4842129  58.8445377  52.4110174  79.9715519  58.7912846
   0.3210433  30.8433366  25.8845401   0.6152026  30.7209229  24.9819231
  -0.0537412  31.7240262  25.8969569  89.8116302  82.2957611  52.9957390
  89.2234898  82.3159027  53.7506676  90.3821182  83.0548668  53.1162548
   9.5678306  66.9985533  50.7534647   9.0670919  66.8710089  51.5592098
   8.9050585  67.1671534  50.0837326  15.6133258  43.9630032  53.3433485
  16.0719728  44.7200727  52.9790354  14.9407005  44.3404579  53.9102173
  90.7596207  66.5074825  45.1843834  90.1920223  67.2118139  45.4974031
  91.3290024  66.3102818  45.9281254  32.3412395  33.8641381  43.9864540
  33.2203126  33.8857555  44.3646002  31.9339633  34.6789742  44.2803860
  14.7230852  21.7482495  35.3886819  13.9416909  21.1982584  35.4449415
  14.3840480  22.6423454  35.3453350  31.6392088  55.5649805  48.5252142
  31.7821646  56.4895821  48.3229589  30.9331918  55.5675650  49.1715574
  44.8196554   4.4137245  45.4426956  44.9723625   5.3528428  45.5474234
  43.8667250   4.3275681  45.4156733  13.4256613  33.4957647  40.8362389
  13.2788336  33.2610583  39.9199486  14.3770790  33.5633326  40.9166765
   4.8566860  81.6601086  39.1112852   5.0873286  81.6979027  40.0395155
   5.6081754  81.2382221  38.6947489  61.8760347  14.1151023   5.4373574
  62.3845243  13.4513021   4.9714845  61.8100214  13.7818551   6.3322431
  91.5658665  80.9224510  35.0302505  90.7352448  81.3345432  35.2679276
  91.7023277  80.2539635  35.7016158  10.7446444  45.0023031  32.5319934
  11.3487399  44.3167782  32.2467637  10.4692101  44.7298336  33.4072804
  70.5645800  73.7720156  56.2297392  70.8240461  72.9213142  56.5835953
  71.3229465  74.0619183  55.7227278   0.7931219  84.0472794  36.0129285
   0.6264973  84.3635654  35.1249933   1.0665952  83.1374931  35.8957338
  36.7751002   5.8799511  49.4859743  36.5660334   5.0331277  49.0917492
  36.8640947   5.6935966  50.4206324  85.0439072  19.2686331  44.9141788
  85.6262684  18.6657977  44.4519234  85.5337143  20.0899506  44.9561119
  71.7183447  56.4105368  30.4843640  72.4842787  56.7147446  30.9712338
  71.6584349  55.4777336  30.6905699   1.7629175  49.5585346  45.4489326
   2.2179389  48.8185501  45.8509398   2.4631658  50.1058388  45.0934839
  72.7118778  16.5149438  52.4003172  72.8155088  15.6185055  52.0811129
  71.7682409  16.6725338  52.3696184  20.6348228  34.2214870  42.7702808
  21.0667014  33.3683586  42.7268648  21.0142040  34.6430254  43.5413885
  67.4076176  66.6031265  71.7166424  66.7814875  67.2007513  71.3079357
  66.9435883  66.2536192  72.4773979  89.2597961   0.5446631  12.4421740
  90.0563812   1.0054024  12.7056217  89.2925549   0.5374235  11.4855623
  57.7830172   8.0327642  49.1679096  57.9913807   7.8219551  48.2577562
  58.4401608   7.5609249  49.6795321  78.3561754  79.5959330  12.1797967
  77.9131031  78.7481451  12.1455777  77.6631832  80.2197933  12.3961186
  72.2349262  77.7366686  63.8937616  71.3951349  77.3188257  64.0845156
  72.0023155  78.5414410  63.4306622  12.9880190  32.8603554  72.1973896
  13.0235481  33.4472513  71.4420605  12.0583987  32.8132629  72.4205971
  28.6341548  64.2011023  49.5013952  28.4668422  65.0647640  49.8786497
  29.0938210  64.3827581  48.6816740  13.5859025  37.0626855  25.4325175
  13.8669312  36.3676739  24.8373580  13.6133111  37.8585029  24.9013352
   2.1298032  55.6366491  48.4639883   2.1471618  55.7270384  47.5112200
   1.2446932  55.3289747  48.6593008  29.5386887  58.8330126  60.4482698
  28.6467195  59.1792774  60.4213190  29.8791194  59.1139746  61.2976217
  88.4788799  31.5134120  31.3638258  89.2156601  31.6050959  30.7596850
  88.8290215  31.0009599  32.0925450  15.6335580  54.0448380  63.8636589
  16.2843466  53.4388304  63.5094595  15.4316759  53.6983490  64.7328091
  42.7156258  13.2845473  11.2595105  42.5454283  13.8651752  12.0012224
  42.2705555  12.4682939  11.4872646  86.3110828  10.6006324   6.1805224
  86.9541168  10.0825012   6.6645545  86.7180443  11.4621031   6.0883999
  11.7661178  70.8507967  44.0683556  12.2312117  71.2458706  43.3309031
  12.3694742  70.9377623  44.8063469   9.4820213  57.8472614  51.5509224
  10.0725842  57.2674036  51.0700607   8.6203533  57.6826477  51.1679602
  58.9588881  24.5813394   5.2636904  59.8199224  24.1877127   5.1225871
  58.4240198  24.2528296   4.5410353  28.1264353  63.5323811   2.5798860
  28.9233637  63.6885738   2.0731898  27.4137330  63.7343264   1.9736651
  52.2717285  77.3316956  50.5371571  51.6656017  77.0639515  51.2279224
  52.4367332  78.2587051  50.7093668  84.9602509  72.6611137  45.6621504
  85.7758904  72.8400373  45.1942444  84.2899036  73.1259251  45.1613331
  53.4345579  71.1892223  38.3754468  53.2425880  71.7192125  37.6018262
  53.4462833  71.8163347  39.0985084   5.1855832  36.2669492   5.0588316
   4.7508904  36.3187313   5.9100616   4.8317003  37.0058560   4.5638394
  59.3117523  43.1189251  72.1730328  59.5628071  42.3425770  71.6725445
  59.7981930  43.0423784  72.9938555  46.2945461  55.2513313  68.2493782
  46.3635540  54.6053028  67.5464392  45.5710459  54.9382067  68.7922716
   3.4491897  33.4113383  18.0666125   3.4434238  33.7933969  18.9442396
   2.5440383  33.4897423  17.7653050  15.5070972  63.6277580  31.1451459
  15.3727043  63.0924034  30.3631186  16.4392447  63.8447618  31.1295629
  81.5255451  51.0623169  17.7953339  81.2248898  51.9704390  17.7613950
  82.1995354  51.0584021  18.4750116  14.6144164   9.1648340  67.6965189
  14.8030078   9.2548078  66.7624044  15.0112820   9.9385679  68.0965996
  23.8560724   1.7659649  39.3200493  24.6980810   1.4896426  39.6818519
  23.3728528   2.1080120  40.0722027  53.5251093  67.4052429  65.0414562
  53.1548548  67.7890062  64.2465591  54.0232849  66.6485357  64.7325039
  26.9029999  73.8997078   3.9968479  27.7750444  73.5075474   4.0413904
  27.0020723  74.7526646   4.4197968  69.2038822  69.0640497  60.3092337
  69.4653749  68.5069561  61.0423756  69.6681976  68.7009811  59.5550251
  40.3480434  84.8695755   5.2142966  39.7270751  84.3281460   4.7269768
  39.7983861  85.4358006   5.7560492   8.4453213  55.7073355   1.3559215
   8.0371761  55.1111937   0.7280186   7.8514266  56.4569807   1.3953547
  43.7617016  77.4205637   1.6421244  43.5041571  76.5704107   1.2855510
  43.5316944  78.0475283   0.9563801  72.4169540  30.0728941  25.4471111
  73.2464266  30.0515914  25.9243464  71.8464184  29.4763541  25.9317327
   9.7355700  60.3479862   0.4669863   8.8799471  60.2559042   0.0478671
  10.0066972  59.4500351   0.6577840  14.1267836  74.7196054  24.1137123
  13.8892829  73.8042736  23.9653897  13.3924687  75.2185869  23.7558961
  33.9876533  66.4542389  24.3828797  33.9218330  67.0865011  25.0985193
  33.6879039  66.9342327  23.6108780  23.1438255  27.7762866  14.4422770
  22.5783610  27.7061462  15.2114069  23.0029035  26.9580507  13.9659739
  71.7257071  77.1465588  48.2936001  72.5222969  77.6772785  48.2899284
  71.7084360  76.7465210  49.1630220   6.7609274   6.8259346  33.6996222
   6.3630247   7.5460637  33.2104206   7.5370669   6.5909535  33.1910729
   0.2612093  83.1811810  50.7899046   0.7413175  83.3061409  51.6085100
  -0.5148814  82.6805305  51.0414314  21.4804578  71.5864468  52.9752159
  21.6264892  70.7470798  52.5389004  20.9253716  72.0777845  52.3696566
   8.9600456  63.6742020  15.6251967   8.8121003  63.8447237  14.6949995
   9.2954463  64.5017529  15.9700191  22.7651548  33.3542728  51.0675430
  22.0357251  33.8789582  51.3975000  22.7295136  32.5460482  51.5791416
  69.4325876  72.3552227  42.4455547  69.2598581  72.7062607  41.5719604
  68.5679054  72.1286345  42.7879095  33.6753559  85.6852245  40.5791569
  33.4035683  85.2040577  39.7975993  33.4647989  85.0994778  41.3063383
  16.6022575  14.0880871  21.2612915  16.6500819  13.4297681  20.5680680
  16.0973632  14.8046207  20.8767223  20.0803804  53.5951710  38.8625598
  20.8488345  54.1101313  38.6165404  19.5540774  53.5538912  38.0641031
  49.1258192  84.4425678  34.0140128  49.6830320  85.1129723  34.4093680
  49.3198347  84.4913578  33.0779529  11.7374814  38.4965134   4.4402125
  11.1399555  37.7813816   4.2216289  12.5997686  38.1783152   4.1729257
  83.0996799  50.6843615  37.0055294  83.8468838  50.1864147  36.6739130
  83.0900955  50.5043411  37.9455972   6.1263293  57.3552990  43.4165287
   5.8628386  57.2854710  44.3340969   6.2473673  58.2938814  43.2728529
  17.9974854  62.2261286  34.2716336  17.5239122  61.3946342  34.2475581
  17.3275256  62.8883410  34.1017461  13.4645617  85.3159237  66.0965967
  13.9933467  84.5185852  66.1262608  13.7200391  85.8020496  66.8805885
  23.9552450  43.1717491  20.9487319  24.6386313  42.6123381  20.5795813
  23.8552094  42.8647423  21.8498278   7.8997332  14.5690525   3.3540463
   8.3950686  13.8429558   3.7330702   8.0057913  15.2844620   3.9810809
  35.9172201  69.2517138  50.3750515  35.2031255  69.2948341  49.7390938
  35.5997610  69.7532225  51.1260176  44.4844627  21.2489700  36.6364837
  44.1523695  21.8610311  37.2932386  43.7021208  20.8146620  36.2965560
  11.9392395  79.3987417  30.6819367  12.8352702  79.2977142  30.3607631
  11.3893056  79.1986370  29.9244666  30.4867482  15.3822994  19.8340464
  29.5466232  15.4169238  19.6574223  30.6332445  16.0671365  20.4865575
  83.0506706  42.9401684   3.1883615  83.7469387  43.3423042   2.6690060
  82.3062134  42.8852320   2.5892046  17.2571576  34.6038795  72.1214581
  16.7551339  34.6764493  71.3097095  16.6174412  34.3190813  72.7740526
  70.0183630  31.2369823  52.5535154  70.7899332  30.7538533  52.8493214
  69.9058485  31.9301081  53.2040167  84.9549580  61.0063314  26.8250632
  85.5179405  60.9787607  27.5987029  85.4882240  60.6259203  26.1271024
  71.6493130  52.9959011  38.4837365  72.3304605  53.5494709  38.8656116
  72.0068645  52.1092463  38.5309267   3.2131621  64.1894007  71.0566711
   3.7956586  63.5103941  71.3970900   3.6987340  65.0051165  71.1793756
  23.2572317  57.7515268  31.0537815  24.0765858  57.2682714  30.9472346
  23.4669590  58.4431505  31.6813970  44.6094322  71.6065741   7.8011125
  43.9276886  71.2467051   8.3685195  44.5202398  71.1202812   6.9814789
  86.9626617  35.1425314  30.3773880  86.2812519  35.6864595  29.9823451
  86.5381432  34.7391391  31.1345506  22.0893455  69.1685152  51.5362358
  22.0887089  68.7699366  50.6659698  22.2367835  68.4363317  52.1349001
  82.7089691  67.1816397  20.1344490  82.6258659  66.6203880  20.9053731
  82.5624752  66.5938330  19.3933344  13.0689728  51.1007881  29.9593353
  12.8910816  52.0396948  29.9041772  13.4133494  50.9737921  30.8433652
  25.6568599  75.7026196  45.8454657  25.4910755  75.7946062  44.9072313
  24.8186755  75.4184484  46.2100649  82.6591206  24.7565365  66.1464882
  82.8441334  24.7068810  67.0843267  83.4373093  25.1677728  65.7702875
  14.9433017  48.4208632  14.9017394  15.4412675  47.8547382  15.4914570
  15.3824437  49.2695904  14.9569285   7.4675119  52.2631884  33.4038520
   6.9957441  51.5360594  33.8099885   7.7381355  52.8134346  34.1388535
  88.5492134  28.4818721   6.8789166  89.3153381  28.9998293   6.6319072
  88.8649273  27.9033113   7.5730544  85.5724621  55.6938362  35.9385133
  84.8590755  56.3246632  35.8417130  86.2650108  56.0259295  35.3672671
  32.8780127   5.5237186  48.6574984  32.8015924   4.9629140  49.4294357
  32.5895715   4.9715212  47.9307842  37.3977566  14.6106815  33.8520741
  37.6238394  14.4230556  32.9410791  36.8340921  15.3828728  33.8048124
  31.5515661  57.2712040  52.6941586  32.2859764  57.5511837  52.1478224
  31.4119577  57.9995298  53.2993698  13.2171488  71.9205236  41.6646433
  13.3105135  72.8305578  41.9463491  13.5265470  71.9172525  40.7588339
  88.6675930  71.7804480  14.4099247  88.3559513  72.6840019  14.3579340
  88.4282303  71.4948893  15.2916241   4.3252328  59.9673939  67.3276615
   4.1895977  60.4637480  68.1347990   4.3081406  59.0511703  67.6041889
  77.8383970  29.4207692   3.8003042  77.2638559  28.6562681   3.8411963
  78.2254124  29.4765329   4.6739978  73.0529213  75.6235456  58.5884666
  73.5817719  74.8397446  58.7374783  72.8748083  75.9626389  59.4656897
  24.6920705  67.4622202  37.8681850  24.5332646  66.5785980  37.5361896
  23.9141154  67.9576778  37.6121807  88.4863472  20.3879380  31.9865751
  87.6250076  20.5411506  32.3749733  89.1031170  20.5485153  32.7007461
   8.3702934  36.9477677  25.1457524   9.2711663  37.2712731  25.1481462
   8.4289503  36.0729027  25.5296826  19.1390336  49.2473984  13.1743515
  19.9660611  49.0234280  13.6010778  18.4885585  48.6949062  13.6077833
  62.4904966   9.4120032  37.6164317  63.1384516   9.3642157  36.9135094
  62.4460554   8.5205531  37.9622269  18.0425549  12.3168790  41.6188526
  17.1298122  12.0625365  41.4830446  18.4472239  12.2267270  40.7560968
  57.7662420   9.8264641  12.8792584  58.3045006   9.2187029  13.3863449
  56.8783665   9.6947742  13.2117677  10.8451533  61.0112047  11.4018118
  11.6628397  61.4998484  11.4958799  10.7184124  60.5904102  12.2521663
  71.2717295  47.4422407  52.5300360  71.4722824  46.5089750  52.4591208
  70.4926634  47.4783087  53.0849981  47.2516394  13.1751370  18.3445299
  47.8268623  13.6968124  18.9041793  47.8086138  12.9046118  17.6145792
  13.2872081  82.3018360  27.7414918  12.8309715  81.4711857  27.8760123
  14.0720439  82.0666122  27.2465801  19.1816688  82.5895786  67.2750521
  19.3609619  83.0298042  66.4442158  18.6110055  83.1948662  67.7485561
   0.8539241  62.8289700  56.9578457   0.1557096  62.3596764  57.4144506
   0.6832685  63.7522984  57.1437836  81.8016052  83.2592487  30.8775711
  81.7422009  82.6757336  31.6340256  80.8916950  83.4256077  30.6313658
  30.1406217  55.7368517  50.8320427  30.7352924  56.3057375  51.3208818
  29.2867780  55.8737183  51.2424707  20.3231883  70.9425354  24.2980385
  19.6667373  71.6258192  24.1622877  20.0853491  70.5449152  25.1356316
  57.2474384  20.7023072  35.6022263  57.3827553  21.2418914  34.8232722
  56.3059998  20.7525253  35.7677889  79.8726320  34.1056371  41.9249296
  79.9411011  34.0699410  42.8790092  80.3087807  34.9228954  41.6839075
  91.0010433  33.5583282  53.2752132  91.3265038  34.4300103  53.4998846
  91.6812515  32.9611230  53.5864925  31.2608027  76.1263657  39.2310214
  31.2468696  76.1982536  38.2766271  30.9284663  76.9693232  39.5395827
  13.4740245  57.9976559  30.5250621  13.5597813  57.1807289  30.0336289
  12.5904357  57.9649734  30.8917165  77.2118473  84.5111179  64.9961042
  76.5029764  85.0870609  64.7097158  77.9014254  85.1071548  65.2884388
   0.7660297  54.3038940   1.3394170   1.5907779  54.2133760   0.8621024
   0.6889520  55.2428865   1.5084842  81.2187290  42.0909643  11.2302852
  81.6283226  42.9560328  11.2194622  80.3041077  42.2561407  11.0013092
  16.3942420  62.5463724  20.6243706  16.9683731  63.3113194  20.6625605
  15.5200112  62.8940105  20.8007193  29.9327087   5.6788033  45.3713799
  30.4226494   4.9054250  45.6508017  30.5002546   6.1020327  44.7271729
  34.4261789  64.9910641  56.6878748  35.3367138  64.8598671  56.9523525
  33.9125896  64.6122265  57.4012756   2.8861776  85.0331497  40.1709986
   3.7426129  85.1585293  40.5796909   3.0725986  84.9880791  39.2332077
  59.1486692  78.9463425  58.0229998  59.6360826  79.2401934  57.2533798
  58.9745283  79.7477579  58.5165930  12.2767138  28.1635404  38.2265306
  11.7876863  27.3570204  38.0634046  12.3743033  28.1961489  39.1781831
  34.0449500  72.8772640  30.5106068  33.6718249  71.9963264  30.4797196
  33.2983065  73.4473085  30.6944728  69.7152424  16.4254189  51.9781923
  69.9601078  15.5130124  51.8239594  68.9767694  16.5781605  51.3886547
   7.8513420  57.7093649  47.4489927   7.4969804  57.0156097  46.8927860
   7.1760470  58.3877420  47.4452782  87.0225620  77.6730061  69.7565603
  87.7046204  77.6811457  69.0850306  87.4199104  78.1149817  70.5068970
  50.3929377  75.5247450  10.3181064  49.4415760  75.5240774  10.4236543
  50.6920671  74.7784281  10.8374977  31.6847730  72.2887897  51.7682219
  32.5559592  72.3256302  52.1630716  31.8450427  72.0440435  50.8568239
  22.9648781  82.6773071  39.4757819  23.7173152  82.8345871  38.9054012
  22.5599647  81.8841362  39.1248512   2.7362341  50.0609350  51.8380022
   3.6583015  50.3018665  51.9273138   2.4803968  50.4056358  50.9824562
  89.0522480  78.3889246  57.7633715  89.4608402  78.0668020  56.9599295
  88.1179523  78.4262991  57.5585938  76.7638111  80.6167793  69.5553637
  76.5529537  79.9541187  70.2131271  77.4284458  81.1651039  69.9722862
  23.3770394  29.5836663  21.7979074  22.5141525  29.7843575  22.1603727
  23.9458966  30.2748108  22.1369529  30.2868700  50.7387304  72.7401829
  30.9373856  50.9044456  73.4225321  30.0646138  51.6073895  72.4051189
  11.2561035  50.3266287  43.1820059  11.1510623  49.4019413  42.9580641
  11.1472166  50.3567410  44.1325140   4.1392472  45.7986164  43.4612656
   4.4895011  46.6548204  43.2153559   4.9051511  45.2250957  43.4875631
  27.7884340   9.4002342  60.3965712  26.8982959   9.3940926  60.0446463
  28.2439709  10.0681710  59.8841476  47.5443983   1.2190518  41.4297962
  46.8446684   1.5050417  42.0170069  47.4795246   1.8057936  40.6763029
  59.6332836  34.7239137  25.6414461  59.8811197  34.6023536  24.7249126
  60.3767061  34.3818593  26.1379814  40.0168753   9.3103778  70.0655746
  40.0832558   9.9189347  70.8014297  39.8477507   8.4604788  70.4721451
   8.1219620  80.3281879  35.3564572   8.6262548  79.5263481  35.4942060
   7.2985291  80.1758862  35.8201313  83.5089493  73.4312296  37.0371342
  82.6057816  73.1149483  37.0592284  83.5197258  74.1679955  37.6481128
  25.3947854  23.3966279  38.6240864  25.7932544  23.4453034  39.4930434
  26.1306000  23.2430744  38.0314374  88.4572792  24.4473338   6.8185627
  89.0947056  24.9454856   6.3069284  88.2131767  23.7163615   6.2508279
  19.4167054  58.3096123  52.3234272  19.5079482  58.4526825  51.3813877
  19.9005735  57.5008631  52.4908352  80.3683567  44.0537357  15.0901389
  80.6402874  44.0443182  16.0078526  81.0026169  43.4905148  14.6466017
  25.7814527  56.5246344  31.3128090  25.3410864  56.0032606  31.9839835
  25.7669044  55.9713316  30.5318642  89.8868275  45.7241440  32.9024959
  90.6102753  45.5075455  32.3143291  90.3113842  46.0761356  33.6848569
  48.0273771   2.7956948  38.2751465  47.2804785   2.2118521  38.1428504
  48.7930727   2.2482112  38.1013513  31.8380952  65.9353924  50.6772566
  30.9252310  66.2073898  50.7717371  31.8115735  64.9807978  50.7426071
  12.3723090  38.6428380  40.0701189  12.5998330  37.7907896  40.4422426
  12.5150836  38.5391498  39.1293240  14.8329365  55.3687239  32.7219367
  14.4846451  54.9053574  31.9602156  15.1793098  54.6768188  33.2854319
  85.9013844  40.0781631  31.3275433  86.4530373  39.6040106  31.9497108
  85.4315376  40.7175636  31.8629360  40.1752377  67.8592539  61.2568665
  41.0032177  67.4240255  61.0537529  40.1337290  68.5931683  60.6437731
   6.0375446  37.6912999  41.5622616   5.4868037  38.3983588  41.8983936
   5.9296221  37.7346635  40.6121540  81.1222839  75.0763512  35.6272745
  80.3283215  75.6025696  35.7218671  81.1214733  74.5018196  36.3928771
  19.1556084  68.9369535  58.1019926  19.4867241  69.6468496  58.6521196
  19.7648931  68.9012432  57.3646116  24.6803188  58.6226463  61.8607378
  24.3649411  57.9253721  62.4356985  24.0276074  58.6706972  61.1622429
  83.8092804  79.2288065  44.2059851  83.4143829  79.8086023  43.5547400
  83.7460327  78.3556175  43.8189840  10.8892035  25.5219030  44.2775297
  11.7712438  25.8917642  44.2395735  10.3284919  26.2006807  43.9019012
  28.6555719  71.7961407  37.4737644  28.4531426  71.2461329  36.7169642
  28.0601454  72.5413895  37.3943496  21.0044932  63.9011621  32.1686149
  21.8971133  64.2378330  32.2468209  21.1049891  62.9494333  32.1871829
   3.4696549  73.8965368  38.7754083   3.2316184  73.2983351  38.0670857
   4.3974757  74.0820456  38.6306095  33.8244748  20.7744980  48.2022905
  33.0260801  20.3089404  48.4513998  33.5645461  21.6951442  48.1694794
  91.2637474  78.7640667  41.1820316  91.3678067  79.5470572  41.7227030
  91.4328169  78.0359364  41.7799282  44.3253660  86.4126873  31.6101384
  43.5826445  86.4824200  32.2099185  43.9576435  86.0206127  30.8181214
  50.2468681   1.8070680  36.1684728  50.4851532   1.2693077  36.9236302
  50.3527308   2.7082610  36.4732289  29.0397120  66.6808176  50.2767372
  29.0550351  67.3928165  50.9163094  29.0580320  67.1215248  49.4272232
  30.9935212  53.4699774  62.3548174  30.5730104  53.9693260  63.0548573
  30.3949571  53.5482025  61.6119623   2.5707436  58.2267189  54.9748278
   2.1856038  58.7296534  54.2572212   2.1405832  58.5631514  55.7609606
  23.2871413  51.4371490  36.8606424  23.8483357  51.8629122  36.2125564
  23.6301255  50.5458927  36.9258738  74.8010492  77.5801516  61.0351419
  75.2105856  77.5446129  60.1707077  75.1556730  78.3738756  61.4357376
  11.0528970  69.1809559  26.6552281  11.0533524  69.6777773  27.4733973
  10.2478218  69.4493771  26.2124681  21.7539668  47.5207043  19.5231009
  21.9299722  46.6665602  19.9176788  21.0518622  47.3539305  18.8942373
   7.3629653  16.6018510  50.2712393   7.0623815  16.8647981  49.4013309
   6.9542426  17.2306216  50.8660698   9.2642850  57.8663731  10.6656730
   8.3890140  58.2512712  10.7102263   9.7160864  58.2088661  11.4369071
  12.7881670  81.0394573  73.9847851  13.6094868  81.1519814  74.4633293
  12.8481960  80.1610565  73.6092281  50.0195503  26.7113757  33.3266664
  49.6628380  25.8569288  33.5693765  49.3847942  27.3415256  33.6675858
   6.6532117  29.6932173  17.3280561   6.7399722  30.0597572  18.2080293
   5.8052707  30.0116467  17.0184898  48.8830566   7.8327388  35.5589461
  48.2641459   7.1911162  35.9075189  49.7400618   7.4187422  35.6608415
   5.7805163  79.4683504  57.1568918   5.0806069  80.1212502  57.1657419
   5.7357562  79.0810728  56.2826824  52.8831339   3.4332436  67.8766584
  52.3251438   2.6577768  67.8172588  52.3178196   4.1564471  67.6053143
  88.7843895  85.8487511  46.4556551  89.6090317  85.5827236  46.8623686
  88.1222630  85.2992916  46.8750906  29.4294572  29.6541309  31.2835574
  30.2020526  29.1041255  31.4132571  28.6894083  29.0721965  31.4565039
  17.7091539  69.9080706  47.5982761  17.7367330  70.8558893  47.7290869
  16.8193614  69.6577549  47.8469610  23.5242724  52.6972771  23.3907938
  22.9840970  52.9634666  24.1348243  24.0935302  52.0120955  23.7410831
  24.6736026  44.7583103  45.3142309  24.5603395  44.0936422  44.6348047
  24.6864820  45.5882883  44.8375702  62.8810263   4.4349343  63.2922411
  62.9488850   3.5370672  62.9674911  63.7830687   4.6870190  63.4897327
  36.4206719  79.0469170  49.5690155  35.5532765  79.0028381  49.9713993
  36.5228391  78.2039738  49.1271544  75.7164431  29.7716165  29.9154115
  76.4561510  29.2601228  29.5876312  74.9971724  29.1426802  29.9730968
  61.7492437  -0.0610713  60.6418705  61.3609791   0.6716391  61.1200094
  61.0521889  -0.3634320  60.0597000  75.8198643  10.4761934   1.4547586
  76.5586233  10.0730681   0.9987412  76.1860847  11.2660539   1.8525463
  37.5415683  69.9330616  36.1402988  38.4148836  69.6660519  36.4271140
  37.6487374  70.1465273  35.2133799  46.6673470   7.8227252  59.9415064
  46.6375780   8.7308538  60.2425861  46.4394140   7.3064709  60.7146597
  11.3457537  84.3926144   1.1592284  11.1989391  85.0304031   0.4607288
  10.7233429  83.6889362   0.9757466   3.6299348  78.3351183  48.4535694
   4.0354124  78.3716059  49.3198776   3.0092853  77.6085949  48.5100222
  83.3142567  79.3141890  59.0163660  82.7694798  79.2811680  59.8027229
  83.8844013  78.5486221  59.0876484  90.6693363  67.4153566  68.0658817
  91.3503361  66.7579889  67.9232311  91.1464500  68.2415295  68.1435299
  24.7329569  63.9019489  43.0959940  25.1353478  63.1497860  43.5302305
  25.4374385  64.5468330  43.0322552  67.8312683  73.5939360  19.0006828
  67.6420069  72.7126312  19.3227351  67.5680637  73.5743713  18.0805886
  43.8682604   0.5215264  31.7512155  43.4666729  -0.3457796  31.6988993
  44.8067856   0.3567794  31.6603160  73.3617687  59.8176003  20.6834888
  73.8143921  59.2335272  21.2919474  74.0499353  60.1333046  20.0978351
  37.8153610  58.0478621  46.3610983  38.1491423  58.9199924  46.5713692
  37.9889607  57.9441166  45.4255056  13.9180100  10.5385494  36.2601280
  13.0125177  10.8425462  36.3225770  14.2324162  10.8918464  35.4279256
  81.4974689   9.9064475  46.5592861  82.4481583   9.8015600  46.5215111
  81.1841774   9.5523447  45.7270002  78.8906860   7.3215514  49.6351337
  79.3275118   6.4826071  49.7820663  79.3831921   7.9447991  50.1692057
  43.1022263   2.1200851  39.6197009  42.2549677   2.3988543  39.9670815
  43.7422419   2.4717742  40.2385092  51.5654659  73.2683372  53.8431501
  50.7061481  73.1590080  54.2503977  52.1540117  72.7370882  54.3794489
  61.4441586  28.8917756  47.4569178  60.6443834  28.5178208  47.8267097
  62.0455551  28.1503034  47.3878002  37.3324037  57.3833561  49.0319729
  37.6004958  58.1491661  49.5398045  37.2129345  57.7157640  48.1423283
  14.9595928  34.1574693  73.4287596  14.2188370  33.6651850  73.0749655
  14.5794678  34.9866676  73.7188768   2.0301293  58.4876728  72.6949739
   1.5045486  57.7967978  73.0983210   2.5386706  58.8547897  73.4180546
  35.3011131  78.9691591  52.8914309  35.9869933  79.5721149  53.1782198
  34.5826387  79.1133070  53.5072660  55.0255919   5.3608674   6.8519264
  54.1714621   4.9975249   7.0857537  54.8947763   6.3089687   6.8668604
  56.3011932  82.5007439   2.3456220  56.2152481  82.1157360   1.4734890
  57.0929432  82.1018791   2.7065533  84.6625614   6.0782129  42.9376698
  84.6370220   5.3529513  42.3135090  84.7721004   6.8583632  42.3939800
  14.1696155  65.2712393  54.6236277  13.3488250  65.5882597  55.0005054
  14.1728020  64.3327093  54.8117208  66.3516569  61.0463238  54.5639277
  67.1885109  60.6117582  54.3994141  66.3013983  61.7299986  53.8958740
  57.9881048  15.7334244  55.7976961  57.6340866  16.1844420  55.0312185
  57.2306538  15.3013337  56.1924028  76.8414164  17.1557760   1.6067860
  76.3396502  17.4624264   0.8515180  77.1399450  17.9568958   2.0372723
  12.4106634  66.3142395  10.4426014  12.7401876  66.2185144   9.5490229
  12.9074776  67.0483971  10.8037317  45.9390068   4.1397318  20.4405141
  46.6353703   3.5224199  20.6646442  46.2357807   4.5511839  19.6288085
  76.8779469  61.9423532  48.0272579  77.1825743  61.6271019  48.8781691
  76.9758368  62.8933334  48.0751038  43.5617018  19.6513128  39.7964358
  42.9032087  20.2082849  40.2116442  44.3739080  20.1540732  39.8579621
  91.2244648  35.8345008  30.2060676  91.5614664  35.5867338  31.0670400
  91.7241471  36.6157579  29.9690270  21.4407396   6.7527390  68.5270357
  21.7598271   7.5208145  68.0532503  20.9635115   6.2468237  67.8693628
  67.6894426  81.3980865  19.4641137  67.6215839  80.7166290  18.7953472
  67.3416996  82.1835613  19.0418315  85.6472778  19.8791146  51.3939714
  86.3077927  19.7868288  52.0805883  85.1875877  20.6900954  51.6112900
  13.6941552  86.2351513  11.9532049  13.9879644  85.8405972  12.7743244
  13.3325434  87.0831394  12.2108543  31.5207577  10.8441055  27.8492308
  31.1627984  11.7068756  28.0583286  32.3340130  11.0295868  27.3797131
  83.2171631  82.4701309  39.5822501  83.2727528  83.2466698  40.1391459
  83.5828590  82.7504158  38.7432384  35.9207344  59.6697998  53.5716391
  35.1846910  60.1994944  53.2652140  36.6971350  60.1672649  53.3148098
  86.5727425  81.4795303  42.6632977  87.4008465  81.5641308  42.1907377
  86.6347885  80.6329346  43.1056261  21.6045856  51.0948944  15.3449845
  22.3579812  51.4820242  15.7908070  21.4425850  51.6748476  14.6009099
  53.3001947  59.7033453  64.9806070  53.5930490  59.7628355  65.8899641
  52.4650621  59.2379904  65.0278902  66.9663525  44.3681002   5.2425063
  67.4660206  43.5518932   5.2233970  67.6023960  45.0438547   5.0079030
  77.5701857  36.2610888  15.1977742  78.0562067  36.4679956  15.9960246
  77.6875877  37.0299292  14.6398044   4.9296057  40.6418085  39.5867538
   4.9123761  41.4279461  39.0409350   5.7065356  40.7482958  40.1356363
  27.3301482  62.5102186  63.0081797  27.2621036  63.1618261  62.3103237
  27.2226715  63.0123186  63.8160038   5.3779882   4.5138627  53.7612009
   5.0241351   5.4002565  53.8341856   5.0756758   4.2048499  52.9071808
  58.0470419  13.7195230  10.0122619  58.8866663  13.2732677   9.9022019
  58.2536364  14.4923329  10.5379200  76.4504528  42.7511358  60.4696512
  75.7127190  42.7119684  59.8610115  77.2233963  42.7941990  59.9066782
  73.6175489  16.3400722  59.2973423  73.3323479  16.8523943  58.5407591
  72.8674793  15.7832384  59.5060492  14.4570613  81.2806988  48.5676813
  14.8833156  81.6661549  47.8022051  14.0015113  80.5112743  48.2260704
  25.1402044  83.4504986  19.5177829  24.9891329  84.3910027  19.4235849
  25.9096336  83.3870029  20.0836253   5.4061115  64.1792536  22.8052354
   5.0384474  64.8491478  22.2287798   5.5180079  64.6222353  23.6463547
   7.1082234  73.0633068  45.0373983   7.6951361  72.3399830  44.8170090
   7.6930046  73.7970781  45.2267170  26.0058594  74.7574949  74.6170521
  25.1527715  75.1915264  74.6265888  25.8861303  74.0067387  74.0354490
  14.4889069  71.7548943  16.2859464  14.0617013  71.1588383  16.9011283
  14.7979283  72.4793959  16.8298495  84.2351055  22.9846168  37.7719307
  83.3663750  22.6941586  37.4941111  84.1098499  23.8961577  38.0358148
  50.5177975  12.3795676  16.7779195  49.8295450  12.9341805  16.4105713
  50.3590107  11.5162790  16.3961446  16.7219520  10.1108086  19.9539244
  16.0286748  10.7587576  19.8283923  17.5080311  10.6305671  20.1217437
  78.9303589  55.2106762  51.4808035  78.3505297  54.4503975  51.5255356
  78.6005592  55.7201910  50.7406282  16.7625701  66.8932343  70.8971882
  15.8399177  66.6672134  70.7794714  16.7469287  67.7595186  71.3040543
  76.6657448  64.8397827  63.6523485  76.8479824  63.9150476  63.4853506
  76.3362646  65.1734638  62.8178835  61.4940310  74.4325542  26.8490529
  60.5421782  74.4128895  26.9481730  61.6345596  74.5592451  25.9107399
  61.6724920  84.2317200  23.7086487  61.8593168  85.1000690  24.0654373
  62.3498535  84.0940380  23.0464911  77.3418760  14.6818542  62.1224165
  77.8783321  14.0105200  61.7008066  77.5243139  14.5823383  63.0567837
   5.8058476  63.4590340  37.5738382   5.4585999  64.1548681  38.1319332
   5.0377113  63.1068563  37.1242070  31.2147403  29.9597549  54.4079447
  31.7669153  30.7123399  54.1959333  30.5536032  29.9452472  53.7159061
  80.5244255  31.9995070  10.3262424  80.8601475  32.8597665  10.5781877
  80.8574009  31.4059353  10.9993184  31.0317516   1.7015903  23.0074930
  30.2256083   1.5969314  22.5021100  30.9155679   2.5286329  23.4751844
  10.5950224  85.3808594  65.9965181  10.1809406  84.7846603  65.3725624
  11.5307939  85.1939297  65.9215450  28.0804110  11.9547200  52.3244810
  28.5698748  12.7196538  52.0219374  28.7124348  11.2367058  52.2893810
  18.2629228  64.4341373  31.5853143  19.1544890  64.7297049  31.7696571
  18.2946086  63.4855366  31.7093468  61.1432266   4.5860472  39.9429417
  60.5397749   5.0246763  40.5426741  60.8379030   4.8357946  39.0707970
  15.8828759  65.7197905  43.2679129  15.7333815  65.2857161  42.4279928
  16.8348300  65.7970905  43.3314800  36.3754153   0.6148454  70.2090502
  36.4015818   1.2608790  69.5032263  35.9784865   1.0803668  70.9452343
  81.0747528  84.2723465  10.4047501  81.0458279  83.9224148   9.5142776
  80.3419495  83.8492966  10.8522618  44.6228027  25.3256154  58.7922144
  44.5126486  24.5571661  59.3521976  44.2439365  26.0456753  59.2963982
   2.0912679  63.2334900   6.1867547   2.9131836  62.7679634   6.0319304
   1.4561470  62.5423050   6.3741386  27.0886898  82.8230858  47.3993015
  27.2849774  82.0405293  46.8842220  26.4116383  82.5413227  48.0144739
  17.5243723  47.7754068   4.3329448  18.3775592  47.7695465   4.7668445
  17.7053916  47.4686527   3.4444821   1.1467990  62.7419758  39.8146224
   0.8133829  61.8591261  39.6545100   0.7505824  63.0003738  40.6467724
  85.5992317  36.3983202  73.3455610  84.6759701  36.2170649  73.1695938
  85.9321785  35.5895853  73.7345695  46.8912649   7.9434097  39.6342802
  46.3327312   8.3954304  39.0018678  46.2956238   7.3626906  40.1077890
  71.2151098  81.4954376  70.3864908  72.1033907  81.8518639  70.3743792
  71.1362839  81.0778141  71.2441635  20.3291178  81.7448902  45.1447058
  20.2978086  82.6965618  45.2425432  20.8906174  81.6007710  44.3830109
  65.6974268  20.4393959  34.0380239  65.6203318  21.3170099  34.4123006
  64.8222876  20.2441669  33.7029886  19.0147722  78.3000612  28.4733725
  19.3602383  78.0053473  27.6307392  19.6896803  78.0570412  29.1071463
  35.3868437  49.4815683  10.8219588  35.7151508  49.7847414   9.9754757
  34.4783974  49.2328548  10.6513810  22.9311800  75.2104998  47.3836517
  23.1015420  74.6346092  48.1290102  22.1856070  75.7440615  47.6587296
  65.7510900  23.9356565  62.1602297  66.2095165  24.2027378  62.9569387
  65.5470037  23.0109549  62.2998953   7.8793359  62.4234009  32.3892045
   8.7242818  62.6793146  32.0193315   7.2380447  62.9406738  31.9019628
  21.5912390  82.4128819  74.5938969  21.8444777  82.2999287  73.6777401
  20.7685161  81.9306183  74.6761894  69.4967508  36.0090828   9.9605054
  68.5832310  36.2795591  10.0529969  69.9077368  36.2674308  10.7854784
  30.0770473  85.2718258  30.1700711  29.7090030  84.5719337  29.6306968
  30.8113766  85.6087971  29.6568036  17.9189396  15.1863468  37.8052711
  17.4777985  16.0034835  37.5730777  17.2711027  14.5049834  37.6255989
  15.2941620  69.0917635  48.0196285  14.9074459  68.3509111  47.5529146
  15.1480865  68.8946104  48.9448452  11.7944098  76.6048813  47.2789240
  11.7613995  76.3255453  48.1938648  10.9870243  77.1029472  47.1512794
  42.4261093   7.3913825  46.2213802  42.9761553   8.0575800  45.8092403
  41.9815874   7.8538114  46.9318676  84.5966434   5.1238042  57.6367474
  85.3878880   5.6583726  57.5703335  84.8269939   4.3004948  57.2062445
  20.4803157  19.6313989  28.9277029  19.7648573  20.2620053  28.8459277
  20.4435468  19.3444479  29.8401380  40.8723593   2.2239661  18.0269861
  40.4341650   2.2370729  18.8778973  41.5067434   1.5104319  18.0952346
  76.9975615   3.8308313   5.2102071  77.3277950   4.7274938   5.1538682
  76.5902615   3.7794840   6.0749048   9.9156803  48.7294626  55.4242468
  10.6817389  49.0192032  55.9196615   9.9090701  49.2865610  54.6458960
  39.6331024  74.4492722  47.6108503  39.2022634  75.1905537  47.1852875
  40.1430464  74.8428440  48.3188677  70.7547808  84.8148537  40.9596252
  70.5651617  85.1205635  41.8466473  70.3326559  85.4574585  40.3894520
  69.7590733  22.6272678   7.2755677  69.8156881  22.7446938   8.2238489
  69.0062428  23.1569982   7.0131510  20.9413862  45.5604076  46.5791798
  20.1554179  45.9330797  46.1796808  21.6644621  45.9172630  46.0633802
  63.6076880  38.1619382   4.7666416  62.6713467  38.0568719   4.9353534
  63.6790085  38.1757808   3.8122028  39.0821075  72.5763178  35.2879858
  38.6820698  71.9598389  34.6746707  39.7557163  73.0220699  34.7743773
  67.9733419  22.7086973  71.0061502  67.5560379  23.3838224  71.5412140
  68.3736658  23.1902909  70.2822447   6.2018090   5.2850479  20.1196408
   5.2943480   5.0485665  20.3115320   6.2187630   6.2400633  20.1820040
  22.1446609  75.8074903  39.6833658  21.9808817  75.0027418  39.1916513
  21.4626575  76.4111233  39.3888617  11.6622663  82.4432564  63.6385632
  12.3380578  82.0406723  64.1839647  12.1489799  82.9026604  62.9542398
  11.3279998  72.9015255  20.1685905  10.9498942  73.7782240  20.1003051
  10.7700109  72.4486113  20.8008504  73.6179924  75.4835415  32.7691293
  73.2301855  74.6955442  32.3884726  73.0160284  76.1874533  32.5275087
  15.9791207  58.0132198  29.7559333  15.1054180  58.0711365  30.1426125
  16.1479616  57.0736837  29.6852541  52.3988008   5.3493631  14.4077981
  52.8762197   6.1403328  14.6581411  52.2238779   4.9028978  15.2362311
  23.1410193  79.2059326  52.7176762  22.5205064  79.3857765  53.4239721
  22.8000164  78.4182072  52.2940731  16.4373767  82.6983166  55.9895945
  15.6737089  83.1953526  56.2828541  16.2949574  81.8160057  56.3323498
  22.2768736  35.3054214  40.7591295  23.1904840  35.0334144  40.6721783
  22.0518303  35.1021814  41.6670275   6.3119036  33.3873916  23.6077619
   6.4124405  34.1825008  23.0843830   7.2007161  33.1733465  23.8913631
   4.4828266  78.8984585  64.6852064   4.5779267  78.3111095  63.9354038
   4.7009844  79.7643232  64.3403721  80.7591152  19.7581768  62.0313120
  80.7511902  20.1251054  61.1472702  80.1797962  18.9979029  61.9802809
  34.1723418  52.8119278   8.7303835  34.8392940  52.6764107   8.0572999
  33.6648893  52.0003080   8.7315768  18.2897830  79.6957779  50.6128311
  17.6002443  80.3595161  50.6274748  19.0420032  80.1227856  51.0227871
  18.1677043  79.7110081  22.0700669  17.5779629  78.9922857  21.8423104
  18.2769144  80.1990223  21.2538886  50.5492973  17.5114512  30.9050393
  50.0908327  16.8152118  31.3754606  51.3013935  17.7199280  31.4592195
  18.8882625  79.0724087  35.1078367  18.3698130  79.0389919  34.3038940
  19.3093753  78.2142305  35.1571059  77.2849846  74.8299408  16.6470504
  77.8723383  74.7127056  15.9003878  76.8698502  75.6787920  16.4942539
  10.2204859  63.1020069  45.4926205  10.4462135  63.2207108  44.5700216
   9.3772876  63.5440874  45.5916882   7.9076642  42.7535677  22.3919797
   8.5719168  42.1252584  22.1087384   7.6937884  42.4890089  23.2866859
  89.2048454  61.3998222  66.6316748  89.5348072  61.0697031  67.4673653
  89.5470047  62.2919607  66.5746546  31.1306500  12.9436910  70.2872896
  31.9437671  13.1619036  70.7427645  31.2623692  12.0473945  69.9782038
  40.6597757   5.8355761  55.4954386  40.7375717   6.7580193  55.7389069
  41.3726759   5.6911421  54.8732281  44.9421024  74.0756607  44.5690870
  45.0158262  74.8851395  44.0635777  45.8378267  73.7418175  44.6186543
  14.6454382  78.2870245  16.7505062  13.9119828  78.7382650  16.3325882
  14.4859385  78.3887339  17.6888275  11.4526534  67.4169922  47.2455883
  11.5597534  68.2832623  47.6384449  11.2292504  67.5943375  46.3318729
  23.1543279  25.7341099  74.2700577  23.8105869  25.0548363  74.1146708
  22.3200965  25.3131151  74.0625620  34.0138769  65.1612139  45.0409031
  33.1721258  64.7541618  44.8359680  33.8346696  65.7109880  45.8037043
  40.7564710  85.1337008   0.1548873  40.3477685  84.2982916  -0.0715818
  41.5964435  84.8915009   0.5447779  11.1886024  85.0489044  31.5220451
  10.7657814  84.9666977  32.3768520  11.5867805  84.1921234  31.3683987
  75.9073925  80.8725739  29.9036050  76.3149166  81.7361736  29.8376322
  76.5055466  80.2891731  29.4366145  45.4586983  17.9991543  11.1605167
  44.8732233  18.7328029  11.3481486  44.9622202  17.2236192  11.4218295
  77.3484135  76.6724634   1.2617555  76.6605711  76.1293650   0.8768487
  77.4614048  77.3918152   0.6404665  79.5576000  71.3982105  50.2167559
  80.1283169  72.0205021  50.6676054  79.4697332  71.7516994  49.3315649
  41.7370653  66.7190742  73.3678102  40.8042145  66.5464783  73.2404041
  41.7627907  67.4941587  73.9288950  28.3300138  83.6093903  39.7934031
  28.5417056  82.8066254  39.3169761  29.0980005  84.1681862  39.6743059
  27.8675079  80.5667686  45.7703209  27.7250051  79.6445799  45.9835863
  27.2820735  80.7350922  45.0319624  28.6156511  80.9635544  38.9389825
  28.7028146  80.3783894  38.1865072  29.1317558  80.5457020  39.6283817
  56.5583754  84.9344158   3.5570800  56.7808580  84.9685287   4.4874391
  56.3798475  84.0094662   3.3872700  69.2566299   9.2508656  31.9816732
  69.9232006   8.7280279  32.4272752  68.9314890   9.8485994  32.6548958
  44.4632435  65.1023912  57.5025272  45.2486086  64.8411989  57.0216894
  43.9705563  65.6400681  56.8825293  11.4399314  62.8872490  28.6678147
  11.7994916  62.1354723  29.1387510  12.1773374  63.2275295  28.1611848
  49.3187332  67.4552870  59.7548342  49.7551394  67.7290487  58.9480877
  49.4174862  68.2018089  60.3457546  63.7915754  69.4801044  16.6522717
  63.2606030  69.5585108  17.4448323  63.3895206  68.7611198  16.1647809
  12.1793151  68.1713724  43.4891701  11.4150000  68.0921936  42.9183960
  12.1307051  69.0636921  43.8321447  22.3345160  43.2456064   8.9025599
  22.0629930  42.4934578   8.3764601  21.5859675  43.8414431   8.8728160
  14.1037750  58.4868240  57.0844460  14.0019715  57.5351000  57.0750904
  13.3402431  58.8140631  56.6088772   9.9123597  32.8899145   9.6279460
  10.3064668  32.7885962   8.7615478  10.5861378  33.3280921  10.1478064
  29.5513654  74.7927761  43.2065153  29.6592259  74.4192410  44.0811968
  29.3756723  75.7207203  43.3623600  34.1960001  81.6240501  31.3660669
  33.5746717  81.5671062  32.0919752  33.7751389  81.1446857  30.6524062
  30.6531167  76.4866543  36.5959907  31.4971900  76.0813618  36.3972235
  30.0928664  76.2476635  35.8575916  32.6019931  28.8410378  31.1722898
  33.0655122  29.6065307  30.8325815  32.4477029  28.2933760  30.4025531
  58.1140661  72.5771856  41.0647631  57.7909184  72.6069260  41.9652748
  57.4525833  72.0744944  40.5893993  48.4733677  14.9407041  19.9358022
  49.1582060  14.4469512  20.3868389  48.5197163  15.8175123  20.3169703
  39.6557665  76.8827963  66.7525578  38.8709235  77.3334599  67.0642519
  40.3825665  77.4054909  67.0913696  22.4119353  23.6089611  69.0561152
  22.0692253  23.8377285  68.1921434  21.7306399  23.8910890  69.6664238
  25.7018781  81.0427380  64.2686558  25.6327033  80.1050854  64.4482374
  26.6328335  81.2387657  64.3741417  89.9645519  52.0177174  35.0470233
  90.5315304  52.7229834  34.7349834  89.0762138  52.3520279  34.9232364
  52.6244879  43.5334826  16.8026650  52.6798487  43.2066250  17.7006245
  53.0198669  44.4044113  16.8399930  38.8271832  74.5495415  25.1617980
  39.1964865  74.7770405  24.3085146  39.5501518  74.6742201  25.7766199
  32.5549269  40.1873064  61.6597700  32.0811677  40.8341026  62.1826839
  31.9132566  39.8809028  61.0189819  30.4180551  53.0572462  51.2685251
  30.2060318  53.9760351  51.1038876  31.3729787  53.0394650  51.3320494
  65.5014753   1.5244032  33.8785839  65.7509518   2.4300830  33.6949134
  66.3156939   1.0290056  33.7899590  28.2202196  68.1180048  40.9349108
  28.0151749  68.9384794  40.4865694  29.1568971  67.9904985  40.7845402
  23.6211610  73.8351345  60.4402161  23.3686423  74.3325663  59.6623802
  24.4298530  74.2513323  60.7385874  58.2630920  31.3278055  30.7093334
  58.2585049  31.6367888  31.6152787  58.4678602  30.3951025  30.7754159
  22.2242427  78.5962772  43.9834929  22.7862310  77.8688049  43.7166882
  21.9296098  78.9857483  43.1602430  58.8662481   6.1972779  40.6173325
  58.6550331   6.6410476  39.7959375  58.0191040   5.9136921  40.9610701
   7.0354372  45.2428198  45.0024223   7.1408987  46.0885906  45.4380655
   7.8814971  44.8091125  45.1133633   3.9227638  73.2846022  61.0963869
   4.2025495  73.3960915  62.0049667   4.5773903  72.7001143  60.7141972
   2.3826191  79.9275589  32.9651666   2.0217776  79.9590921  32.0791483
   2.9886913  80.6674480  33.0034256  37.3168063  67.0162296  53.9591408
  37.9573560  66.4581060  54.4000769  36.7178726  67.2887945  54.6542788
  62.3125267  17.7462506  61.4898396  62.8814125  17.4557197  60.7769632
  62.8181648  18.4237099  61.9388485  47.3499918  10.2776003  46.0101843
  46.5128756  10.1271927  46.4493275  47.1100998  10.5628598  45.1285315
  45.7988882  82.5951099  51.6018391  44.8837185  82.5546455  51.3242483
  45.8700037  81.9333267  52.2897530  29.7472954  22.1587443  68.3008289
  29.7911572  23.0409050  67.9319096  28.8113403  21.9623351  68.3413363
  78.4446955  51.6814137  12.3275948  78.8875771  50.8496094  12.4954975
  77.5756454  51.4310312  12.0140755  25.0449586   5.6571621  38.8103580
  24.8428106   6.4457810  38.3069205  25.6188226   5.9621787  39.5131207
  65.9549475  77.8002644  20.2393341  65.9582901  78.1571627  19.3511641
  66.2286234  76.8892717  20.1324224  55.2367830  13.2383800  28.4279799
  54.5820093  13.3350801  27.7364969  55.6737280  14.0892386  28.4647703
  30.0128055  67.5280523  58.7288570  29.6297669  67.9200554  57.9440975
  29.6604967  66.6382599  58.7484884  72.2295713  17.8719020  36.7926121
  72.7685690  18.6393249  36.9843864  72.4586630  17.6369655  35.8934164
  82.6682949  23.7834597  56.9624853  82.1115685  24.1444421  56.2725687
  82.5978756  22.8348899  56.8552923  45.4614353  14.3852031  34.9113083
  44.8295879  13.9751911  35.5019736  45.4657602  13.8223529  34.1370893
  19.3566728  69.8295116  54.2544079  19.9564469  70.5712557  54.1748905
  19.7966003  69.2292356  54.8563719  48.8594675   0.2807504  44.7891426
  49.0159559   0.8422954  44.0299273  49.2406082   0.7605204  45.5245256
  36.3629150  48.0503368  53.6556625  37.1180177  47.4873400  53.4851122
  35.6628609  47.6818705  53.1167889  17.3057926  82.5590134  53.2755709
  17.0543265  82.7884579  54.1701984  16.4832687  82.3164177  52.8503275
  26.8719459  60.4887199  12.0304108  27.1329045  60.9030676  12.8528750
  26.5268898  59.6348476  12.2913134  52.0688534  21.0776424  21.4474535
  51.5311146  20.8363104  20.6932473  52.8025675  21.5647388  21.0724378
  74.8765039  23.2414246  65.9918547  74.4512939  24.0560055  65.7237339
  75.1153469  22.8139424  65.1693916   8.6479646  56.7114687   4.4642660
   8.5002607  57.6522112   4.5612979   9.5650864  56.6390228   4.1999349
  58.6785126   1.6729107  41.4383507  59.2312908   1.7795750  40.6642151
  59.1733599   1.0825162  42.0065022  25.9158254  66.2406826  14.2660415
  26.2456012  66.5180683  13.4113276  25.4233098  66.9951963  14.5891106
  48.1314945  73.4391022  58.7443495  47.3232603  73.9406586  58.8512754
  48.7957764  73.9550591  59.2012358  66.1180496  28.0742407  44.7710228
  65.9041786  28.9099383  45.1858711  67.0496178  27.9486346  44.9516726
  63.9991856  72.0098877  57.7458000  64.3645000  71.8353701  56.8784380
  63.2470560  71.4215136  57.8117228  70.1259136  20.1409483  47.2243690
  70.5782747  20.9463263  46.9734335  69.7137737  19.8359311  46.4160728
  84.3402481   8.6885661  58.3148718  85.0563717   8.0791563  58.1359339
  83.8521385   8.2810992  59.0303802  14.1364837  59.6654320  47.1259975
  14.0386915  60.5137157  47.5585222  14.7223413  59.8384523  46.3890648
  50.5074120   3.2252571  64.7787952  50.1737022   2.9015803  65.6155157
  50.3473043   4.1685838  64.8058558  42.6586485  74.5192957  36.1445975
  42.8789568  73.8218880  35.5270863  41.8311548  74.8742342  35.8197808
  65.7143545  69.9419117  31.3938093  65.4713440  70.2056694  30.5063367
  65.1126003  69.2280293  31.6047478  20.1988173  73.8488007  38.2531452
  19.8769951  73.9208984  37.3545551  20.4029346  72.9198170  38.3606386
  14.1936576  74.2755127  34.2639947  14.2704618  73.3537006  34.5101452
  14.0577614  74.2599201  33.3166170  35.6752348  85.7584190  29.6538448
  35.3613019  86.3245201  30.3589678  36.3176322  86.2921524  29.1862082
  25.2789068  67.8756905  52.3174810  25.2200675  67.7399015  51.3717890
  25.3345609  68.8257504  52.4200296  24.0656018  73.1623650  38.0447197
  24.9143076  73.5907650  38.1560993  24.0457463  72.4895954  38.7253213
  36.2027097  71.4602232  61.3496447  35.5748868  71.8278933  61.9716454
  36.3676524  72.1694326  60.7283211  58.2644701   8.5445595  28.8301015
  57.6624727   7.8086054  28.9405823  58.2060337   9.0276140  29.6544051
  56.9941521   4.9227542  74.3291712  57.0074320   4.0726647  74.7689486
  56.2341356   5.3719401  74.6990776  90.3385735   4.0320066  60.1357031
  91.1471558   3.8183972  59.6700859  89.7641468   4.3974736  59.4628763
  56.6863489  30.9386015  74.5847988  56.3692760  31.0902476  75.4751396
  56.2989187  30.1005936  74.3320608  55.7097435   1.7145577  64.2780733
  54.7946644   1.6175535  64.0145350  55.7464075   2.5700945  64.7057962
  62.5307322  10.0454366  50.5855322  63.4235001   9.7297013  50.4458666
  62.2522068   9.6242857  51.3987303  36.0344338   4.6671146  36.6882086
  36.7425442   5.3025079  36.5829134  35.8015680   4.4176158  35.7939172
  56.8817091   3.6180007  21.2332678  56.6900873   4.4011223  21.7492461
  56.3062620   3.6864027  20.4714203  58.4872532  14.8018539  45.0751352
  58.0784607  14.5096207  44.2604446  58.2414007  15.7239783  45.1491356
   9.2806435  27.4795294  51.0235357   8.7619328  27.3081565  50.2375317
   9.1000110  26.7345953  51.5968370  38.1108689   6.2148398  37.0887756
  38.4862733   7.0745414  37.2790837  38.8429308   5.6063271  37.1889257
  53.5517359  11.4607465  20.8881831  54.1597271  11.0186732  20.2956033
  52.8152990  11.7131042  20.3312159  67.7058697  44.9962616  50.5871820
  67.3050261  45.0294542  49.7185898  67.7297831  45.9088612  50.8749628
  58.4536648   8.1811935  52.0461655  57.9876232   8.9917183  52.2513103
  57.9353523   7.4942321  52.4652910  48.4401178  29.5378327  30.2454758
  49.1148424  29.2746139  30.8713341  48.6242247  29.0189600  29.4624615
  35.1844621  54.8395681  53.1335926  35.2317023  55.6924343  52.7016020
  35.1128888  55.0466824  54.0653706  57.6633358  52.2047997  32.7811313
  57.6414061  53.0428696  32.3191905  56.7598772  51.8901634  32.7494955
  44.7155333  83.4669113  36.7665219  44.8802280  82.5242329  36.7449784
  43.7674999  83.5468864  36.6613197  61.3288116  61.8765497  48.9401770
  60.6665277  62.5661421  48.9857006  62.1341467  62.3335409  48.6976480
  47.4478817  86.3523388  61.7051172  47.2981071  86.1113358  62.6192951
  48.3197546  86.7473793  61.7013216   1.5882574  68.2051373  54.8549509
   1.0933995  68.7737751  55.4448700   2.2425658  67.7891016  55.4162216
  59.5632410  18.8410008  61.6563129  60.3987503  18.4502864  61.4003849
  58.9048147  18.2094228  61.3668013  44.5460510  59.8829269  26.8667531
  44.6687174  59.6086740  25.9579229  45.3509760  60.3522205  27.0860386
  52.5410938  55.4589653  43.4494686  52.0579290  55.1372385  42.6883698
  52.4353743  54.7724104  44.1080236  78.1209326   6.3441879   5.1633084
  77.4265289   6.4849496   4.5197064  77.7964640   6.7620879   5.9610003
  21.8814301   4.1440377   7.2560418  22.3557401   3.3195746   7.3633844
  21.0429358   3.9966947   7.6935899  52.7659321  82.8245831  66.3544941
  51.9365358  82.6554775  65.9075785  53.3693504  83.0722523  65.6539392
  90.4069519   6.2692237  61.9285774  90.4313755   5.6111509  61.2339020
  91.2537289   6.7115790  61.8693352  25.0004339  80.9617805  13.0277729
  24.0834427  80.8927727  12.7620721  25.0593424  80.4342842  13.8243294
  64.0545559  12.4627805  36.4942646  63.3384275  12.7833378  35.9459639
  63.6514139  12.3081994  37.3485565   2.8459427  74.3224096  69.0927982
   2.9613647  73.3854771  69.2511177   3.2473421  74.7448683  69.8521662
  82.5631237  13.3941483  53.7216187  81.9794178  13.3680367  52.9634428
  83.2349396  14.0335190  53.4847641  70.6513214  19.7258961  43.1612587
  71.3388300  19.0853465  42.9788923  71.1237955  20.5339265  43.3614635
  31.4065409  63.2953644  50.5765915  30.5330920  63.3067894  50.1851988
  31.2788224  62.8928661  51.4356136  48.5688305  19.3574870  26.6812539
  48.4693670  18.4057271  26.7034435  49.1560650  19.5540166  27.4111605
   3.8786042  67.5564480  48.4943390   3.6919883  67.7782345  49.4065952
   3.8465768  66.6001225  48.4689713   3.0200121  85.2323532  37.2925496
   3.8833803  84.8506737  37.1339822   2.4040827  84.5694542  36.9804311
  68.1221819  67.2188282  20.5910707  68.5765648  68.0608940  20.6173992
  67.2812033  67.4133015  20.1773500  24.9590945  70.4028940  51.5894175
  24.1664696  69.9562788  51.2918997  24.6442056  71.0654783  52.2042799
   5.9506333  70.1741505  62.4892282   5.9965438  70.3037643  61.5419579
   5.8345360  71.0547113  62.8461123  56.9767189  19.7963846  55.9031057
  57.8982210  19.9235904  55.6775427  56.9931650  19.1946733  56.6473579
   4.9733406  37.0377326  38.5043049   5.4637134  37.7213120  38.0477023
   4.1038403  37.0591235  38.1046271  89.6409702  24.3621707  18.1383419
  90.0281429  24.9111366  17.4564588  88.7276363  24.6449900  18.1836557
  73.8723612  41.1059999   1.5613580  74.4876623  40.4689980   1.9244936
  73.1932402  40.5737066   1.1470035  67.9943514  11.4441359  27.8960609
  68.6340046  11.0473585  28.4873700  67.7720737  10.7458615  27.2802377
  27.9192877  41.3486338  55.4941750  28.4602618  40.6177855  55.1951027
  27.9189062  41.9625616  54.7597933  83.8160610  22.1169901  52.7228594
  83.2713318  22.8265548  53.0634785  84.6972084  22.4889064  52.6841736
  26.4627695   3.8560963  33.3091545  26.3606215   3.1480545  33.9451385
  25.5756092   4.0210590  32.9898357  85.3785133  48.4344101  49.0999508
  85.4397869  49.3880463  49.0446234  85.8785534  48.1182194  48.3474779
  86.0356522  57.5773096  42.5018501  86.8768787  57.1689796  42.2973013
  85.7323360  57.1207809  43.2865858  61.3431406  12.3563409  50.0389528
  60.8840990  12.3623312  49.1990280  61.8008518  11.5158343  50.0557613
  23.0237412  26.3686657  29.9621153  22.1333313  26.5329933  29.6516395
  23.5717058  26.9532347  29.4384289  75.7814550  83.0989552  46.2581396
  75.2421999  83.6740208  45.7152414  75.6596422  83.4271240  47.1490383
  73.2837820  39.8152089  51.3460159  72.8290510  40.2388525  50.6180191
  74.0588140  39.4199800  50.9468317  52.9943466  72.9036188  28.1012917
  53.8807774  73.2220221  27.9307270  53.0581474  72.4586821  28.9463925
  36.2726188  18.9343834  51.5595198  36.6019702  19.8085666  51.7682409
  37.0520949  18.3788228  51.5579891  84.7732353  25.4944062  38.6051607
  84.4163704  25.9001708  37.8150773  85.5438042  26.0209775  38.8177180
  15.9638608  20.6277275  55.0090456  15.3764462  20.6641936  55.7639313
  15.4021025  20.8221841  54.2588139  90.0490379  31.8809557  18.4050202
  89.2754936  32.0354462  18.9472294  90.7841015  32.1581340  18.9519048
  29.4847488  10.9872591  11.2522686  29.3336582  10.1112926  11.6073561
  29.5013952  10.8615160  10.3035092   1.5169612  37.7209926  32.1380925
   2.3937213  38.0515409  31.9424915   1.4606318  37.7421284  33.0934000
   3.5009557  79.7261381  41.7376804   3.1802532  80.5342484  41.3372612
   4.2651743  79.9976397  42.2460985  77.7135754  26.4748263  18.2414269
  77.7292252  25.9382892  19.0339637  78.3480835  27.1711516  18.4110272
  20.0877786  33.4266114  35.2628613  19.2439747  32.9851913  35.3596830
  20.6355739  32.7962422  34.7951150  82.1136856  53.5656023  54.4376230
  82.1021652  52.6645136  54.1149235  83.0052662  53.6924601  54.7620106
  43.1507063  13.1710088  56.8207264  44.0514469  13.0671513  56.5139437
  43.2240248  13.1961644  57.7747822  10.2896249   9.8090231  40.2751160
  10.7560253  10.6418419  40.2035904   9.6053451   9.8596376  39.6077085
  73.5271978  34.3193555  37.0191193  73.9639854  35.1605606  36.8856168
  72.7675009  34.3489861  36.4375520  83.8064671  40.7596874  57.5991774
  83.8316154  40.3215122  58.4498262  83.9971161  40.0666618  56.9670439
  81.2720490  46.7012215  17.9837191  80.5329227  47.1497726  18.3944845
  81.8425369  47.4076080  17.6807463  12.5614668   0.2020914   8.0693138
  13.1747795   0.6367475   8.6618978  13.0891300  -0.0267809   7.3041856
  61.6681910  84.8203564  46.2341738  61.5280724  85.7208347  46.5269995
  61.5674067  84.2924881  47.0262766  22.3600292  12.0220351  21.2185740
  22.8839374  11.2273288  21.3195443  22.9236603  12.6196694  20.7272649
  70.9509754  27.5294018  28.7909007  70.4039192  28.0757952  28.2266164
  70.3279734  26.9982648  29.2868733  59.9555016  27.0499778  22.2280359
  59.1584539  26.5860367  21.9717026  60.6571627  26.4129043  22.0937133
   8.3227867   4.7808936  22.6185536   8.3685267   3.9649808  23.1169772
   8.1716889   4.5017606  21.7155123  84.7673416  45.3387022  18.1649303
  84.1143227  44.9074984  18.7161744  85.0094700  46.1263466  18.6519861
  48.3608341  56.3426161  44.8992920  48.8243580  56.4988708  44.0765142
  48.4143353  55.3956509  45.0282335  90.3401184  20.2305651  38.4047651
  91.2615871  20.3704071  38.1866670  90.2435303  19.2788172  38.4376049
  10.0166321  33.9579749  68.9200354  10.3706050  34.7513223  68.5181236
   9.1815555  34.2332363  69.2983341  13.4035504  27.7647662  53.6937332
  13.0589426  26.9565654  54.0735865  12.8769135  27.9029751  52.9064703
  71.4602900  47.0458889  49.6187067  71.4426088  46.4079142  50.3320789
  70.5895805  47.4433041  49.6311569  27.5951838  70.5860758  39.9020076
  27.9299116  71.0692120  40.6574965  27.9478288  71.0523844  39.1440964
  86.6038132  23.0861759  11.0495532  86.4838982  23.6337113  11.8254757
  86.9174576  23.6900949  10.3763962  31.6051054  83.4997463  58.6048985
  31.8768859  82.6328659  58.9063454  31.1303496  83.8735294  59.3472815
  82.3767376  22.5413728  14.5030999  82.5112629  22.7835941  13.5868764
  81.5744495  22.9979753  14.7562397  26.0463643   8.7656516  44.4711113
  26.9813204   8.5791695  44.5566273  25.8914137   8.7851202  43.5267353
   3.2984763  21.5760374  55.8284283   3.0754524  21.5337443  56.7583227
   2.6949626  20.9626198  55.4092360  82.1688461  41.7114496  48.9003706
  81.7970562  41.6351700  49.7791100  83.0972385  41.8918133  49.0479326
  65.5107927  28.8683009  12.0422339  65.1673508  29.7613192  12.0704544
  64.8265219  28.3622575  11.6041446  89.2288685   0.1834763  30.2482557
  90.0949574   0.5910331  30.2447844  88.6978912   0.7540587  30.8038902
  21.8238950  18.1298733  33.6867046  22.2170138  18.8439202  34.1885257
  21.9427037  17.3561954  34.2376494  23.4631348  49.0032864  32.2055793
  22.6932859  49.3841171  32.6281095  23.4498000  48.0829239  32.4682236
  24.4911385  35.4783463   5.3548765  25.4358053  35.5693626   5.2301598
  24.1907382  35.0100422   4.5759785  16.1855173  40.7795620  24.3052745
  17.0021749  40.7974863  24.8042536  16.4280427  40.3955650  23.4626818
  57.4221992  12.4398375  64.0047121  57.8331423  13.2239878  64.3686676
  57.7679253  11.7208135  64.5335865  25.3318357  63.4530449  57.0226812
  24.8019385  62.8406382  56.5123892  25.1772451  63.2022858  57.9334259
  33.4016705  23.6769342  40.8239460  33.3059335  24.6285987  40.7864857
  33.6985850  23.5010457  41.7167711  89.4728661  67.9247570  53.6934662
  89.4355774  68.1775522  54.6159315  88.7264347  67.3372030  53.5757828
   9.0419787  52.9887056  24.8174930   8.6711776  52.1548557  24.5286417
   9.2956197  52.8355646  25.7276821  72.0791245  19.3497360  21.6671848
  72.1999645  19.2512918  20.7227588  72.6150751  18.6556315  22.0508623
  39.4177508  18.8698387  65.3174734  38.9304066  19.6900725  65.3945684
  39.4160151  18.5060775  66.2028551  58.9381838  18.9932442  36.9040346
  58.3310986  19.5838833  36.4581394  59.0741253  19.3932462  37.7629590
   1.2555231  70.2853203  13.9284623   1.2268149  70.9780407  13.2685030
   0.8540870  69.5294142  13.4998786  72.0666599   4.6985090  32.8997302
  72.0274973   4.5651767  31.9526720  72.8148222   5.2814555  33.0288005
  81.5377045  39.5689297  25.0369763  81.4229393  39.1105962  24.2045140
  81.2158012  40.4546118  24.8691177  62.1339369  84.2798328  61.4856720
  62.7843571  83.5844803  61.5839767  61.5949106  84.0007114  60.7455540
  83.7891388  34.3815112  33.5178733  83.4324932  35.2356315  33.7618208
  83.7576962  34.3731952  32.5612259  28.5253024  51.9988298   5.6968343
  29.3997145  52.3770237   5.7896006  28.4451008  51.3966274   6.4365298
  43.5388041  60.5969191  70.4137850  43.1834793  61.2858725  69.8522472
  44.3708611  60.9500313  70.7287931  25.7638764  50.6731224  15.0735533
  25.9472537  50.1863480  15.8770823  26.6133690  50.7459211  14.6384704
  78.8397312   7.7737379  21.5540290  79.0792036   6.8563712  21.4224052
  78.5383129   7.8147477  22.4616051  14.9912965  37.5068259  19.9983466
  15.6246638  37.7683854  19.3300176  14.1390800  37.7135658  19.6146572
  16.7891598  45.2894211  21.3802433  15.9797609  45.7542038  21.5925717
  17.2410798  45.1998568  22.2192764  75.4790783  27.0731878  67.8353596
  75.4665661  27.3851728  68.7402010  74.9384165  27.7022195  67.3576212
  89.3219948  45.8259821  64.7041464  89.2817974  44.8901320  64.5071650
  88.5338593  46.1897278  64.3007040  18.9144444  30.9320259  48.6149693
  18.0988169  30.7540488  49.0832710  18.9728940  30.2344656  47.9621077
  14.3396282  53.1980705  48.7385750  13.7336600  53.9389086  48.7524700
  15.0673270  53.4733772  49.2961550  69.6063566  34.6152306  40.9139395
  69.4900036  33.7459731  40.5304193  70.5446148  34.7878504  40.8358240
   2.4296878  24.4040918  27.9333973   3.3349860  24.6447587  28.1302357
   2.4412169  23.4482169  27.8843760  16.3927376  12.5397193  32.3504519
  15.4823756  12.7533698  32.1459389  16.7902136  12.3473537  31.5011930
  75.3426647  40.1785517  30.0383902  75.3736401  40.0492477  29.0904689
  75.1299810  39.3145156  30.3911543  91.1363316  33.0331039  42.5849009
  91.1264420  32.9560876  41.6308546  90.6425858  33.8329458  42.7657509
  22.6706171  26.2879992  37.2850776  22.4488258  26.7521787  36.4778733
  22.6853180  26.9695759  37.9569936  29.0826416  41.7204380   1.4731091
  28.5242343  41.1964560   0.8987783  29.8137689  41.1417341   1.6894040
  30.4973078  61.8606138  47.8006363  30.7875514  60.9511375  47.8702402
  29.5575237  61.8264437  47.9791641  12.1695483  48.4190273  10.2710867
  11.9261515  47.6876402  10.8385980  13.0041873  48.1545448   9.8842263
  31.7812967  32.7176189  28.5388422  31.3544321  31.8695211  28.6602974
  32.7076268  32.5053263  28.4244990  38.2665873  76.5260315  46.0550070
  37.6043534  77.1080494  45.6822681  38.6800098  76.1159849  45.2952862
  62.7483511  85.5282402  39.0727067  63.5821867  85.8465290  38.7268138
  62.1667385  86.2873840  39.0319943  21.3669825  71.5490627  29.6916366
  21.4000750  70.8808136  29.0071106  21.8493962  72.2905636  29.3260050
  14.4143081  51.6352987  41.1193943  14.0128922  52.0865726  41.8619871
  13.8612068  51.8643332  40.3724957  15.6813681  53.7759972  23.9604330
  14.9273372  53.8686180  24.5427489  15.4432547  54.2749453  23.1790352
  46.2776279   2.5838947  71.6537476  45.4650497   2.8752410  71.2401533
  46.0009432   1.9161507  72.2812796  71.5139771  68.0968094  52.2869349
  71.4185667  68.5389614  53.1305170  71.5802765  67.1681786  52.5093889
  64.9226713  78.9822865  71.8158913  64.0741730  78.9400673  72.2569084
  65.3468752  78.1520605  72.0327091  90.1588345  47.4419403  55.9806252
  89.8008156  47.3897648  56.8668175  90.3596973  48.3697176  55.8576965
  29.2157292  79.0235853  14.2986786  28.7583232  79.8528624  14.4376230
  28.7476826  78.6105490  13.5730278  21.5492821  56.9530916  32.9921937
  21.3049746  57.8445959  33.2407117  22.2314715  57.0673227  32.3305297
  75.0542021  74.7323227   9.6860480  75.8562279  75.2327681   9.5358962
  74.5130014  75.3047085  10.2298355  78.1809378  50.1304340  58.7521935
  79.0972042  50.3859282  58.8590145  78.1674862  49.6197891  57.9426956
  20.8058190  23.3648992  44.2056131  20.2075148  23.7847686  43.5875750
  21.5957570  23.9048100  44.1786432   9.2385888  43.7550211  45.1896954
   8.9539188  42.9572821  44.7438145  10.1709902  43.8243103  44.9846125
  28.5612178   4.7188184  38.1450868  28.4695983   4.3373811  37.2719646
  29.4587207   4.5104468  38.4045148   4.4776756  22.0233369  15.6850278
   4.0589228  22.8166580  16.0189736   4.1821486  21.9606924  14.7767484
  36.5543127  48.4158278  64.2474508  36.9053245  48.2870340  63.3662987
  37.3119736  48.3166552  64.8239470  55.7766819  30.4670191  52.8837347
  56.0187817  31.3591981  53.1320000  55.7906866  29.9774075  53.7061167
  28.2885838  16.5464652  22.4366426  28.0355120  15.9302795  21.7492557
  27.4751139  16.9949627  22.6676178  80.9313965  48.4658718  59.7056818
  81.3856220  48.1390715  58.9290762  81.1460781  49.3982506  59.7341013
  22.1577311  38.8050175  16.7348754  22.9363823  38.3140683  16.4723742
  21.9831395  38.5161614  17.6305938   6.5035480  13.4571552   1.2262300
   5.5580193  13.3568668   1.3364550   6.8245184  13.6779833   2.1005553
   8.7254822  43.2864761  33.8222718   8.7149364  42.4205494  33.4144855
   7.8101212  43.5662603  33.8140345  77.6875257  42.1007586  19.4723523
  77.3835230  42.9932070  19.3069959  78.5722017  42.0776367  19.1075921
   2.6021224  45.2548695  36.3583994   2.4236780  45.4400015  35.4363823
   1.7405522  45.2627134  36.7753720  33.5827208  45.2065325   4.9884653
  32.9574394  44.9505997   5.6665170  33.9067769  46.0614586   5.2718806
  13.2106519  21.0302830  62.3327875  12.4560797  20.7919955  61.7942047
  13.8471758  20.3329802  62.1751785  59.8524332  11.5787041  43.5113478
  59.9713993  11.6034532  42.5618887  60.4618502  12.2364569  43.8463116
  15.5704546  49.0673733  34.6208668  16.2625456  49.3898773  35.1981282
  14.7692585  49.4643784  34.9624825  81.8997574  30.2684855  28.0292511
  82.7569675  30.2329612  28.4537101  81.9117260  31.0872054  27.5334835
  69.5894337  77.7965927  24.5247340  70.3954506  78.0170059  24.9916172
  68.8952827  78.2133818  25.0352955   2.0357017  70.2349997  36.2032747
   1.1509846  70.4618025  35.9168005   2.6073405  70.6027317  35.5293059
  18.4977889  47.4986076  38.6148310  19.0092993  48.1116772  38.0868793
  18.8960743  46.6451550  38.4439039  85.9981918  50.1576948   6.7541516
  85.2849960  50.7399416   7.0160025  85.5846977  49.2994881   6.6606855
  18.2818401  43.6140537  29.6986794  18.1037986  44.0637922  30.5246758
  18.1453907  44.2828226  29.0275860  16.8082547  55.4174137  29.1879225
  16.5358782  54.7384882  29.8052597  17.3944747  54.9670219  28.5798740
  18.3883643  14.9189234  25.9689641  18.7980545  15.2072978  25.1533508
  17.9396653  15.6970370  26.2997842  18.0947793  29.5874548  16.4282823
  18.0097079  29.3763280  17.3580241  17.2083175  29.8222685  16.1539078
  87.5215912   5.8070815  41.2408447  87.3543358   5.7644612  42.1823549
  86.6674709   5.6495368  40.8384848  57.4045372  73.3688259  36.0201073
  56.6848183  72.8032589  35.7401609  58.1567860  72.7813053  36.0920358
   9.2866927  53.8346291  41.6859293   8.8379651  54.6795273  41.6539240
  10.1696122  54.0437508  41.9908142  24.9115062  38.4021521  24.7606373
  25.6927896  38.7378812  25.2000856  24.5400667  39.1645789  24.3168259
  13.3460689   3.8589486  59.9771309  13.4134912   3.6973101  60.9181738
  13.7274468   3.0798805  59.5723677  10.6638014  18.5228205  30.2824211
  10.0610089  18.0692101  30.8715796  11.2858427  18.9584374  30.8651161
  23.0327296  51.8302965  42.7285671  23.2255316  50.9469080  43.0427074
  23.2481837  51.8053055  41.7962646  26.7590809  65.8686686  41.7564631
  27.3091817  66.5728426  41.4133024  26.6972613  66.0485554  42.6945734
  37.6568031  29.6231484  51.7916584  38.5815978  29.3832755  51.8503952
  37.2686958  29.2796826  52.5964165  74.6555996   4.7520545  25.6763434
  75.3909636   4.9378747  25.0924373  74.1921616   4.0282345  25.2549863
  88.0798912  18.7837124  64.0712070  88.5610771  17.9588127  64.1362619
  87.1583557  18.5259986  64.0955305  20.0835443  48.8615084  36.6337419
  20.2425170  49.5771980  36.0183167  20.9573913  48.5800314  36.9046593
  70.3145075  45.6282997  19.2832792  71.1151648  46.1141157  19.4811857
  70.5141115  44.7259188  19.5324743  65.8849049  10.6783640  10.1083004
  65.9699535   9.7269559  10.0464737  66.7783737  11.0059118  10.0050569
  85.2871536  86.0950618  29.8389244  85.9258484  85.6149269  30.3659630
  84.4907402  86.0959985  30.3699207  40.8776236   7.4339873  67.9170465
  41.5927219   7.8322744  67.4208260  40.4004860   8.1765282  68.2874584
  76.7486000  53.7021446  20.7515597  76.8964148  53.6137486  19.8099816
  76.4812565  54.6139145  20.8674765  15.6028616  68.0583906  22.5912261
  16.0584819  68.4281349  23.3474874  14.6739101  68.1476736  22.8040838
  16.5555453  52.5895691  14.1640162  17.3978603  53.0030203  13.9748120
  16.1973369  52.3711205  13.3036685  18.4988892  27.3950267  67.1147919
  19.4390047  27.2404957  67.2071743  18.1993759  26.7035985  66.5244961
  24.0538311  19.4480062  13.6496508  23.7175441  19.4353521  12.7535582
  23.9181972  20.3487754  13.9436758  69.6371078  47.6900244  14.0242660
  68.9288425  48.3202887  14.1560376  70.2012539  48.0976295  13.3671296
  51.9658709  68.3381367  71.6624880  52.5725603  68.3478880  70.9221745
  52.1652508  67.5240707  72.1248436  64.6685410  51.5041399  37.8170872
  65.5993032  51.3332701  37.6731300  64.5454311  52.4111605  37.5371051
  82.2459602  34.7762823  45.6156826  81.7697906  34.8413968  46.4434862
  81.9879341  33.9271164  45.2571106  28.3121538  36.8584728  61.8730354
  28.6898470  36.6066623  61.0303211  27.8648615  37.6862788  61.6972589
  15.6775856  10.6069112  41.9708300  16.3147211   9.8938942  41.9272852
  14.8797953  10.2387536  41.5910625  15.1113248  51.4681149  52.4964333
  15.6310415  50.8395338  51.9954205  15.2940667  52.3124695  52.0842505
  25.1434755   7.6272446  61.8224335  25.1498294   8.2580662  62.5423336
  24.7480536   8.1020665  61.0913944  80.8207035  61.4620495   9.9355066
  80.7107258  62.3035669   9.4928014  79.9296761  61.1285877  10.0408566
  81.0978794  23.1193161  35.4552078  80.5520153  22.7215886  36.1334968
  80.8235168  24.0361071  35.4339910  32.9099202  34.5689797  17.6162982
  32.7046037  34.1567159  16.7771828  32.9974890  35.4997492  17.4107945
  77.1655846   3.7336463  20.9662843  77.6041555   3.1548649  20.3426671
  77.8518009   4.3325484  21.2606668  19.8941982   6.0397112  46.5499592
  20.0153232   5.1891595  46.9720030  19.7636008   6.6505492  47.2752523
   4.1786399  54.6091509  70.1048756   3.5955453  53.8950729  69.8473310
   4.6106684  54.2914629  70.8977556  86.3144970  53.0081606  11.3122547
  86.7169189  53.2083511  12.1573699  87.0049191  52.5679588  10.8164978
  89.3685627  10.5507112  28.6409330  89.2459106  11.3924873  29.0797949
  90.1967239  10.6444502  28.1701946  54.7548771  67.2119761  73.4429264
  54.4850540  66.4794350  73.9968348  55.1243210  67.8502607  74.0531158
  16.0229349  50.6642914  19.9739182  16.9644785  50.8239841  19.9089015
  15.8080757  50.1727057  19.1811955  14.2443013  40.2611876  44.8275423
  14.6529579  39.8263955  44.0790844  14.6850955  39.8884249  45.5910730
   4.0773380  46.3387585  22.6231003   3.7517893  46.9760084  23.2588387
   3.3659473  45.7045698  22.5338864  39.0928793  17.1186090  24.5915270
  39.4011211  17.6587713  23.8638973  39.8289394  16.5391803  24.7882748
   3.5922953  38.5346007  33.8931274   3.5308599  37.6985765  34.3552113
   4.4956109  38.8191748  34.0319467  11.0164881  37.8668761  50.2707863
  11.4473891  37.7454305  51.1168385  10.6991220  38.7697053  50.2910423
  32.6639843  30.4352856  42.0917130  32.7046609  30.7653141  42.9892969
  32.7346492  29.4850230  42.1824884  62.1146441  49.1952038  40.2843523
  61.4712334  49.6340227  39.7278500  62.8236341  48.9555120  39.6876025
   0.4325250  45.4165745   8.0032182  -0.2673635  45.7948399   7.4709553
   1.1406843  45.2466774   7.3820275  11.0627198  72.3240232  56.0296822
  11.9951475  72.5265074  55.9534645  10.6209111  73.0827856  55.6484842
  71.8664265  66.1211252  32.0289731  72.3026800  65.7197618  31.2774253
  70.9633207  66.2518978  31.7399597  77.6953077  57.7883244  51.1998081
  77.3155928  58.6198568  50.9158993  78.0369711  57.9677153  52.0757723
  20.4606223  37.8059292  29.8239589  20.8574128  37.9406190  30.6845689
  20.7494473  38.5577869  29.3067312  68.4896755  23.0731535  30.9257317
  67.6656437  22.5945449  31.0159492  68.8717031  22.7412653  30.1132464
  27.7311373   4.6663821  46.8368340  27.5892591   4.6779457  47.7833891
  28.3550024   5.3750873  46.6794825  80.7130623  32.6835799  61.9632578
  80.3422165  33.4678912  61.5588284  81.6375828  32.7008462  61.7158747
  51.2974358  31.2195706  72.4180651  51.8045044  31.2831950  71.6087008
  50.6063747  30.5879617  72.2187185  15.4388177  27.1221924  38.5655475
  15.2232277  26.2955666  38.1337571  14.8900354  27.1330404  39.3497372
  81.9001389  76.7160797  15.1044488  81.2735844  77.1953821  14.5622897
  82.7437210  77.1272182  14.9158847   8.5628200  34.2840815  29.3487453
   7.7168179  34.3522573  29.7913098   9.0271091  35.0840950  29.5950055
  79.0166903  52.2323799  15.9138215  79.1049290  51.2861300  15.7995307
  78.2851791  52.4750137  15.3461480   5.4614091  27.1808553  11.6803813
   5.8937347  27.4414492  12.4936569   6.1780727  27.0495653  11.0595846
  87.4806786  71.5706635  55.8367348  86.8923187  70.9750843  56.3007927
  88.2680511  71.6012001  56.3801813  28.6983252  69.9193001  35.2697849
  27.8575468  69.4766808  35.3855872  29.3498731  69.2246103  35.3652906
  26.1801052  51.8367624  30.5700636  25.7789445  51.0480976  30.2049422
  26.6009545  51.5398598  31.3768888  55.1668262  78.6545753   0.0715644
  54.9859905  78.8044262   0.9995049  55.4358625  77.7371359   0.0250873
  42.2044659  82.4988556   5.7280123  42.4084330  81.6464996   6.1128700
  41.7277431  82.9641247   6.4153969   2.2287390  17.4698400  24.2489195
   2.8407365  17.4079347  23.5155320   1.4748612  16.9466412  23.9765930
   1.9090660  69.6511745  38.9132071   1.9637603  70.3948927  39.5133090
   2.0901209  70.0253296  38.0509663   7.3023742  18.1268132  48.0583715
   7.5365937  18.9642537  48.4584570   8.0422926  17.9186380  47.4879169
   0.7592423  65.5292559  47.5375175   0.5259012  66.2875509  48.0730295
   1.6040634  65.2421618  47.8840494  69.5063591  56.9370508  11.6527581
  69.9288988  56.7106724  12.4812770  68.6226130  57.2084427  11.9009054
  19.5265448  23.5445023   8.3719522  19.8563266  24.2630577   7.8323650
  20.3133321  23.0871940   8.6687100  11.4209759  12.4105394   9.4963181
  12.3006666  12.5907218   9.8278451  11.0566747  11.7778111  10.1153266
  67.2897577  67.1520233  65.1903868  66.8056822  67.6223326  65.8691454
  67.8930044  67.8029776  64.8318052  88.5798740  25.9862065  67.5524521
  87.6941967  26.3245416  67.4207830  88.7511826  26.1198139  68.4846735
  90.0920200  57.6680136  55.2330828  90.7423401  58.2624722  55.6071568
  89.6034718  58.2078362  54.6116829  67.9020786  45.7082653  15.0108635
  67.9163647  46.3412619  15.7287347  68.6066008  45.9912586  14.4279444
  78.3611488  16.0775387   5.0989693  78.4247875  15.3207588   5.6816077
  77.6314640  16.5886462   5.4490525  66.7921162  10.0851977  69.4797277
  67.2407818  10.4466259  70.2441216  66.0210180   9.6469045  69.8396397
  34.5321155  31.2405872  40.1385593  33.8692188  30.9263349  40.7534170
  34.3511844  32.1762395  40.0488377  24.2843032  27.9151344  28.2443833
  24.9541259  28.3972478  28.7292933  23.6621332  28.5862494  27.9637742
  21.0351801  76.2616920  71.6325474  21.6600513  75.7092047  71.1629486
  20.8087468  76.9511223  71.0083294  27.8387809  38.1324649  25.2210450
  28.4537864  38.6331034  24.6849823  27.6613283  37.3437476  24.7085357
  14.9918973  52.3803902  11.5705526  14.5131981  53.1722784  11.8154848
  14.5267510  51.6720295  12.0156336   5.2049786   7.4262840  36.4494967
   4.6503055   6.9783306  35.8108187   6.0897356   7.3526722  36.0916996
   3.6468953  19.7612679  66.3345003   3.2139686  18.9108026  66.2602282
   3.5307255  20.1650810  65.4744577  19.2347002  48.5646200  30.7687807
  19.3075645  49.1342306  30.0029683  20.0880218  48.1352901  30.8300066
  74.0804434  35.0502253  25.7841897  73.7757778  35.2007484  24.8893428
  74.4335699  34.1606474  25.7705283  82.1041393  48.6513901  25.0524449
  81.6965961  49.3872213  25.5092740  81.5581417  48.5184956  24.2775512
   5.9630942   8.0021030  29.4572997   6.2067479   7.3085248  30.0703359
   5.5355513   7.5432897  28.7341619   6.1290395  24.7346640  14.5792592
   5.5525059  25.4889584  14.7012365   6.3247192  24.4366360  15.4675841
  13.8813269  76.6730642  58.0010366  14.6135759  76.7256832  58.6152649
  13.2771313  76.0479975  58.4016275  19.6820867  18.9176548  31.3084793
  19.6912754  18.1712222  31.9076324  19.0122986  18.6970103  30.6612301
  16.0923612  11.1556828  68.8582230  16.9470441  11.5582919  68.7044191
  15.8602154  11.4192224  69.7486639  77.5346136  37.6328182  58.9510965
  77.9501963  38.3523393  58.4759045  77.2851515  37.0083714  58.2698727
   9.5812082  54.0478945  31.8536258   9.6347696  53.1013584  31.7215896
   8.8930273  54.3348885  31.2533998  66.7992067  16.6962969   2.7012783
  66.2673616  17.4912167   2.6628485  66.1630106  15.9864604   2.7885672
  51.0289383   0.8272853  68.8500118  51.6829538   0.3004995  69.3093538
  51.0214758   0.4766325  67.9593849  25.8835554  38.6723495  61.8706274
  25.7986426  38.4854293  60.9357071  25.2209949  38.1205940  62.2863340
  86.7619991  45.3819656   6.9073111  86.3150597  44.9160528   6.2006283
  86.5139103  44.9080420   7.7010876  29.1113520  40.1035929  23.3655572
  29.8290372  39.7506452  22.8396392  29.1716480  41.0515785  23.2475638
  81.1066914  23.3826208  22.5928116  81.9721127  23.2674789  22.9852605
  81.2561131  23.9690399  21.8511820  86.7301083  44.9505329  36.0382438
  85.9959316  44.5011568  36.4569163  86.3195133  45.6043863  35.4724550
  28.3883476  66.4195061  32.1982193  28.0100703  66.1709881  33.0416512
  29.0600300  67.0651245  32.4178791  18.5269451  35.4695272  33.8594127
  19.1184103  35.2900863  34.5903039  17.6571941  35.5027580  34.2577338
  59.8267889  33.6691165  37.5295925  60.2070713  34.0964985  36.7621541
  59.0158606  33.2756615  37.2073817   7.9420215  43.6178493  30.2652383
   8.5243571  43.8730812  30.9807634   8.5309786  43.4066391  29.5408416
  11.8138111  54.3292809  70.6420040  12.5843883  54.8336029  70.9029627
  11.7146420  54.5099020  69.7072458  52.1987438  82.9806232  48.7506676
  52.9112577  82.5799084  49.2486477  51.7266321  82.2401047  48.3699131
  23.1673741  63.3421421  46.4208555  22.5382066  62.7097034  46.0738659
  24.0210938  62.9331303  46.2790728  10.1399195  40.5620432  22.8591681
  10.4989159  40.8261919  23.7062693  10.8507550  40.0787830  22.4379706
   5.7104558   8.7086362  40.9995794   5.0135273   8.8448972  41.6414165
   6.2820768   9.4696164  41.1015177   2.9102921  51.7938280  37.6914263
   2.3318624  51.2134123  37.1966815   2.7056891  52.6703501  37.3657322
  37.9776239  25.3594637  61.6056490  38.6575365  25.0133491  62.1837091
  37.8469992  26.2602091  61.9020033  14.9947774  50.7471991  47.4988031
  14.5265698  51.3574457  48.0685472  15.9019542  50.7845592  47.8018999
  29.0565228  34.4849825   1.9257616  29.6996593  35.0712323   1.5271136
  28.7222886  33.9640665   1.1955806  34.0372705  30.3608274  29.2679071
  34.9211860  30.7235861  29.3256164  34.0396833  29.8519254  28.4572029
  48.6500072  64.7548056  53.9232445  49.1155529  65.5817986  53.7984228
  47.9425287  64.9677086  54.5318365  18.5172939  53.9062977  32.7814436
  17.6677608  53.5513544  32.5196409  19.0411532  53.8891554  31.9805026
  38.5468268  21.8624520  10.3124762  38.8131452  21.3973284  11.1055505
  38.0973434  22.6444316  10.6329548  79.1616201  50.9315872  21.1717725
  79.4224691  51.6297102  20.5710936  78.2549620  50.7374287  20.9340668
  33.2800460  10.5773461  23.6778426  33.1397367   9.7844613  23.1602740
  33.5595918  11.2336493  23.0396008  87.7870369  48.8967276  54.1914511
  87.8805828  48.8944769  53.2388353  88.3057976  49.6471310  54.4812870
  53.9698744  84.7984409  25.2322149  54.8411465  85.0279617  25.5553746
  54.0277052  84.9152088  24.2839265  40.8487558  18.5570264  18.4026229
  40.6969309  19.3919230  18.8454843  40.7626534  17.9002464  19.0936077
  19.2947757  43.0389071  41.7184019  19.8203003  43.2641745  42.4860668
  18.3997941  42.9737473  42.0515585  10.9701681   3.9409393  12.2245610
  10.7529831   4.5475337  12.9324496  10.9545565   3.0769452  12.6362681
  20.0832891  43.0068302  39.1586876  20.6530237  43.7485886  39.3622184
  19.5972502  42.8489876  39.9680614  83.3208466  82.5721169  12.4730587
  82.9894066  82.4478245  11.5837133  82.6149464  83.0294418  12.9299998
  83.7579632  31.9779873  49.8179817  84.6290588  32.3364854  49.9879503
  83.6539364  32.0413804  48.8685656  11.7969656  60.4090166  32.4177098
  11.1514735  60.3012180  31.7191744  11.6501367  61.2966013  32.7446151
  31.3688016  20.7444620  25.1866364  30.8954930  20.7474446  24.3546486
  30.6817126  20.7385731  25.8530498  88.9563084  67.2230530  21.7317414
  89.1111469  68.0536366  22.1816134  89.2589855  66.5565491  22.3484993
  28.9341807  40.1212358  14.0745914  29.3563080  40.5217648  14.8346019
  29.6231079  39.5965028  13.6668277  25.5700970  26.3246846  38.5168433
  25.5206704  25.3750443  38.4074426  26.4971972  26.5314627  38.3986855
  89.0257740  62.9786444  12.3146749  89.1709995  63.7549353  12.8555179
  88.2009792  62.6140213  12.6356053   4.5324954  74.3277407  50.2171421
   5.3070784  74.7248888  49.8189878   3.8068205  74.8861408  49.9381876
  52.5541019  62.9890394  56.4977264  52.4482584  63.2298088  55.5773687
  51.6665316  63.0135012  56.8552971  28.7336636  31.5713978  33.6953878
  29.5086884  32.0403290  34.0046954  29.0105462  31.1673188  32.8730202
  43.1103039  75.2531290  10.4416895  42.5531340  75.1595736   9.6690059
  43.9155626  75.6500721  10.1096773  83.5396004  30.3312325  41.2488985
  82.7501678  30.0735331  41.7249489  83.2452106  31.0184383  40.6511402
  23.1091213  54.0108728   7.2970158  22.8197289  53.4699154   6.5622723
  22.5946808  53.6987782   8.0414474  21.8158674  53.3094358  21.1716986
  22.2963715  52.8814793  21.8803596  21.6246510  52.6050234  20.5524468
   0.2500911   6.1858237  71.9644785   0.4042105   5.2484888  72.0823002
   1.1261235   6.5697551  71.9271183  14.7604895  55.9807539  43.5988569
  13.9410806  55.9429550  44.0921879  15.3405154  55.3677750  44.0505838
  88.1140137  34.7296381  45.4172516  87.3050976  34.6370101  44.9139690
  88.5553169  35.4829574  45.0248337  91.4833736  42.5538158  48.1387329
  90.9057808  43.0712652  48.6998606  90.9562969  41.7955446  47.8868628
  15.0665987  49.4342756  42.5716305  14.9161518  50.3122568  42.2212791
  15.8821929  49.5105171  43.0668306  63.7808847  58.8171816  52.3691368
  63.1681824  58.5016680  51.7048502  64.0298033  59.6915007  52.0694017
   6.4244926  18.7011337  32.1573067   6.1586088  19.2072320  31.3895822
   6.5411639  19.3550014  32.8465652  24.6718001  62.4237204  40.8999681
  24.7166705  63.1019020  41.5739822  25.4042673  62.6182985  40.3152800
   3.1681445  44.5102072  31.7409110   3.2003459  45.1224232  32.4760222
   3.1689444  43.6447287  32.1497869  18.0587137  41.9100189  37.3389697
  18.6576402  42.4084139  37.8949594  18.4976339  41.0696650  37.2071052
   3.7135580  31.4058852  68.6166334   3.2837224  32.1820474  68.2574081
   3.6540174  30.7542133  67.9180574  11.7972207  51.2818432  17.5405002
  11.6153944  51.0953283  18.4615767  11.4565063  52.1657705  17.4033284
  13.0783761  52.4071074  43.4298658  12.4783778  51.6648388  43.3572721
  13.7803853  52.0927954  43.9996243  62.1234608  31.5450883  69.3260527
  62.6312256  30.7812691  69.5998907  62.3168325  32.2105217  69.9863815
  35.9234047  85.5063820  56.6582346  35.7422733  85.6107712  55.7241440
  36.8248630  85.1864052  56.6931105  72.4641323  85.7512665  34.3034887
  72.4604368  84.8413277  34.6005011  71.5711451  86.0581017  34.4605327
  77.9620886  70.7714415  29.7984409  78.1241131  71.4913225  29.1887283
  77.2319603  71.0744476  30.3381920  12.1663916  28.4709144  56.3945389
  12.3808575  27.5544333  56.5685987  12.5952423  28.6630464  55.5606318
  11.4404333  47.9913902  39.0792561  11.8666434  47.8501797  38.2338929
  12.1592951  48.0014086  39.7112107   3.4976551  58.7750530  37.7623582
   3.0554768  59.0106583  36.9467592   3.3854863  57.8268862  37.8303671
  40.4068136  29.9797153  21.3148570  41.0116911  30.1681709  20.5973339
  40.7710648  30.4498076  22.0649052  33.5589743  34.1135025  41.2337112
  32.8426671  33.8819432  41.8249130  33.1235504  34.4109154  40.4348469
  53.7142563  19.4965672  68.5316133  54.0567112  20.2188373  69.0581894
  54.2662048  18.7493086  68.7622404  25.3135467  54.4077969  29.4686723
  25.6496000  54.3809652  28.5728049  25.6111145  53.5868645  29.8607922
  10.0012302  71.4388180  53.6018562  10.2617431  71.6529512  54.4976902
   9.5081753  72.2042036  53.3063698  74.9771261   8.9939255  69.7561121
  75.5260324   9.0098995  70.5401230  75.4692936   8.4629911  69.1299248
  23.8416839  58.1128883  48.4373188  24.6682167  58.5952473  48.4574556
  23.3240652  58.4949589  49.1460657  40.6568623  75.8012724  49.6842098
  39.8947501  75.5623436  50.2117777  41.3153553  76.0725689  50.3237534
  46.0085154  84.1618061  66.5521765  45.0839758  83.9809132  66.7217255
  46.4777851  83.6434555  67.2058773  12.6693749  86.0813808  55.0240803
  13.6125886  85.9710598  55.1441145  12.2860348  85.7771206  55.8467007
  48.3269930  73.6372185  30.3559470  48.9443254  73.0088091  30.7304287
  47.9877281  74.1184807  31.1106110  79.5440292  69.1879654  16.1768627
  79.4319773  70.1381207  16.1472440  80.2764416  69.0146160  15.5854654
  84.6009064  65.3383780  25.2969003  85.0249195  65.1201773  24.4669437
  84.9640751  66.1915827  25.5343580  83.1573105  80.2953911  22.8026819
  83.6083317  79.4586802  22.9155445  82.6385307  80.1823235  22.0062447
  15.0219738  39.2897105  66.7748117  15.8155537  39.2479706  67.3084021
  15.1248693  38.5835242  66.1368847  34.0625143  75.5773735  45.1630926
  34.1938663  75.5832005  44.2149639  33.1468105  75.8306456  45.2795887
  17.3113203  69.2482662  20.7195711  16.7847753  68.8051414  21.3848710
  18.1184280  68.7358332  20.6724453  31.4767658  78.4158639   0.7170878
  31.6081646  79.3593029   0.6228076  31.0943917  78.1427793  -0.1168479
   6.3096917  74.5284891  27.3006821   6.1880815  75.4581642  27.4934173
   6.6950446  74.1668367  28.0987692   2.3474279  59.7556686  35.5959606
   2.7934310  59.7810793  34.7493982   1.5957892  60.3384829  35.4882741
  39.5220613  43.3871794  71.3689041  40.2750206  42.9200315  71.7309237
  39.8475957  44.2711973  71.1992788  22.4536204  83.2493782  36.0169792
  22.2535205  84.1543484  36.2561750  22.6018929  82.8078079  36.8531990
  38.5373235  68.3685637   8.2773721  39.1085196  68.9734793   8.7507051
  38.2799506  67.7199268   8.9325535  14.4820178  56.9973183  53.0043554
  15.2693725  57.5016403  53.2091951  14.5348394  56.8433809  52.0610952
  56.1619091  46.8281555   2.3010458  56.0278606  47.3442745   3.0959564
  56.6846418  46.0790682   2.5871521   3.5837480  81.2081051  54.7215700
   3.4856793  81.1658573  55.6727982   3.0561846  80.4797554  54.3938208
   3.4995541  43.2459307   9.2342061   3.9044106  43.0594397  10.0812864
   3.6304444  44.1856909   9.1078949  37.1319294   5.0606453  52.0187044
  37.0436072   4.1150457  52.1381712  37.6864147   5.3431898  52.7459955
  71.4576483  49.3174553  28.3162236  71.3254118  49.5524120  29.2346692
  71.0227585  48.4701157  28.2207537  13.9646161  59.2553616  23.1938720
  14.9192762  59.1899395  23.2178903  13.7324166  59.6753979  24.0220547
   4.8728326  34.8369622  33.6172223   4.6848273  33.9003038  33.6768746
   4.4672179  35.1107502  32.7945757  35.1659584  17.7474213   7.6833093
  35.4980850  16.9071960   7.9994518  35.9022141  18.1324792   7.2080314
  20.8982801  70.7555246  59.0485716  20.6772828  71.6418648  58.7625837
  20.8169389  70.7841778  60.0018787   8.5487449  82.7604485  58.9680290
   9.1962767  82.7840996  59.6725655   8.6739564  83.5858917  58.4998369
  84.9662876  54.5861673  52.0162916  84.9145031  54.2784739  52.9212093
  84.6053123  55.4722738  52.0435858  28.4822726  24.9582314  37.4468517
  29.1158843  24.6456289  38.0926442  28.7829304  25.8390427  37.2232270
  13.6832023  75.8899641  13.3654165  13.6592960  75.5003881  12.4914098
  14.6143913  76.0220623  13.5433745  80.1571751  39.1973019  74.4262791
  79.5274782  39.9129987  74.5128155  80.1686478  38.7827468  75.2889729
  15.5574727  39.1624689  46.8673468  15.9055805  39.0523839  47.7521801
  15.7134426  38.3192778  46.4419842   9.3654585  58.1126547  61.1275196
   9.0362275  58.0844450  60.2291632  10.3176451  58.1378412  61.0329723
   1.0928688  36.4488053  67.6726151   1.8178636  36.9231987  67.2657156
   0.3856625  36.4944386  67.0291805  61.6246319  65.1941204   6.5213251
  62.5337362  65.4340506   6.3419068  61.2511158  65.9685087   6.9420946
  30.1421356  34.5164037  29.9992871  29.3723869  34.0826845  30.3675342
  30.7005429  33.7992001  29.6992326  68.9197636  53.8197136  17.6247978
  67.9819489  53.6538506  17.5287294  68.9722776  54.7212887  17.9420221
  83.5657787  32.6399398  60.9541798  84.0071487  33.4670830  61.1471939
  82.8812981  32.8742671  60.3274345  29.5499110  48.8276529  33.9598179
  29.0099931  49.1220093  34.6933532  29.9334812  49.6306944  33.6073542
  26.9296837  45.1449776  32.0850062  27.8787875  45.2587748  32.1348715
  26.7697501  44.2895555  32.4836349  18.1727433  50.4954910  39.4580388
  19.1246033  50.5653238  39.3851018  18.0307794  49.9696779  40.2451849
  85.7390499  45.6612492  30.5833960  86.3069344  44.9108696  30.4082465
  86.3122559  46.3025236  31.0034466  24.2759633  44.8941708   5.8501589
  24.8690176  45.4444838   5.3386223  24.8509383  44.4049072   6.4385951
  60.5663349  86.3658205   2.5512329  60.8547737  85.4601626   2.6644486
  61.2714054  86.7814741   2.0549086  31.5221643  47.8042507  49.3164444
  32.3391104  48.3020115  49.3491268  31.6784286  47.0498991  49.8845720
  27.5319171  53.2798529  22.7432847  27.9423404  54.0309381  23.1718373
  27.5540233  52.5863171  23.4026408  48.1223679   6.7689091  45.5506802
  48.7587929   7.0808858  44.9073601  48.5927773   6.0998333  46.0479546
  51.5587091  27.3729897  36.2092900  51.4456463  26.7441916  35.4965043
  51.7889452  28.1924725  35.7714844  31.8249702  69.2545080  15.9131169
  31.7566633  68.3876181  16.3132036  32.3131561  69.7749567  16.5511167
  10.1489747  52.5106955  27.4760389  10.5571795  53.2809639  27.8713679
   9.2717707  52.4818850  27.8580284  82.4382210  48.7766171  20.2137089
  83.2938480  48.3530283  20.2823544  81.8109131  48.0847120  20.4234338
  75.4202652   2.4189520  34.9864197  75.9656096   2.1152999  35.7121086
  74.9780369   3.1961125  35.3280139  72.8617048  72.2175121  17.1310472
  72.1705723  72.3570395  17.7784264  73.6479139  72.5817966  17.5377405
  86.3654518  39.4831133  17.2158074  86.5081692  39.4229937  18.1603980
  87.0293236  40.1022482  16.9122005  26.7386103  77.9478073  62.4527121
  27.6805639  77.7926397  62.5225449  26.4828849  78.2630634  63.3195734
  84.0863419  72.0431900  54.0703344  84.4450378  71.9609118  54.9539614
  84.7758865  71.7043638  53.4994173  63.7744141  54.2108393  17.9853129
  63.2195520  53.6284876  17.4664462  63.2729769  54.3697643  18.7850213
  16.7026854  32.1644759  52.3027706  16.4092958  33.0710483  52.3937607
  16.0066307  31.6458368  52.7062035  43.5380363  64.0932274  21.0203171
  42.7985334  63.4892225  20.9528947  43.1350088  64.9519253  21.1485434
  45.1834631  70.1260328  22.5662708  44.2796755  69.8994732  22.3470283
  45.2699184  69.8974895  23.4917569  86.0153961  39.0554690  14.7202659
  86.2549019  39.1532803  15.6418419  86.0410500  38.1112885  14.5650387
  12.9952919  75.3579426   7.1067607  12.1456385  74.9670315   7.3104960
  13.0379534  76.1391306   7.6582658  22.7911520  68.8292265  25.9408021
  23.4293389  69.4270992  26.3300347  23.0222487  68.8035870  25.0122714
  14.4542420  69.1198397  54.0005112  14.7936249  69.4647408  53.1746197
  14.2056191  68.2176828  53.7991858  17.5689125  75.3650475  42.9771471
  17.7655458  74.4733667  43.2643223  17.9219997  75.4139185  42.0887899
  25.8620715  57.6691818  16.5946209  26.4781022  56.9389248  16.6534245
  25.4958582  57.7451515  17.4757278   0.0165895  44.7142839  12.4949849
  -0.3908455  44.5090342  13.3364725   0.6869136  45.3642988  12.7056456
  11.4291120  71.2741041  17.7868390  11.2659836  71.8465376  18.5364687
  12.0971406  70.6613636  18.0942786  21.8441153  74.1911602   8.4293878
  21.1973715  73.6609650   8.8950545  22.0011592  73.7155724   7.6136774
  21.6600847  65.0714207  36.8404698  20.9538507  65.0328207  36.1955070
  22.0247555  65.9511566  36.7439651  89.2398262  65.4030848  26.8136477
  89.6526337  65.0117111  27.5834870  88.5546398  64.7817183  26.5673685
  18.0198801  72.0573711  44.5736456  18.3617413  72.4534082  43.7720728
  17.6834702  71.2055540  44.2953205  47.2857618   3.0071953  51.0116720
  46.6738367   3.6577418  51.3560104  47.5178051   3.3332896  50.1421642
  77.4820518  42.4721241  55.2623081  77.6143456  43.1470251  55.9280682
  77.5475740  42.9405165  54.4301128  81.1432362  27.1269107  10.3202689
  81.4179420  26.5564275   9.6024132  80.7377720  27.8782201   9.8874098
  85.6503201  76.0840368  65.8627653  86.1968803  75.3944206  66.2395096
  85.7033825  75.9421921  64.9176216   9.1175914  25.5989742  32.5331092
   8.5507137  24.8382115  32.4061346   9.9318361  25.3682423  32.0858955
  61.5313816  12.8020585  35.4073548  61.2622499  11.9073927  35.6156111
  60.7532024  13.3323526  35.5789781  42.2820807  61.1264324  44.3687296
  41.5297318  61.2853003  44.9387884  42.0769501  60.3033638  43.9252138
  27.9186940  31.5194917  29.4537044  28.5704684  30.9247255  29.8247528
  27.5107741  31.9326854  30.2146935   9.6215254  57.5478458  27.2511530
   9.5344687  58.4989929  27.3141456   8.7865889  57.2090006  27.5741053
  23.9417100  37.9470992   6.3531613  24.1043496  37.1178436   5.9035897
  23.0679464  38.2093287   6.0633278  35.4180694  79.3755674  38.8086629
  35.1154232  79.9279404  39.5294380  34.7084284  79.4087934  38.1671524
  26.8002653  40.6055975   0.4282245  26.8512058  40.5615854  -0.5266053
  26.0350919  41.1537409   0.6022438  26.1394167  65.6215429   9.2760766
  26.2598920  64.7242641   9.5868909  25.1905942  65.7477951   9.2706996
  33.4837866  25.6690383  22.7469420  33.5556793  24.7711372  22.4231529
  34.3324685  26.0642457  22.5474882   3.1068322  43.8260746  29.0812802
   4.0188175  43.9151573  28.8045526   3.1304958  43.9554834  30.0293970
  49.6043873  70.2487993  22.5528741  50.4225063  70.4416895  22.0949316
  49.5281029  70.9415340  23.2090211  19.0527797  43.6681652  61.4613199
  19.3726647  43.1990814  62.2319460  19.8405337  43.8554621  60.9508371
  53.5458899  13.6707759  41.4774418  53.5324907  13.7787604  42.4284363
  54.4731617  13.5744154  41.2603760  88.0944633  53.5118818  60.7568121
  87.6900005  53.9445162  60.0048351  87.5180054  53.7206984  61.4918804
  43.1707335  84.4251919  50.0590515  42.9022884  83.8203239  49.3674612
  43.1968594  83.8876057  50.8505917  20.2908754  80.1194096  64.2020655
  21.0798383  80.2937698  63.6888695  19.7175419  80.8640671  64.0203810
  26.2550497  77.0884514  36.8087292  26.0626698  76.7340517  37.6768446
  25.9209752  76.4285088  36.2011909   5.5871224  70.0959253  51.9463253
   6.1415637  70.2756119  51.1870241   5.1836717  69.2496204  51.7533875
  58.5388231  23.9473081  42.0078421  57.9934120  23.8745809  41.2245989
  58.0316401  24.5000196  42.6024055  84.7477531  47.5108814  51.5150690
  85.5036736  46.9776535  51.7609835  84.9484539  47.8175545  50.6308174
  49.4637775  61.5892601  35.1784492  50.3730631  61.4977980  35.4631782
  49.3810558  60.9826994  34.4426012  27.1345878  59.8171997  24.7462368
  28.0147099  59.9696398  24.4021749  27.2090816  59.0016651  25.2417994
  54.3305445  58.5680628  36.8979955  54.3574619  57.6806879  37.2558641
  54.4928741  58.4537125  35.9616160  79.4620419  68.0463457  41.6776323
  80.3329563  68.0317402  42.0745325  79.4820213  67.3415661  41.0302353
  22.1873546  34.7822714   6.4559597  22.9848099  35.1240730   6.0516518
  22.0948148  35.2848291   7.2653437  60.8018637  79.4040728  19.9824190
  60.0422621  79.6517181  20.5095887  61.4486980  80.0872993  20.1586032
  31.2180948  51.7403316  17.3474085  31.6165090  51.3931799  18.1455219
  30.8066034  50.9807444  16.9351768  30.5512714  70.9205580  53.9603233
  30.9001613  71.6496754  53.4475899  30.5428076  71.2437439  54.8612738
  60.8674431  49.2207098  10.4816985  60.7091379  48.8506699  11.3501704
  61.4080143  49.9934816  10.6455159  85.7346630  63.7271357  29.2596865
  85.0173187  63.9126492  28.6536837  85.7365894  62.7736425  29.3438292
   9.0916771  66.1190701  47.1259356  10.0150204  65.9837151  47.3388863
   9.0947640  66.8358803  46.4915800  86.8775845  56.6450453  13.0272233
  87.3210716  55.8132315  13.1934595  86.0779572  56.4011574  12.5610077
  11.4333928  46.2449455  11.8242824  11.0399187  45.5113316  11.3518202
  12.2009373  45.8684874  12.2548485  10.3831112  21.1949110  22.6348639
   9.8684609  20.5385232  22.1652651   9.8584092  21.4024043  23.4080815
  24.6345758  25.9811997  33.1964087  24.9243474  26.1022425  34.1006279
  24.0965319  26.7511415  33.0122185  77.1579599  50.5089903  37.7438951
  76.4153528  49.9508858  37.9747272  77.5100136  50.1201725  36.9431996
  15.8569479  67.3892403  39.9784088  15.8307159  68.0319643  40.6872416
  15.6017864  66.5650225  40.3928804  17.5453687  31.1556506  44.9178171
  18.3849585  30.8593464  44.5663548  17.7581978  31.9484472  45.4101658
  88.6019421  26.6633201  11.3465607  88.3009529  25.9618163  10.7690382
  87.9350281  26.7124581  12.0314217  39.3483353  14.2599726  14.9916971
  39.0886736  14.8758054  15.6769407  39.9199295  14.7686446  14.4165778
  89.0357685  38.9544296  29.4463754  88.2013893  38.8964939  29.9118686
  89.1366959  38.0992723  29.0283442   2.8837627  72.4941778  19.6599531
   2.7536061  73.4393501  19.7370267   2.8395218  72.1721077  20.5602574
  74.6375799  19.5625031  10.9114206  74.2478800  18.7207663  10.6751049
  75.5369282  19.5092833  10.5880499  59.5000792   4.2627543  30.3424382
  59.0040350   3.5440385  30.7343793  59.0386105   4.4551063  29.5261788
  22.5427032  20.0595093  17.2962165  22.1728134  19.7716403  16.4616227
  21.7909527  20.1102662  17.8865778  12.9311943  83.2034874  35.5779886
  12.7227533  82.5105667  34.9513769  13.6610675  83.6763859  35.1781297
  16.8364406  60.1956034  27.7561641  16.5697193  59.4107485  28.2348037
  17.7819061  60.2510262  27.8949213  13.1768918  49.6732521  53.3140326
  13.8076901  50.3901386  53.3803606  13.4603488  49.1749573  52.5474930
  22.8437519  85.6099892  31.9754839  22.1823668  85.0006390  32.3033404
  22.3637581  86.4233398  31.8195987  63.2576132  68.4601974  46.1040878
  63.8908958  68.9748335  46.6044235  63.6574793  67.5935841  46.0311460
   9.5663989  58.5027218  58.3161974  10.3456581  59.0574408  58.2805347
   8.8677776  59.0475416  57.9538012  25.1040745  31.4138365  22.8682470
  25.6890440  31.1813307  23.5893464  24.8934317  32.3354292  23.0183434
  13.2454455  72.2029543  23.4813952  13.7273192  71.6175699  24.0656471
  12.4253559  71.7423391  23.3038664  85.5907440  41.4346218  71.7698669
  85.9562111  42.2500563  71.4267492  84.6435165  41.5716314  71.7547417
  28.9551902  63.1218958  45.3442049  29.2508149  63.2540464  44.4434452
  29.2727947  62.2488880  45.5748796  29.3107057  58.9369202  27.5810719
  29.3424225  58.8642073  28.5349798  28.5942841  58.3580971  27.3204303
  23.2762122  60.5680466  35.8855653  22.4331284  61.0026264  36.0143399
  23.5068583  60.2313852  36.7514157  32.1603823  24.8681927  20.3317356
  32.0590949  25.2938437  21.1830831  31.2750578  24.5913577  20.0955248
  47.1817350  22.7753830  13.1989002  47.7842665  22.5828743  12.4804807
  46.7166185  23.5630131  12.9168773  31.0745263  53.3547688  10.2852011
  31.0378313  54.1118145  10.8698106  31.9921637  53.3028698  10.0178456
  21.3533902  35.3554749  45.2180719  21.5970683  36.1825681  45.6337309
  21.8006706  34.6862149  45.7360125  14.5190609  15.7536459  66.4972162
  14.8955405  15.3372121  67.2725058  14.9802160  15.3510845  65.7613420
  34.4191122   8.7589848  62.1513939  34.7616816   7.9095495  62.4294949
  35.0958395   9.1128635  61.5742970  26.2774396  58.9404345  48.1202364
  27.1822786  59.1923809  48.3046865  26.3413262  58.3514500  47.3684072
  66.3264894   3.3387077   3.3906212  67.0227337   3.8966739   3.7372410
  66.4256763   2.5113916   3.8617283  89.4369935   0.8849045  74.5328529
  89.7169637   1.6716190  75.0007503  89.8995685   0.1694103  74.9691139
  55.0291252   4.8680270  15.8191955  55.9627056   5.0067282  15.6597686
  54.7081900   4.4542751  15.0179195  79.0129852  35.4874992  34.5876646
  78.8297987  35.2578139  35.4986644  78.1531620  35.6719089  34.2096066
  34.7223210  54.2403269  16.5085173  34.3473434  53.6625290  15.8438575
  35.3651595  53.6963892  16.9636297  20.2252054  76.7657518  34.7263527
  20.9882903  76.5902472  34.1757798  20.0159550  75.9198189  35.1223946
  44.4580269  85.0744152  71.7081499  44.4516230  85.8238411  72.3035908
  44.1345263  85.4250622  70.8783150  50.8500528  -0.0975903  73.8857794
  49.9448919  -0.1334171  73.5765314  51.1947060   0.7187370  73.5237598
  35.1180816  59.2791224  46.5178156  35.9972024  59.1610956  46.1580324
  35.0259542  60.2264738  46.6191530  21.6965628  61.4019489  24.9322367
  22.2536874  60.7991934  24.4397688  22.2747684  61.7714977  25.5995774
  19.5026672  44.0866613  51.5095329  19.8437655  43.9677763  52.3959589
  18.6579418  43.6365080  51.5155792  89.9615097  54.1633987  15.6262362
  90.6813812  53.6030579  15.3363478  89.3446159  53.5632706  16.0451889
   7.1130896  63.1885147  10.7401705   6.3127768  62.6964712  10.9235406
   6.8067306  64.0080833  10.3519940  23.3539176  33.2448363  10.2177358
  23.7399983  34.1038489  10.0466454  23.3801460  33.1559110  11.1704350
  29.8607731  49.9782372  67.8681469  29.4561338  50.2851629  67.0567942
  30.0018239  50.7738304  68.3813334  26.5005493  11.7505789  43.0554867
  26.9049764  12.5868905  43.2862568  25.5622983  11.9379759  43.0271959
  87.8160381  43.4906006  46.3060856  87.9894352  43.0310678  45.4844999
  87.4269295  44.3228769  46.0374975  26.3164306  26.0594034  51.2575054
  27.1981692  26.3547373  51.4845371  25.9681535  25.6967783  52.0720243
  21.5012741  29.8271871  40.0731182  21.7281342  30.0770879  40.9688377
  20.5522966  29.7034311  40.0920439  33.8818097  70.3701210  48.6040068
  33.3962393  69.5526886  48.4932709  33.4834313  70.9723568  47.9756451
   1.6699339  47.3872805  10.3237283   1.1361623  47.2139978  11.0991597
   1.0342221  47.5393105   9.6244502  59.3725824  85.6077385  19.6519828
  58.5486364  85.6999683  20.1303554  59.3706512  84.7013855  19.3441522
   2.3627777  49.5574474  16.7497480   2.6535550  48.9983654  17.4702406
   3.0714604  50.1909399  16.6371071  66.1393929  54.3083811   7.8181982
  65.6430006  55.1224184   7.9028803  66.1453342  54.1281652   6.8781352
   1.3921109  13.1586862   6.9761884   0.9664345  13.5518980   6.2143385
   2.0859089  13.7760186   7.2080845  91.3121528  68.5103416  47.7874088
  90.7514778  68.1920433  48.4949112  91.6855817  69.3242788  48.1254768
  81.9605064  80.4167080  51.5240622  81.5354061  80.3004837  50.6743526
  81.6125393  81.2448692  51.8546772  35.6682992   6.3220310  18.1756294
  35.1850653   5.8801651  17.4774373  36.5647721   5.9980083  18.0885899
  72.1683693  14.2681432  27.5779653  71.8028450  13.9137971  28.3885598
  72.5394917  13.5079026  27.1301508  40.8374643  56.1913395   9.3196929
  40.7143164  56.8030071  10.0455940  40.0724077  56.3261747   8.7604600
  71.9614124  43.5251474   5.4719275  72.5972700  42.8411150   5.2621275
  71.6558218  43.3062458   6.3522267  46.7328787  56.7416668  13.4945703
  46.5614367  56.0443687  14.1275084  46.7404652  56.2984991  12.6461744
  26.0132742  54.7593546  18.4438765  26.2566662  54.9294424  19.3538547
  25.1473641  54.3551445  18.4990942  38.6691165  59.6543360  12.5469780
  38.7271309  60.5562830  12.8621864  38.1081295  59.7066641  11.7731643
  49.8264267  86.1025488  22.3834133  49.0446665  86.0585252  22.9339957
  49.4898845  86.0824232  21.4875531  21.5895700  81.5992546  56.3728666
  20.8642030  82.1105671  56.0142040  21.8846178  82.1020031  57.1320868
  54.2071629   8.1518197   6.9872773  53.5145426   8.6545217   6.5585583
  54.2503119   8.5109955   7.8734839  54.4561195  11.8035519  60.3684187
  54.5620298  10.8743632  60.5724382  54.7137594  11.8778932  59.4495440
  18.1333268  68.2911825  10.9247184  17.6021695  68.9219379  10.4386604
  17.6591551  68.1612968  11.7460120   2.4611610  82.1258926  24.4661117
   3.0178866  82.7808380  24.8872137   2.8200462  82.0385551  23.5830450
  19.9717462  72.4797916   9.2379618  19.2051387  72.7459145   9.7456270
  20.3165102  71.7191505   9.7057164  62.5710249  15.6781733  64.1851091
  62.4914217  14.7478449  63.9744329  61.6674280  15.9845662  64.2617321
   9.4094533  63.7645340  19.1984129  10.2148414  63.2994509  18.9719617
   9.6763599  64.3930912  19.8691642  28.8920808  54.0242767  26.8441582
  27.9856896  53.7176228  26.8696737  29.0648985  54.1838884  25.9163165
  27.8807878  82.7434826  42.8966331  27.0949435  83.2879162  42.8489971
  28.3474541  83.0635262  43.6686611  22.1537733  81.4955139  42.9620171
  22.0548749  81.3032150  42.0295620  22.6560688  82.3099613  42.9866457
  90.4391956  48.3855486  61.1458015  89.7274113  48.9680481  61.4109182
  90.7092857  47.9532528  61.9559908  21.9966316  74.6180201  29.0973759
  21.4448023  75.3210449  28.7546325  22.5172067  74.3341827  28.3459306
  21.2991285  61.5547180  51.5673256  20.7154465  62.2469997  51.2570190
  22.0146036  62.0207119  51.9999647  73.0329227  14.5010316  32.2719049
  72.9033327  13.5608685  32.1472764  73.6579609  14.7490323  31.5906882
  40.0869322  26.4734149  28.7347460  39.9009585  27.3126316  28.3136010
  40.8626890  26.1443067  28.2807422  13.0835104  49.8974705  59.6481228
  13.5502923  50.6809425  59.9388361  13.1804585  49.2785501  60.3718424
  83.8845062  65.8578873  38.8901210  83.0981445  65.3630495  39.1203284
  84.5857620  65.4389095  39.3890381   3.7364718  78.1577206  29.8154378
   3.7230662  77.8469086  28.9102054   3.4783819  79.0775919  29.7566819
  51.7121937  85.4171338  30.0724721  52.1860458  85.9883985  30.6769156
  52.2012474  85.4783588  29.2519188  31.0989499  44.8703432  28.6234355
  31.4728808  44.0153313  28.8364315  30.1653814  44.6992683  28.4992909
  32.6966858  30.7393718  73.6337185  32.3094893  29.9106216  73.3517933
  32.5414586  31.3372731  72.9025221  89.3073368   9.3685406  61.5481281
  90.1679707   9.4588351  61.1389875  89.4822121   9.4205099  62.4877834
  44.1921568  61.5468073  14.3596756  44.7507668  60.7732296  14.4356096
  44.7661591  62.2221851  13.9982617  78.8232851  78.5614681  26.3364911
  79.1380501  78.4606647  25.4381609  79.4371080  79.1766548  26.7377400
  23.0346155  65.6143951   7.4177295  22.7670550  66.5225458   7.5588280
  22.5501442  65.1168633   8.0764985  13.4061396  79.3024683  44.0933752
  14.1293359  78.6763239  44.1274881  12.6180637  78.7597561  44.1185284
  16.3034523  81.8803787  50.4310179  15.8798563  81.3386059  49.7652245
  16.2715459  82.7677631  50.0735760  22.3020363  27.9529929   9.4152731
  22.4092436  28.3451319  10.2818561  22.6948571  28.5869431   8.8152492
   8.2374412  66.6214752  41.2251759   8.0579722  67.0495510  40.3880501
   8.2577324  65.6873989  41.0170364  20.2224207  52.1870041  46.6072798
  20.1315856  52.5808811  45.7396126  20.7239532  52.8286362  47.1102715
  18.7419868  49.9637127  55.9046078  17.8762090  49.7243214  55.5739212
  19.3529248  49.5853519  55.2722883  23.9384294  39.9478006  70.2618122
  23.7653947  40.4838991  71.0356903  23.8466763  39.0461183  70.5696774
  14.4500113  82.1876621  16.5670860  15.0099587  81.9847107  15.8177543
  14.8949230  82.9103947  17.0097566  75.4901171   1.1239578  47.3320150
  74.5407534   1.2174160  47.4107838  75.6463432   0.1836985  47.4199820
  12.3528838  72.8772831  48.1132650  13.0750382  73.4816885  48.2847834
  11.9260359  72.7668715  48.9628792  35.0035286  63.8640404   6.7366004
  34.0482068  63.8593054   6.7963469  35.2155113  64.7165394   6.3564193
  43.5153055  74.6065998  50.8322906  44.1586542  74.5294905  50.1277447
  43.5485935  75.5286407  51.0871744  50.3833532  78.7866640   5.3694445
  50.3885221  79.5162296   5.9890705  49.4555521  78.5946417   5.2332777
  57.1701956   6.8477648  65.5296898  57.6077271   7.5734103  65.0844526
  56.3680410   6.7069024  65.0267601  35.7413077  53.2098007   3.8402018
  35.0655365  52.6081705   3.5277855  35.7846475  53.0524111   4.7833782
  33.0023146  65.2725029  53.4043980  32.9266095  65.4707003  52.4710083
  33.5152841  65.9970856  53.7622738  90.6534481  64.8166084  61.9747400
  90.4152107  64.0716457  62.5265598  89.9080563  64.9252653  61.3841438
  37.1081519   3.0968404  20.4653811  36.6451430   2.6152480  19.7798705
  36.4161968   3.4055558  21.0502982   8.7524831  45.4271221  41.6044283
   9.4768608  44.8137045  41.4810228   8.0500180  44.8959017  41.9793701
  55.3851223  72.4063540  52.6523876  56.2878513  72.7101517  52.5574255
  55.0156879  72.4742603  51.7719650  72.3796415  35.3739166  45.6458044
  71.6606951  35.7493305  45.1374578  72.1747446  35.5995274  46.5531921
   7.7842206  85.7336044  46.8416262   6.8975663  85.3732872  46.8574190
   8.1477869  85.5128098  47.6991224  50.2922964  60.1137495  51.9490480
  50.0553322  61.0188103  52.1514034  49.6161413  59.8198986  51.3385630
  58.3635235  60.5315113  52.3496437  58.9229393  61.2430096  52.6611805
  57.6154995  60.9733582  51.9478273  35.1723719  24.2846465  27.8497171
  36.0405421  24.5934606  28.1088471  35.3354073  23.4458065  27.4184418
   6.8144268  64.3714952  34.9437404   7.2006178  63.5211658  35.1535773
   5.8786803  64.1930294  34.8501468  33.5232115  77.7533197  21.8030500
  33.5429525  78.5055161  22.3946953  34.2824125  77.2286844  22.0572257
  52.2202921  76.6367245  20.3248739  52.2839928  77.2883654  19.6266341
  53.0494404  76.1601973  20.2841353  22.1389461  47.3965883  48.3825016
  22.8385520  47.2556448  49.0204000  22.1357036  46.6006517  47.8507948
  87.2994328  54.5351410  58.2250214  86.7191219  53.8591146  57.8750658
  87.5039768  55.0887823  57.4714470  16.7047322  72.9426765   5.4674870
  17.1073389  73.7571669   5.1662475  17.4173415  72.4666643   5.8939034
  90.0294113   4.0736291  38.5497284  90.1727295   4.9120116  38.1106305
  89.2887115   3.6836523  38.0854964   6.5110397  69.0465689  34.6598148
   6.0841256  68.8319731  33.8304019   6.1698776  69.9112797  34.8881030
  48.6648703  44.1682434  25.7559919  49.4182825  43.5899973  25.8752966
  48.5527039  44.2227697  24.8069501  22.6985145  65.5949259  42.5769949
  22.3923874  65.8198833  43.4555817  23.5192943  65.1244164  42.7225113
  28.1258893  70.3681278  16.2091017  27.3350191  70.8967066  16.1025238
  27.8018332  69.4815683  16.3679528  79.1238976  47.5123644  65.4303026
  78.2313347  47.1872854  65.5481720  79.1673136  48.2967186  65.9772253
  39.6190786   8.5586947  37.9232287  39.1241884   9.3728513  38.0152392
  40.4794979   8.7584341  38.2920265  74.7986698  19.7751343  15.8569276
  75.5770540  19.9693477  16.3790703  74.3240786  19.1202700  16.3689291
   4.9806455  69.0968895  31.6774440   4.2054960  69.5002413  32.0681930
   4.6312925  68.4324121  31.0835981  15.5993998  86.0313702  29.8947787
  14.8113358  85.5232620  29.7023845  16.1621821  85.8985519  29.1319776
  58.4065962  64.4290352  29.0441251  59.2479753  64.3599224  28.5929751
  57.9154301  65.0756025  28.5372353  26.8352032  73.9383554  37.5934958
  27.1737194  74.5261383  38.2688832  26.8165207  74.4719410  36.7990327
  60.8528662  83.0463600  59.2544651  59.8971891  83.0260277  59.3043852
  61.0497522  82.8302097  58.3430099  89.3881702  59.4325876   8.2323474
  89.5505333  60.2401018   8.7199819  88.5888481  59.6090269   7.7361709
  88.9281750  83.5269260  26.5558910  89.7826481  83.3204365  26.1771297
  89.1027927  83.6477947  27.4892354  77.7807665  11.1311209  31.5579391
  77.1628475  10.4031789  31.6250682  78.2697344  10.9568346  30.7537222
  15.5138755  18.4428620  66.4601994  15.7289886  17.5198996  66.5947390
  14.7690773  18.4300470  65.8590841  28.2782698  60.3779268   7.0681620
  28.6284971  60.2799416   7.9535836  28.4011507  59.5182800   6.6654956
  76.8619680  60.9207439  16.5199769  77.0289755  60.0888014  16.9629312
  77.2554731  61.5797949  17.0918536  57.6189232   3.4278437  34.4188523
  57.6223326   2.7509460  33.7420726  58.0576801   3.0214858  35.1662445
  76.6177273  67.5499582   4.2015937  76.1992788  68.4084177   4.2662552
  76.8150187  67.4492073   3.2703808  27.6436186  54.0643358  46.8484116
  28.5231161  54.4420242  46.8567848  27.7639222  53.1700897  47.1679163
  19.4817793  83.2072258  51.7921209  20.0261688  82.4738216  52.0784664
  18.6091912  83.0035686  52.1287870  37.8098655   3.0731910  28.0084062
  38.1769657   3.8668185  27.6190162  38.5109568   2.7326345  28.5640359
  53.2618380   8.1273651  34.4465232  53.9917183   7.6289505  34.0789771
  53.5960722   9.0211320  34.5220137   8.7901664  48.2855654  39.2326903
   8.4361207  47.5822783  38.6883807   9.7359002  48.1378841  39.2295480
  85.4908752  49.1415358  15.5540955  84.7937679  48.9194059  16.1712968
  85.2842999  48.6365843  14.7675943  66.7214489  11.6387486  44.7079945
  66.3588333  11.5836501  45.5921364  66.5960693  10.7629275  44.3426895
  50.8167267   2.2130924  13.6087382  50.6258345   1.3147131  13.3390975
  50.1169109   2.7348638  13.2160032  68.3083010   3.2204422  56.8779612
  68.0543470   4.1426855  56.9127035  67.6077080   2.7614772  57.3413801
  11.6568947  51.3146639  49.5717430  11.4966559  52.0175600  50.2014160
  11.5678585  51.7346191  48.7162018  25.1157045  34.8220801  51.6635084
  25.1287723  34.4679785  52.5527048  24.3254900  34.4520807  51.2699461
  13.7034023  58.7831163   4.4946766  14.5206726  58.3178234   4.3163460
  13.7713325  59.0430450   5.4134017  59.5719528   2.0690593  69.8008299
  59.4975758   2.2004655  70.7460451  58.7812948   1.5845734  69.5634222
  75.7247400   9.3077487  31.7911530  76.0867596   8.4216708  31.7845964
  75.0077677   9.2688739  32.4241376  25.7987905  74.6533632  28.2696867
  25.1000667  74.2202568  27.7793479  26.5990329  74.4296741  27.7944946
  40.0362158  12.8471923  64.8176718  39.6965909  12.3164260  65.5382109
  40.7379150  13.3653057  65.2118921  31.7315722  85.2664185  65.8167076
  31.0561872  84.7385025  66.2426090  32.1077085  84.6857834  65.1551819
  73.0736160   8.7889028  32.4193835  72.1286345   8.7406981  32.5640202
  73.4306049   8.0572295  32.9228187  38.7377620   2.2551554  52.3711348
  37.9633021   1.8800002  51.9519663  39.1616940   2.7635968  51.6797590
  39.5778108  78.8638020  35.5216503  39.0741134  78.9237690  36.3333917
  39.0767455  78.2604694  34.9728751  78.4375381  85.5903244  33.3939934
  78.7453127  84.8860741  32.8234267  77.8925610  85.1495552  34.0458751
  71.6566324   4.1928726  59.6287489  71.3944435   4.1665307  58.7085295
  70.8324909   4.2615497  60.1107311  72.6641846  49.5286655  69.8971415
  71.9700193  48.8747454  69.9793673  72.2473383  50.3532171  70.1473093
  61.5292406   2.9850125  26.8679142  61.1327076   2.3821366  27.4968290
  61.8702459   3.7006506  27.4043941  86.0869789  11.9163585  33.3567452
  86.4590836  11.6039145  34.1814542  85.1408291  11.9049239  33.5013318
  52.3157501   7.8788221  43.0517006  52.7599812   7.2630143  42.4688864
  52.8856516   8.6477250  43.0670261  72.7295256  11.1898971  27.8501129
  73.4070206  10.8257222  28.4198570  72.2755957  11.8308794  28.3972144
  63.9861393  80.7237339  36.4022207  64.8932600  80.4638767  36.5629649
  63.7298918  81.2000179  37.1919775  34.1847515  15.2220154  38.4913158
  33.8780689  14.3867362  38.1384921  35.0747204  15.0418055  38.7941551
  17.5459313  42.8358507  70.5302095  18.0575240  42.0804262  70.2406645
  17.1511316  42.5554943  71.3559008   0.1898480  20.0368333   4.4814417
   0.9088665  19.4188547   4.6131471   0.4489241  20.5454993   3.7130859
  85.8924866  18.9216673  22.1841764  86.7113304  18.7399697  22.6453805
  86.1515331  19.4688153  21.4427209   6.2472296  83.2668781  41.8536234
   6.9697130  83.0564499  41.2620401   6.2797385  84.2194366  41.9420242
  47.6931763  72.2212791  28.2349586  48.5164213  72.2194147  27.7466035
  47.8829288  72.7314329  29.0223408   7.1685469  12.8083181  18.3914793
   7.9058009  13.1124890  17.8621697   7.1352410  11.8644476  18.2358205
  23.3331990   9.0885901  22.0207548  22.9371977   9.1023493  22.8920889
  23.5807586   8.1740379  21.8845916  66.0143995   8.7455064  20.1740050
  65.9649277   8.2442540  19.3600452  65.7935524   9.6409142  19.9176800
  85.7135010  12.4356425  30.0769210  85.4440022  12.9114521  30.8625484
  86.6658306  12.5295615  30.0548959  59.5463562   1.8717159  18.6742234
  58.6585379   1.5291607  18.5709476  60.1001215   1.0922489  18.7190723
  15.4705751  75.7440519  72.2228289  14.6419919  75.8111143  71.7482948
  15.2306581  75.3746653  73.0726671  49.7628450  82.5047112  41.2350750
  50.6454706  82.8644085  41.3235474  49.1997385  83.1404972  41.6765690
  55.6942272  67.4705935  25.3692198  54.8671055  67.8346157  25.0536418
  55.7915592  66.6472340  24.8908496  77.2137737  20.1845002  30.4955983
  77.5005102  20.9756660  30.9517455  76.2715721  20.3045845  30.3769827
  62.3885822  12.0377159  38.7947321  61.7847633  12.6682603  38.4022427
  62.2743082  11.2416160  38.2756972  49.7802925  70.6060791  33.2233691
  50.0295305  71.3370800  33.7888312  49.8746872  70.9479856  32.3343158
  15.7881927  69.1184950  12.7507186  15.7040393  69.2379999  13.6966932
  15.8912635  70.0053072  12.4055040  26.5175605  30.9976768  67.7778196
  27.0170045  30.9789753  66.9614649  25.9613609  30.2197695  67.7361917
  64.4757605  86.0265160  18.2288039  63.8382292  85.7246685  17.5817502
  64.2197227  86.9300747  18.4138834  19.5936203  75.7012606  23.6204910
  20.3562689  76.2404156  23.8300395  18.9176488  75.9948063  24.2313313
  11.7345023   1.2823825  37.4615812  12.1401262   1.9683902  36.9313979
  10.9915471   1.7137261  37.8837109  65.6154537  76.0746431  16.0476685
  65.2008009  76.0376406  16.9096017  66.4785337  75.6824780  16.1800504
  51.4054203  10.7378733  44.3504000  52.1508360  10.6395340  43.7580156
  51.6051912  10.1577413  45.0850916  73.6721754  53.5376596  43.8502550
  74.5906067  53.2863855  43.7523937  73.1826067  52.8099251  43.4669113
  48.6662626  55.8915186  20.6897831  48.2265615  56.1368704  21.5038443
  48.1435633  55.1680851  20.3438663  53.8726282  37.3969984  34.2836142
  53.7318039  38.3342290  34.1494370  54.7186375  37.2205806  33.8720655
  49.8792648   1.5780118  47.0180607  49.4610500   1.0782415  47.7191734
  49.7482109   2.4933740  47.2653818  23.1312871  78.0810404  20.7655907
  22.5656414  77.7848959  21.4787364  24.0131116  78.0667973  21.1376357
  46.8679047  68.6883593  39.4644809  46.4297676  69.1811132  40.1583529
  47.8014946  68.8073015  39.6391082  66.7525768  13.7143791  72.6862955
  66.9939184  14.6228921  72.8668165  66.6765261  13.6716390  71.7330790
  10.5410850   7.4618405  30.1586294  11.3713920   7.6033020  29.7038651
   9.9454141   8.1057394  29.7754836  26.2898421  69.7308207  22.7732873
  25.5578852  69.1309881  22.9170656  25.9231377  70.4311323  22.2335410
  70.8588982  75.5370569  35.7214284  71.1265135  74.6340322  35.5506468
  71.6786242  76.0310936  35.7360649   6.6919100  77.1988440  27.7687263
   6.8707108  77.2107887  28.7090039   7.4091387  77.7012014  27.3821354
  84.1736984  22.7619171  26.5163970  84.0784359  23.5421467  27.0626593
  85.1160336  22.5947261  26.4998317  69.2518663   2.4715370  36.1408305
  68.7778568   3.1300008  36.6487360  69.8069763   2.0281608  36.7823172
  49.5531225  17.7483857  16.9887674  50.3628540  17.4553001  17.4067032
  48.9202642  17.0564926  17.1811390  77.5445557   4.1786233  33.1671238
  76.8901825   3.6632243  32.6955390  77.3786402   5.0816703  32.8965497
  37.5529361  77.8934908  26.1257195  37.6570654  77.4673367  25.2749658
  36.6112328  77.8639936  26.2947130  82.7915859  20.1871228  38.2466865
  82.0315170  20.7686734  38.2646608  82.8538227  19.8466539  39.1391230
  85.7685280  20.4441953  70.0805378  86.5129185  19.9288285  69.7698927
  85.3949547  20.8277321  69.2870760  27.8732897  -0.0631350  31.5314388
  27.7743173   0.8680326  31.3330650  28.4416891  -0.0849169  32.3012972
  55.1650858  25.7928658  30.1169252  55.8271837  26.4360595  29.8636174
  55.0605583  25.2392673  29.3430829  14.1100681  14.7028267  17.2557199
  14.2023695  15.0795233  18.1308258  14.3710232  15.4075587  16.6628563
   2.0779638  71.8139887  47.1471500   2.1997845  71.2841940  46.3593006
   1.3994774  71.3547134  47.6420784  36.9977212  75.1943254  39.1710114
  37.3052955  74.8706627  38.3243299  36.4305925  75.9339714  38.9530158
  48.8037874  85.6570270  16.4117897  49.4715263  86.2491348  16.7578566
  47.9939319  86.1664937  16.4402616  86.1211014  37.7137899  37.0856738
  85.8316612  38.2740617  36.3655686  85.5329323  36.9593024  37.0534253
  53.3265400  70.7207918  25.3430510  54.2476845  70.8765554  25.1345825
  52.9467678  71.5961599  25.4187846  77.3669481  65.1156569  39.4117498
  77.3271656  64.3661690  38.8176823  76.4551401  65.3879213  39.5152259
  84.8675156  77.4601793  21.7531633  84.2072487  76.8102217  21.5126944
  84.7669792  77.5650120  22.6992774  15.5502319  15.7405424  23.5481668
  16.4175916  15.8582103  23.1607747  15.2706242  14.8746860  23.2509398
  35.4463887  74.8877811   7.7703327  35.5448294  75.3133154   8.6220735
  36.3029861  74.4972324   7.5972843  50.1456928  60.6348324   8.0830735
  50.1183414  61.3162947   7.4114382  50.7898998  60.9493780   8.7173367
  17.0261812  19.9096310  68.5402775  16.7191100  19.7588933  69.4342661
  16.3381696  19.5420372  67.9855251  69.0286446  18.7469566  38.6473536
  68.2516003  18.1887674  38.6766100  69.0612268  19.0650296  37.7451348
  25.6334591  84.7618675  25.4198813  25.9184670  84.6685410  24.5108747
  25.5331945  83.8628864  25.7329440  53.5768986   8.8329458  30.6459475
  54.5260477   8.9501673  30.6860614  53.2479954   9.6604574  30.2948356
  90.5352211  69.7956610  12.4751997  90.1674366  70.4010296  11.8313849
  89.7948265  69.5629978  13.0354834  73.8711834  85.2147865  11.5506124
  74.1280079  86.1367989  11.5376270  74.2737770  84.8429394  10.7658303
  85.5723476  21.3115740   1.7726989  84.8951626  21.2114358   2.4417527
  85.0878239  21.4846683   0.9655371   0.0615181  56.9043922   1.8490952
   0.1571138  57.4737644   1.0856100   0.1418187  57.4938250   2.5990000
  57.6616812  63.5871458  10.8630943  57.2154713  63.1173420  11.5676594
  58.5372972  63.2014656  10.8350646  15.0356758  67.7275467  50.5406618
  14.3702412  67.3070192  51.0852575  15.8520091  67.2871780  50.7771111
  35.2414846  84.9278831   7.8445941  35.0877142  85.5001068   8.5963571
  34.6957970  84.1596508   8.0127656  66.9678831  22.3142910  21.4171314
  67.4032211  22.8689027  22.0645237  66.3703680  21.7706084  21.9305658
  64.4294930  13.2491601  43.0936670  64.3290615  12.9346871  42.1951962
  65.1878166  13.8322926  43.0599689  32.1308398  75.1575947  29.8482013
  31.7137957  75.7324934  30.4899144  31.4039803  74.6872616  29.4399190
  48.4793615  68.4957361  24.4623590  48.9971209  69.0981817  23.9282990
  47.5731897  68.6661911  24.2054081  43.5126686  10.3592050  36.3812876
  42.6996326   9.8881054  36.1988926  43.3293867  11.2623537  36.1225176
  20.1565838  14.7896063  19.1232502  20.2461576  15.5252182  19.7291255
  19.3353105  14.9583220  18.6614299  11.2574720  24.1051650  52.8196478
  11.4453840  23.4301877  52.1674728  12.0579207  24.6284890  52.8601933
  37.4069047  22.2784853  50.0907564  37.4128103  21.9318914  49.1985273
  37.0926237  21.5513492  50.6280899  79.5949984  82.7899551  34.9521255
  78.8723755  82.4324322  35.4681015  79.2049980  82.9921055  34.1016769
  52.1833992   5.2962577  25.7085180  52.6460886   5.6443930  26.4707208
  52.1331406   4.3538892  25.8686638  78.7678766   5.3527868  37.9404116
  78.5783386   4.7218996  38.6348820  79.6365643   5.6922531  38.1557584
  64.4961357   5.4543668  47.9126024  64.8205042   6.0195166  47.2114420
  63.7632513   5.9395927  48.2916403  80.2225113  36.2081218  30.5220675
  80.9616280  36.6669941  30.1228452  79.6836758  36.9039416  30.8985209
  10.8222377   2.9800799  50.8635569  11.5971613   3.3534124  51.2834930
  10.8694971   3.2865268  49.9579716  79.1513014  17.2872734  59.4904852
  79.6885538  16.5267360  59.7122431  79.7817945  17.9564810  59.2242670
  46.0568476   5.3617203  51.9687891  46.7366505   5.4603541  52.6353979
  45.3613997   4.8709825  52.4066925  20.7062364  78.1014109  38.2206511
  19.9475598  78.2195091  38.7922239  20.3672147  77.6130486  37.4704504
   2.4593611  75.8036041  48.5061932   1.5973911  75.4871702  48.7765741
   2.6772952  75.2772188  47.7370024  24.5618701  81.8414402  10.3213918
  24.9828076  81.7478275  11.1759555  24.6253800  80.9717846   9.9265611
  50.5504942  70.9532738  28.1502318  51.1031103  71.6518641  27.7997780
  50.5939245  70.2602386  27.4914098  27.0859289  64.9605465   4.9781248
  27.1563148  64.2807579   5.6483257  27.3600197  64.5285702   4.1691104
  73.6749935  54.8537874  48.9703369  74.2444754  55.3202391  49.5821762
  74.2687845  54.2949724  48.4689713  79.9315453   1.9208503  36.9630432
  79.6786737   2.0185058  37.8810573  79.1047859   1.9554420  36.4818907
  54.5270443  80.9028244  36.2467360  54.2640209  81.8034267  36.4363837
  53.7020016  80.4325962  36.1266351   0.7342561  79.0533686   8.7804657
   0.4188577  78.8092184   7.9103231   1.3201118  78.3393812   9.0319198
   9.2826372  59.8986912  72.3499918   9.8558789  59.3656158  72.9008579
   9.8101854  60.0963831  71.5761423  86.8596363  12.8436577  37.2548532
  86.3782597  12.2191191  37.7974939  87.1239471  12.3387933  36.4857745
  54.9862099  36.9077420   6.0639876  54.4516945  37.1762729   6.8112612
  54.3665552  36.8427348   5.3373253  65.5443573  78.7611675  41.5496206
  65.5775976  78.8436794  42.5026798  66.2364531  79.3425417  41.2345982
  46.0763931   8.0239004  34.7898984  46.7440557   7.6494282  35.3645515
  46.1676311   7.5395739  33.9693284  73.8950491  64.0039682  15.7428586
  74.4387770  64.6982670  16.1150706  74.4877148  63.5162258  15.1709425
  63.0499125  81.0009003  27.5141740  63.5773468  81.7474079  27.2299623
  62.3227310  80.9708691  26.8924499  38.6649036  85.6344986  27.0726132
  39.2235017  85.0942707  26.5137243  39.0102482  85.5025387  27.9555368
  60.7193851  15.5603433  48.6155224  61.5011597  15.0487590  48.4073305
  59.9890184  14.9884069  48.3795500  39.9869823  78.7808323  18.0124390
  39.4977880  78.3701706  18.7253726  40.5988884  79.3718576  18.4511793
  55.4522562  71.7088985  35.6003046  55.5099440  70.7699537  35.7771802
  54.5349550  71.8529129  35.3678155  70.7791471  37.1838760  51.2847567
  70.8005476  37.5069332  52.1855402  70.9982729  36.2549925  51.3581753
  68.8063955  86.4788723  48.5823870  69.1852236  85.7508373  49.0750217
  68.7148666  86.1428356  47.6907921   1.8129136  41.6628408  69.5095682
   2.2494631  41.4576674  70.3363466   1.0367103  41.1027527  69.5031261
  33.0223632  62.2101212  48.6431837  32.2114658  62.1101284  48.1445074
  32.7558541  62.6567984  49.4467258  81.7601871  21.6346097  60.2641439
  82.6000595  21.1883593  60.3723097  81.9856644  22.5642109  60.2290201
  53.6094427  13.1821990  54.3022108  53.3858538  12.3186970  53.9549303
  52.9171324  13.7577224  53.9770794  70.2824116  18.7122703  27.5055051
  70.6707144  18.1180763  26.8633318  69.7267294  18.1507838  28.0460453
  34.2030191   6.0391253  52.2572231  33.5670233   5.4307675  51.8808699
  34.8384666   5.4772586  52.7007818  47.1860600  17.8801560  70.8386898
  47.5356960  18.1096911  69.9777031  46.2842798  18.2008064  70.8242464
  86.3205338  30.6753087  39.4274950  86.8376541  31.1411262  40.0846386
  86.9578934  30.1359987  38.9593625  54.2463779  16.1079276  17.4812460
  54.8792696  15.6528962  18.0367839  54.6547556  16.9535863  17.2959864
  78.3545113  74.0356302  24.1340947  77.7194214  74.7468805  24.2178512
  77.8787184  73.3422995  23.6767673  82.1107101  16.0506582  40.3597116
  81.7785740  16.5952933  39.6460676  81.8748188  15.1574743  40.1090956
  53.3211470  73.3686161  43.8640833  53.7799025  74.0652418  43.3945227
  53.5860729  73.4804440  44.7770691   2.4905418  73.6977959   9.8928308
   2.4072754  74.1808367   9.0706575   3.1583059  74.1756153  10.3847778
  48.5990429   9.3610102  62.5550508  47.7421808   9.4662392  62.1415997
  48.6484098  10.0762320  63.1892824  46.3606262   1.9687556   6.1389530
  46.0454559   2.2565429   6.9957358  47.2821999   1.7536062   6.2826431
  41.4819717  62.7289009  49.6865988  41.1734772  63.6098051  49.8988962
  40.8204651  62.1468496  50.0605774  54.2319727  51.8397903  36.6121864
  54.3681622  52.1890020  35.7314277  54.2715311  50.8897877  36.5019393
  52.6142693  70.5865145  34.2705107  53.3588505  70.2784872  33.7538433
  51.8600798  70.1270485  33.9012909  50.3834295  74.2972231  21.3092256
  50.8860731  75.1118135  21.3037443  51.0381746  73.6126995  21.4469337
   6.6108036  80.1264191  51.6452312   6.6197693  80.6591797  50.8500481
   7.1604180  80.6087494  52.2628927  45.8168793  61.6360664  37.1532249
  44.9619532  61.3996172  36.7934585  46.0063744  60.9487438  37.7919006
  12.5930262  65.1171684   7.9301143  13.3874118  64.5950794   7.8178215
  11.9670749  64.5167780   8.3350247  74.6827793  12.5495148  37.5271583
  75.3650570  12.9980135  38.0267358  73.8858175  13.0472159  37.7098489
  65.1148558  25.2889204  47.8443432  66.0463667  25.1426935  47.6796150
  64.7882318  24.4400549  48.1426287  27.4474216  79.8696232   5.6518358
  26.8906569  79.2621469   5.1647848  26.8330073  80.4317760   6.1237597
  55.9338331  83.6760616  30.3462791  55.1588917  83.1244183  30.2395916
  56.1792994  83.9194679  29.4536805  43.2051182  63.4872532  54.8186588
  43.9493656  63.9382982  54.4200468  43.6000252  62.8821659  55.4464722
  69.0109205  20.9889388  33.7024355  69.6736526  21.6482496  33.4966922
  68.1771040  21.4485288  33.6036634  13.6998951  41.1946869  70.1988935
  14.6326888  41.0242510  70.3295803  13.5740054  41.1251879  69.2525578
  29.8481035  82.3715973  17.9682636  29.7788382  81.6045284  18.5366344
  30.2508521  82.0395756  17.1658981   0.7645300  18.4457433  20.8845305
   1.6816118  18.7199318  20.8807898   0.4492548  18.6760211  21.7584920
  11.9981575  21.9979310  28.1931639  11.4539361  21.2105227  28.1865287
  11.3871825  22.7097654  28.3835173  87.6386642  69.6157503  61.5650511
  87.5339699  69.8571920  60.6447363  88.4542942  70.0393677  61.8325138
  52.8488588  71.1830711   0.6708353  53.2130957  70.3798485   0.2988204
  51.9007158  71.0609293   0.6225115  90.5393600  15.2702606   6.7881066
  90.8751965  14.9412608   5.9543180  89.6277046  14.9793792   6.8106461
  66.8951225  84.2371655  36.4544320  67.4745178  83.8780022  37.1263981
  67.4556684  84.3412018  35.6855392  38.4103632  82.4806690  24.3616724
  37.6176429  82.7268982  24.8383236  38.1001401  82.2415447  23.4882808
  33.9090657  79.5481348  15.3235364  34.2477512  78.6707211  15.1455772
  33.6297035  79.8750401  14.4683623  80.2851105  13.6462593  21.7306614
  80.7348442  14.2140889  22.3564005  80.5807114  13.9530003  20.8734775
  17.2622466  85.1072693  33.3606529  18.0919123  85.2855015  33.8035035
  17.5072372  84.5946884  32.5902820   8.7161368  34.1230583  26.3665009
   9.5081067  33.6296821  26.1529732   8.6912417  34.1336727  27.3233175
  81.3115215  22.2778034  65.9027243  80.5853558  22.6466489  66.4055872
  81.8248177  23.0383778  65.6301689   9.7770202  18.2420015  46.9911194
  10.2907944  17.4353635  46.9510746  10.4062629  18.9366496  46.7968273
  39.8244381  57.5632954   0.7044817  39.1209412  58.2075071   0.7839609
  40.5760908  57.9757357   1.1300927  78.0462122  58.1391668  56.6845751
  77.7671909  57.5098848  56.0194588  78.8089085  58.5714579  56.3003159
  68.9144897  80.1044941  55.0649595  68.3036518  79.3771553  54.9462700
  69.2710114  79.9768305  55.9440613  47.6306534  80.2908230  35.1839280
  47.3173141  80.9653664  34.5814085  47.2333384  79.4807959  34.8641920
  12.7363694  76.3215685  35.3549194  13.0485487  76.4116955  36.2552834
  13.3381522  75.6941080  34.9544430  80.7569599  25.2598763  37.5862217
  80.9409714  25.9815145  38.1875563  79.8419714  25.3852034  37.3345685
  63.9516211  72.8533268   8.2229018  64.8754787  72.9856300   8.0102658
  63.6847734  72.1114492   7.6800919  86.3194466   9.2778623  72.3048830
  87.2730732   9.2609048  72.3857164  86.0044384   8.8328755  73.0916405
  76.4541340  13.3777010  49.0077305  75.7120419  13.4252274  48.4050131
  76.2902069  14.0730691  49.6447754  77.1189499   1.4445056   8.1064326
  77.9216623   0.9968793   7.8390014  76.4423418   1.0867830   7.5315726
  77.1923637  13.7036514  35.5886936  77.8810215  13.2408702  35.1113915
  76.4994526  13.8353634  34.9415731  52.8269863  68.1123543  24.5126033
  52.0964098  67.7756262  25.0313568  53.0640268  68.9358759  24.9390483
  74.5915318  55.1597023  28.8017893  74.0851736  54.4342566  28.4363294
  74.2119503  55.3040028  29.6685839  35.4540539  69.4465208   9.7523552
  36.2352753  69.1215706  10.1999414  34.7833848  68.7877369   9.9324489
  79.5836830  35.4328036  37.4726558  79.0731907  35.1618266  38.2356763
  79.7085238  36.3745260  37.5901508  44.7966003  84.3623352  39.5943165
  44.9355650  84.1281891  38.6766601  43.9679670  84.8414993  39.5964026
  64.3582916  75.2199030  13.4441268  64.7582912  75.1872015  14.3131280
  64.8219681  75.9256697  12.9934347  72.9078627  61.9205570  58.4840727
  72.2331667  61.2600470  58.6413670  73.1836653  62.1942425  59.3588638
  26.6634297  56.4941216  23.9940333  25.9693050  56.4898634  23.3349419
  27.3438215  57.0550728  23.6216974  63.0924940  17.9902267  46.7438793
  62.7377319  18.2718718  45.9006453  63.5543060  17.1747375  46.5490961
  30.6908107  83.2262611  61.2273264  30.2947140  82.3973751  60.9584570
  30.3511882  83.3791256  62.1090937  88.0589676   1.9087456  42.6530218
  87.8384590   2.8356844  42.7446270  87.6874638   1.6565819  41.8076658
  40.8709621  31.4358997  23.4847021  41.5277243  31.5993714  24.1615844
  40.0829506  31.1909533  23.9697480  34.8864055  50.3150511  15.0397718
  35.5461216  50.1439381  14.3676662  35.0966144  49.7011948  15.7434952
  57.9693794  50.7666588  37.1039104  57.5014019  50.3824139  37.8452516
  58.8881111  50.7626152  37.3725176  24.4525099  49.2373419  29.7903538
  24.2521000  49.0737820  30.7119370  23.6238909  49.0882874  29.3349361
  78.7379694  16.4062715  45.4798412  79.1021633  16.0683119  46.2979984
  78.5990810  15.6281137  44.9400139  33.9477110  76.1358356  55.8066416
  34.4628930  76.8743324  56.1313581  34.5500493  75.6546593  55.2392864
  62.2352743  21.9138622  12.2658479  62.9218960  21.5558410  12.8285229
  61.8806505  21.1525083  11.8067050  42.6119947  82.2217751  48.3093405
  42.0787954  81.6076088  48.8140583  42.0676327  82.4478912  47.5551701
  35.7175803  64.5520926  23.1858945  35.3498244  64.2442226  22.3575211
  34.9810863  64.9661636  23.6357307  48.0749798  73.2852173  41.0847712
  48.3529234  72.4603462  41.4829779  47.1246862  73.2038498  41.0037899
  59.6408129  84.9048233   8.0282301  59.1666269  84.1658020   7.6471364
  60.5425787  84.5943546   8.1098264  75.8661461   1.8291879  39.2310143
  76.0894537   2.6814497  39.6051979  74.9417686   1.7073056  39.4475842
  32.2084832  79.6504259  53.5961723  32.9208446  80.2887344  53.5595560
  31.5318990  80.0135612  53.0246830  66.8538713   7.6219952  52.3710775
  66.4994717   7.3952317  53.2308531  66.9792700   6.7797130  51.9339657
  84.3597794  66.6112280  63.7294579  83.7001514  66.9790554  64.3175268
  84.9330616  66.1011791  64.3016720  49.2838478  60.5781698  55.2217770
  49.1406631  60.2615738  56.1136818  49.9942541  60.0321674  54.8849630
  53.8979673  27.3277736  49.3219423  53.9109182  27.6216912  50.2328062
  54.8178625  27.1735120  49.1069412  53.8977814  10.4243994  39.3762517
  53.0061531  10.5165315  39.7120261  54.4577932  10.6607354  40.1156902
  69.1892433   2.7189934  43.8308477  69.8222876   2.0431581  44.0731955
  69.6231937   3.2160348  43.1374025  33.7412548  70.9574413  24.5673680
  33.7076592  70.0768805  24.9411511  32.8459239  71.2862206  24.6480918
  26.2962866  81.3459873  50.1203489  26.8883371  81.0380936  50.8065796
  26.0701251  80.5572128  49.6274853  79.0443945  17.5091672  53.9146042
  79.3989754  17.3172748  54.7827530  78.1113625  17.6609147  54.0651512
  80.2501488  17.2503400  56.2372065  81.2027454  17.1824574  56.3019466
  79.9233484  16.7627811  56.9933271  90.6637001  29.9053168  45.0810146
  90.3300190  30.7452679  45.3962374  90.8182430  30.0444150  44.1466665
  50.3220415  65.0206757  41.5246248  50.7743120  65.7570791  41.1130476
  51.0047293  64.3622875  41.6538334  65.4542542  20.8250356  23.1617975
  64.8037434  21.4557457  22.8531337  65.1123905  19.9743307  22.8867269
  67.0272827  65.5311251  29.8701334  66.3018322  65.1373863  29.3854475
  66.6221762  66.2334108  30.3789759  35.2649498  40.4598522  73.9694834
  36.1659288  40.6215763  73.6896372  35.3483629  40.1176977  74.8595381
  34.5491648  77.7192211  25.9293318  34.6364617  78.2363129  25.1285648
  33.9111733  77.0408297  25.7080126  50.8883810  73.5078859  12.0106447
  51.6477776  73.2314444  12.5236022  50.4503775  72.6909590  11.7718768
  43.8491201  46.3574553  14.7541690  43.9042997  46.3221216  15.7091236
  44.0792799  47.2601557  14.5341957  48.8771772  60.1066017  57.8485155
  48.4833384  60.5077314  58.6232519  49.8203468  60.1725435  57.9979181
  85.6698799   5.1989698  24.6948671  86.6033936   5.1998073  24.4832277
  85.2449703   4.8703587  23.9025927  52.3273468  75.7025719  64.5358896
  52.9194736  75.4192257  63.8392353  52.8519249  75.6445646  65.3344440
  31.2381887  16.2471509  42.0400333  31.3066721  17.1605742  42.3178768
  32.1375322  15.9908783  41.8357277  32.4170399  74.9674559  33.3224440
  31.5605068  74.6084213  33.0907536  32.4592543  74.8902130  34.2755890
  60.6035280  32.1330833  29.5695925  60.0229549  31.6034174  30.1160502
  60.3847742  31.8803334  28.6726546  81.0879230  33.6574554  53.1528854
  81.8734932  33.5804963  52.6114178  81.2857723  34.3686318  53.7622452
  55.6999207  76.4955044  16.7978680  55.5024099  76.9518232  17.6157880
  55.5932522  75.5680466  17.0092416  54.1596699  65.1405525  48.3140993
  54.3184185  66.0364294  48.0167150  54.1483593  65.2036762  49.2691469
   5.3724986   5.4996884  23.2651019   4.7443309   5.3818959  22.5525284
   6.1683917   5.0663662  22.9568529  51.4617252  14.6586299  20.4783297
  51.4416170  14.9288833  21.3963652  52.0446825  13.8995469  20.4648280
  80.1292896  65.8435583  17.5807011  80.4458427  65.0078773  17.2376800
  79.5753860  66.1943483  16.8832958  81.3688278  29.0770292  20.3142428
  82.3255348  29.1008115  20.3335881  81.1027622  29.4600701  21.1501431
  75.0350904   2.6635060  50.4543781  75.9833384   2.5394061  50.4135942
  74.6741915   1.9029686  49.9987841  62.9746532  14.4504702  28.3835244
  63.8299084  14.1830218  28.7200475  62.4165201  13.6833668  28.5110784
  54.7688103  59.5790672  34.1191506  55.6159067  59.1575575  33.9742947
  54.2832232  59.4256210  33.3086610  66.2076902  75.7752419  25.4283190
  66.5896225  74.9036646  25.3248429  65.9424543  76.0270739  24.5437479
  79.7851753  33.6190534  13.1621242  80.0299835  34.3497825  13.7298656
  80.0618935  33.8921809  12.2874486   9.7219127   8.9400876  50.4303598
   9.6641701   8.8704515  51.3832712   9.1955978   9.7098064  50.2141237
   0.3006845  45.1056051  31.3169456   0.3212001  44.2059994  30.9905624
   0.6956466  45.6238508  30.6157637  32.0090151  29.9372435  57.6951647
  32.9364324  29.7531605  57.8443098  31.9962931  30.8211780  57.3281097
  16.2967086  81.9954777  72.8329420  16.9047928  82.6379299  72.4672747
  16.4678979  81.1945820  72.3374653  18.9305675  18.3990836  17.3624575
  19.0429807  19.3227613  17.5869858  18.0091751  18.2179034  17.5480378
  18.5873711  29.8402452  63.0263948  18.2051969  29.7435308  63.8986492
  18.8679063  30.7545996  62.9878569  64.1751909   5.8782554  57.2599554
  64.4142056   6.7945081  57.1200085  63.4870052   5.9090686  57.9245520
  11.8342996  13.3217239  29.5376134  12.4232984  13.3339250  28.7831831
  12.4174154  13.3178163  30.2966857  68.1739235  10.2231860  62.2950315
  68.2881498   9.2840838  62.4408770  68.9188147  10.6270647  62.7402782
  78.3308649  21.3842249  20.0826979  79.0084839  21.1698222  20.7238603
  77.5625420  20.8924747  20.3726959  63.8513279  25.8343339  33.3906317
  63.3381844  26.4162874  33.9512062  64.7611761  26.0156703  33.6262703
  59.4982910  23.3229494  14.4612122  59.3016434  22.3883176  14.3977630
  60.1704454  23.4719682  13.7962019  81.5762615  13.0494952  44.1595125
  81.8785858  13.1465888  45.0625086  80.9090614  13.7280011  44.0560484
  22.4115324  10.0041962  34.0040255  21.9042087  10.0787532  33.1957579
  22.9691291   9.2383301  33.8670373  69.2912102   7.7824295  49.6544886
  70.0541019   8.1531441  49.2108679  68.6236238   7.7203172  48.9713335
  29.9301171  66.4446163  55.5454159  29.5327258  67.1442366  55.0269127
  30.7185984  66.8401670  55.9169865   3.3129442  83.8936901  55.3471470
   4.0930587  83.3594894  55.4964209   3.6422393  84.7913837  55.3028965
  84.5440674   2.1148792  54.9188519  84.3088245   1.1895921  54.9876642
  85.3240776   2.2050498  55.4662848  66.9523716  16.1464357  13.5399938
  67.3033667  15.2938604  13.2827973  67.6991987  16.6076124  13.9218283
  81.2520599  20.4892755  17.7175260  80.4602718  19.9955904  17.5040400
  81.5051746  20.1727223  18.5846806  91.0279083  65.2266216   6.3269925
  90.2460003  65.1130676   5.7866561  90.8585644  64.6986914   7.1072781
  49.8676109  11.2409830  64.8798037  50.8165741  11.3304293  64.7920465
  49.6098423  11.9682872  65.4462147  85.9377766  41.8321228  34.5206904
  86.4921188  41.6695070  35.2838993  86.4929199  42.3341846  33.9240503
  73.8614845   1.6271180  57.4281788  73.0620909   2.1459621  57.3387194
  73.5753870   0.8173254  57.8508091  83.8496876  15.1886642  43.0672359
  82.8932476  15.1522267  43.0785608  84.0932178  14.8238337  42.2164583
  16.8978500   6.3739407  62.1439695  16.3598120   6.9655025  61.6178465
  17.3757851   6.9509184  62.7397108   9.1050661  24.8501897  35.9183836
   8.8543105  24.8184848  34.9951577   9.8773599  24.2876554  35.9762669
  76.6521549  74.5925426  46.0691643  77.5719023  74.5933437  45.8040237
  76.6600132  74.2425823  46.9600582  21.3438034  40.2652740  55.2737570
  22.0632696  39.6339488  55.2790022  21.4649367  40.7731295  56.0760307
  67.7666426  71.5356016  37.3223543  66.9212341  71.3266850  37.7196836
  67.5766611  71.6257906  36.3885427   0.6152026  45.2714586   5.0558567
   1.4259817  45.1425791   5.5480558   0.9049329  45.4999447   4.1726348
  58.9639235   5.8885908  11.2274277  59.2449474   6.6446745  10.7120681
  59.4876957   5.1614296  10.8910763  65.0012350  65.6877708  69.4273090
  65.6528282  66.2471676  69.0045452  65.0151253  65.9560728  70.3460312
  77.4831295  21.4795208  34.9370956  78.2412910  21.4455605  34.3537664
  77.6588106  22.2219014  35.5152273  30.4317212  21.3573480  64.7495127
  31.0528445  21.6346002  64.0760422  30.8967161  21.4938402  65.5749702
  55.9026480  60.4941273  29.4184709  56.1353350  59.5656490  29.4147658
  55.3890276  60.6155205  28.6199164  82.2780037   7.0368791  41.0737848
  83.1487846   7.4162865  41.1922026  82.3635960   6.1374819  41.3899946
  50.3012228  22.5799394  51.9022369  49.6978235  22.0050120  52.3729897
  51.0618305  22.0290184  51.7173243  34.3457723  17.7428567  37.0389724
  33.5867405  18.1922340  36.6672707  33.9814758  16.9616783  37.4552417
  13.1884599  17.2368050  29.0460229  12.3829567  17.2571611  29.5627260
  13.1251955  16.4295888  28.5355020  76.6947365  19.7980070  13.3229184
  76.2309837  19.2062652  13.9153767  76.4355850  20.6741786  13.6082125
  22.3012853  43.2651091  18.7240815  22.4115682  42.4494076  18.2355165
  22.7834558  43.1234217  19.5387399  19.5645189  16.0464513  33.1586099
  19.0626371  16.5033591  33.8335752  20.3564262  15.7509434  33.6078191
  32.6609254  16.2965620  18.4110951  31.9929051  15.7892942  18.8722444
  32.6051259  15.9970701  17.5036693  81.9657230  11.2782550  41.2401295
  81.9644833  11.8609571  41.9995260  81.2951851  10.6246483  41.4386654
  13.0915582  36.3767982  56.8729925  13.4425962  36.8846011  56.1414623
  12.1428704  36.4855075  56.8066120  91.5866375  23.4897614  54.0323496
  91.3204575  22.5870275  53.8578415  91.6182423  23.5498309  54.9871397
  82.6786041  24.8260951   8.4779567  82.1042633  24.0637231   8.5497600
  82.1788120  25.4542232   7.9565203  90.8056641  15.4120207  23.6205339
  90.1357937  15.0208759  23.0597210  90.6247425  15.0589895  24.4916654
  17.1614397  11.5288103   4.2704812  16.5297508  10.9470189   4.6932343
  16.6395450  12.2748494   3.9750436  62.2870445  20.5351901   3.9100307
  62.1350479  20.0274611   4.7071117  61.4903831  20.4141593   3.3933926
  14.3924642  39.1380262   1.1013546  15.1761937  39.0061808   0.5678596
  14.6490908  39.7985506   1.7448470  84.7397614   2.1158767  31.8202114
  83.9398766   1.7952651  32.2369027  84.4433498   2.8184193  31.2415838
  31.0535789  20.4835629  47.8715706  31.2732553  21.1660290  47.2373676
  30.0999832  20.5226302  47.9447985  18.3931887  27.4478483  14.6782792
  18.6943448  27.7835774  13.8339913  18.5205317  28.1770062  15.2851927
  26.0482121  27.9460716  10.0968039  25.5846500  28.7389374   9.8271590
  26.9546366  28.0954146   9.8278731  18.8247657  12.0253193  12.6716030
  19.0198290  11.0960412  12.5506783  19.0200138  12.1930420  13.5935462
   2.8067806  18.9643145   4.4275895   3.5160822  19.6070576   4.4294044
   3.1536958  18.2233822   4.9244806  61.2281179  17.6531589  74.7823000
  60.6043673  18.3599353  74.9485397  61.6802597  17.9163527  73.9807224
  90.7016850   2.6874772  27.1630597  90.4751301   3.5769120  26.8913841
  91.5963745   2.7592081  27.4956656  30.8456707  62.9457140   5.5189753
  30.6300783  63.5229635   4.7864890  29.9984074  62.7173281   5.9013540
  78.6385012  59.1124630  20.8415532  78.9547348  59.4461393  20.0019765
  79.4236040  58.7843132  21.2799191  17.5348067   3.5343444  31.2835860
  16.6843283   3.8543114  30.9826875  17.3463786   3.0986509  32.1147871
  72.1737003  43.2596540  37.9829168  71.3601589  43.4195709  38.4612560
  72.1693611  43.9086056  37.2793007   2.4660988  21.2725592  27.8508162
   3.2122037  21.1638308  27.2611237   1.6995251  21.1249971  27.2969007
   5.6122702  25.2907085  33.7206411   5.9995914  24.8912311  32.9417729
   5.0897151  26.0177827  33.3822203  91.1159897  25.6267095  29.6204352
  91.5275002  26.1684132  30.2938175  90.1812363  25.6609416  29.8236752
  84.3436050  51.1074257  32.9344845  83.9294815  51.5844059  32.2153020
  84.9570942  50.5114555  32.5047398   6.2293208  22.0844960  21.0264230
   5.9644383  22.9845643  20.8368325   6.1299038  21.6249037  20.1926827
   2.3273203  24.4520998   2.9973808   2.5903055  24.7357035   2.1218011
   2.2263308  25.2652001   3.4922531  34.8232150  24.9251366  19.0031219
  35.5169630  25.0692391  19.6466911  34.0141916  24.9462557  19.5142627
   4.0102008  11.3828814  12.8412104   3.5476512  12.2200251  12.8795695
   3.3840603  10.7471800  13.1877124   2.7699012   6.9965631  24.8688507
   3.5087538   7.4613494  24.4760370   2.6021007   7.4623901  25.6880450
  37.6870966  29.6922469  20.8547091  38.6108971  29.6576619  21.1029601
  37.2133827  29.6059322  21.6819811  59.1280603  68.9713049  21.4525747
  59.1444588  69.0047789  20.4961014  58.2579374  68.6340237  21.6655469
   4.3295914  29.3115902  28.8828158   5.2373636  29.0532517  28.7233043
   4.2812383  29.4445968  29.8294973  85.9224987  12.4185896  56.3684416
  85.1143456  12.0903027  56.7625904  86.6074276  11.8465626  56.7146921
  40.0614691  80.4042244  46.6297531  40.2368879  79.5424604  47.0076704
  39.1618347  80.6014729  46.8904877  52.6512527  53.5601282   5.6225383
  52.6501465  54.2749929   4.9859837  51.7809391  53.1692219   5.5452079
  61.7117596  26.2748146  45.3968048  62.3881245  26.7093754  45.9163475
  61.6831875  25.3816390  45.7398129  13.5329378  40.3172350  32.2603464
  13.1946492  39.4300413  32.1391892  14.4157398  40.2894163  31.8914056
  89.2003441  17.5333536  27.8652954  89.3278694  17.0687819  28.6924243
  88.4544182  18.1108582  28.0274868  30.6403446   0.5170602  51.5250301
  30.0720859   0.2344884  50.8084631  30.1620889   1.2340327  51.9415092
  45.6349516  63.5698318  73.1951094  45.4054356  63.0184269  72.4471045
  44.8312521  64.0501213  73.3941555   7.7768421  17.0040905  11.6357112
   7.9167521  17.8937662  11.9599533   7.3863125  17.1233332  10.7699740
  81.2749004   7.8981972  63.4180212  82.0858002   8.0148476  63.9130592
  80.6040287   8.3208579  63.9542341  79.0819979  47.7380228   4.9874514
  79.0537643  48.6936283   4.9400505  78.1791782  47.4634743   4.8269314
   6.3744140   4.7029218  29.1008401   6.3710570   3.7476331  29.0404701
   7.2949249   4.9459445  29.0016842  81.3461590  41.6344309  32.2537088
  81.3000011  42.5296879  32.5892949  82.1278858  41.2647820  32.6641917
  76.2322855  15.7813156  41.5125036  75.7446432  15.4513025  42.2671747
  75.8696079  16.6531444  41.3556147  55.0452042  79.0461874  29.6727538
  55.4233503  79.1175890  30.5491877  55.7794809  78.7885761  29.1153431
  18.1773198  46.8160915  14.6100843  17.5973856  46.2495470  15.1189411
  19.0293252  46.7333364  15.0384188   8.7343359  14.9366724  68.3714294
   9.0302694  15.3978443  67.5865841   8.1107378  15.5364585  68.7808371
  76.3572693  40.6363583  17.1422946  76.2037706  41.1596727  17.9289389
  75.6003428  40.0526571  17.0914543  23.0245709  67.3038912  29.9257636
  22.1234322  66.9841480  29.9698925  23.1759930  67.7118206  30.7783461
  36.5889859  59.9806643  71.2570524  35.6522775  60.0316477  71.0667610
  36.6637206  59.2816305  71.9066668   5.1416260  23.0237985  34.9728179
   5.0966996  23.2877088  35.8918190   5.1822436  23.8484430  34.4885230
  24.6292424   8.9607793  25.3460240  23.7298989   8.9386207  25.0190353
  24.5947337   9.5464057  26.1023855  81.2323475  12.3192227  29.6494651
  81.8881893  11.7031741  29.3229890  81.7350960  13.0949795  29.8978138
  48.0074453   2.4494521  12.2724330  48.5759401   2.9989365  11.7328835
  47.1841669   2.9349905  12.3243809  86.2539291  10.7593346  38.8661933
  86.2674141  11.0303974  39.7841120  85.3683567  10.4230237  38.7287521
  13.0996633  21.0110021  23.2829261  13.0251443  20.8189464  24.2176962
  12.1951258  21.1102104  22.9859400  91.2557697  82.7932262  60.0755072
  90.9291172  83.3868980  60.7515907  91.5574741  82.0235634  60.5580139
   7.4068451  31.0989547  29.8610187   6.5709323  31.4667583  29.5743084
   7.5996923  30.4144669  29.2203021  83.1185246  29.1040802  50.2603531
  83.3866119  30.0191069  50.1761484  83.1227303  28.9390659  51.2032127
  20.7752371  15.5366778  52.2391796  21.0298657  15.1812649  51.3876629
  20.0360751  14.9940729  52.5138617  13.8142312   7.7108163  22.9138708
  14.0967345   6.8056494  23.0446219  13.0025470   7.7833021  23.4160137
  69.1539478  80.0152969  16.0614550  69.4738722  79.2339087  16.5123487
  68.6684227  79.6760225  15.3095329  20.5012632  85.5512718   0.4896699
  19.6145178  85.2163319   0.6228362  21.0653997  84.9195675   0.9356890
   9.7407675  26.2732053  24.9153042  10.2772927  25.8656025  24.2354274
   9.2702281  25.5436754  25.3185582  29.1301203  38.8175249  66.4919710
  29.6255255  39.6361208  66.4653349  28.7808323  38.7200212  65.6061268
  57.0997572  21.2223220  42.7124691  56.4911366  21.9432831  42.5511360
  57.3309040  20.9041715  41.8397808   1.5263800  11.2473249  59.0217066
   1.4890088  12.2027516  58.9770222   2.3236626  11.0162628  58.5450697
   0.0189760   1.0061561  56.9167757   0.9326437   1.0580444  56.6361332
   0.0534322   1.1188009  57.8667021  90.2968769  10.3392363  31.4191651
  91.1088311  10.4222190  31.9192410  90.5767905  10.3531921  30.5039120
  15.7778084  30.2488685  38.2482600  15.5120635  29.3406153  38.3920836
  16.5489841  30.3635836  38.8035607   5.8919787  17.1619892  59.6008539
   6.7863083  16.9728172  59.8847914   5.9954387  17.7901709  58.8860703
  54.6307802  78.1253052  69.9588680  53.7633610  78.5220528  69.8788452
  54.7764587  77.6959133  69.1158772  24.6367812  16.6632199   8.7111557
  23.7512851  16.9554079   8.4949321  24.8670077  17.1581697   9.4974458
  24.9663734  25.9040117  16.5967298  24.2081809  25.4130363  16.2799978
  25.4102111  26.1985993  15.8014560  16.5290177  28.8016725  46.7646790
  17.4058318  28.9401221  46.4065456  16.1908174  29.6839285  46.9178915
   2.8915018  25.7113218  31.6737866   2.9239738  24.8340678  31.2922096
   3.6825910  26.1425304  31.3505721   5.1476419  60.3394508  21.3340425
   4.9631292  59.4951677  20.9224939   5.9958047  60.2176666  21.7606831
  85.1141357  47.3544741  20.1748061  85.6929779  48.0030537  20.5754519
  85.0404835  46.6614246  20.8309269  22.7495146  36.4930868  12.1702278
  23.0640292  37.2786593  11.7228055  21.9553399  36.2485981  11.6951013
  75.5792809  38.9995933  49.9743557  76.2784100  39.3294072  50.5388641
  75.9344721  38.1938267  49.5991087  74.4649172   5.9359860  70.5648327
  74.2960739   5.2018642  71.1554146  73.6518240   6.4410233  70.5719662
  10.5236351  65.4726601  12.3323417  10.9592867  66.0510111  12.9583991
  10.7555306  65.8296347  11.4750040  26.0659194  40.8886528  22.1655488
  25.2045012  40.4822779  22.2606611  26.3154650  41.1324644  23.0569053
  16.9755816  53.7554502  37.5508451  16.2014043  54.2551804  37.8099799
  17.1749926  53.2107639  38.3122826  15.9421539  75.8166838  30.6575847
  14.9931073  75.7285929  30.7458043  16.2375593  74.9517918  30.3731132
  82.3977089   4.8725590  61.7531776  82.1820927   5.7915395  61.9119692
  81.6478825   4.3875974  62.0978642  13.1115592  14.0307546  12.5642407
  12.9495466  13.5112453  13.3517003  13.2428193  13.3824217  11.8723834
  32.4039984  42.2594070  14.7867501  31.5095234  42.2464132  15.1273084
  32.8558064  42.9093027  15.3250241  37.9336381   6.1061233  40.7878828
  38.7942410   6.0936624  41.2067413  37.8180218   7.0132524  40.5050755
  89.6116257  86.2526417  28.0690956  88.9342403  86.7027760  28.5738301
  89.7561741  85.4322243  28.5405350  78.9166784  12.1412075  34.0077281
  78.6187315  11.7935801  33.1671238  79.3850613  11.4128840  34.4156384
  24.9415779  39.7784948   8.0921108  24.9958634  39.0730977   7.4473643
  24.2804193  39.4812679   8.7172157  82.0047760  55.2763081  29.4940376
  81.3349915  55.5096436  28.8512444  82.7970219  55.1379538  28.9749694
  80.1167965  58.0990505  41.1068249  79.7847891  57.7992249  41.9530535
  79.8011351  57.4471188  40.4810715  73.2730532  42.0648384  32.0105934
  74.1010237  41.8762541  31.5688586  73.5266829  42.3093081  32.9006171
  77.1144247  27.5594378  14.1430485  77.4099159  28.3490705  13.6898422
  76.9088602  26.9427562  13.4404242  89.2091084  58.5846424   4.9373484
  88.8448143  58.1280470   5.6956601  88.6743832  58.2894135   4.2003673
   2.8972057  12.4968910  18.0977178   3.8522941  12.4361944  18.1165314
   2.6725411  12.4508023  17.1683991  13.9343429  26.7395759  40.9608412
  13.7059808  26.1860728  41.7076445  13.2002985  27.3486805  40.8808374
  80.4245090  39.0096498  48.7350368  79.9732113  38.3025479  48.2739830
  80.6157875  39.6553349  48.0547905   6.6664767  86.5377140  66.3751793
   6.5396506  86.7946243  65.4618645   7.0419759  85.6585693  66.3267612
   3.9698705  30.1203704   3.7675795   4.5482633  29.3581033   3.7422219
   4.3501133  30.6873322   4.4385505  25.2273250  45.8967876  37.7776647
  25.1589775  46.8280983  37.5673580  26.1322379  45.7826042  38.0680513
  84.7356129  38.3251047   1.3574415  85.4405403  38.8868642   1.0353698
  83.9464283  38.8606358   1.2760352   4.1598615  31.9701099   5.7091749
   3.3984330  32.0005918   6.2884241   4.8600003  32.3865175   6.2118113
  31.1054707  19.8686063  21.8742776  31.3322449  19.6570075  20.9687209
  31.1901069  20.8206439  21.9261813  22.7231765  37.6450872  19.2403448
  22.1299148  36.9574761  19.5427787  23.5891271  37.3594213  19.5314729
  23.6514449  40.4922676  18.9056814  24.4973040  40.8677340  18.6611843
  23.7536216  39.5527005  18.7539971  24.3672657  52.5047255  49.1767788
  24.5085430  52.6098490  50.1176405  24.3354607  51.5573502  49.0437365
  14.7230148  21.9878364  28.2489848  13.7919366  22.0894241  28.0514884
  14.9218357  21.0832667  28.0072093  89.8619747  30.9916997  22.2933364
  89.2444611  31.7230558  22.2984958  89.9934864  30.7827401  23.2181478
  84.2773342  21.5773630  12.1795058  84.5316219  20.8198190  12.7064741
  85.1070881  21.9753957  11.9162488  43.1966686  79.8888111  24.3042636
  42.5390053  79.1944551  24.3440747  43.9387560  79.5446157  24.8013234
  16.7631340  46.5637159  34.0298653  17.7043211  46.7315960  34.0769339
  16.3589871  47.3872042  34.3032932  33.4176207  43.9097881  55.9683561
  33.5326457  43.3315468  55.2142763  34.3071508  44.1670895  56.2107658
  17.8531373  53.6788368  27.5622082  17.9458249  54.2030764  26.7667127
  17.5627565  52.8213167  27.2514534  13.5299456  28.6692762  17.8967130
  13.9645481  29.1643834  18.5911357  12.5988817  28.8570833  18.0153692
  40.6589746  28.0886173  23.8875556  41.4648008  28.3451366  24.3359709
  40.0129700  28.7378430  24.1657877  12.6111615   4.2621309  53.1917334
  12.5594151   4.9336150  53.8719273  12.7311301   4.7532767  52.3789501
  65.4300261  81.6899300  33.1544876  64.7616386  81.0416508  33.3763433
  65.1840591  82.4682617  33.6544251  34.2331123  34.0899324   2.0060876
  34.8470759  34.7410560   1.6665043  33.7289310  34.5597124   2.6704216
   3.0395007  44.9313593  40.6405163   2.9668516  45.6034899  41.3181591
   3.8065761  44.4178486  40.8937693  33.9618421  45.6600761   2.4217543
  33.9565706  45.4903316   3.3637685  33.0653548  45.4773140   2.1404332
   8.1495214   0.3698214  39.3419933   7.5807512  -0.2879375  38.9418864
   7.5923628   0.8094580  39.9842739  87.5311375  77.1373796  24.6155357
  87.8562546  76.9764757  25.5013371  87.0003414  77.9299021  24.6954989
  74.1832447  48.9423227  45.4620171  74.5732975  48.6215258  46.2751484
  73.2408571  48.9359951  45.6296301  40.3954554  40.9194565  24.7305894
  41.0586023  40.8268499  25.4146171  39.6349192  40.4467344  25.0687408
  58.6593866   7.1129912  73.9833355  58.3862114   7.8536123  73.4419584
  58.0153799   6.4297616  73.7970924   1.8716757  73.6655617  31.2549138
   2.6481903  73.5599852  31.8045592   1.2999614  74.2462826  31.7570424
   0.9444135  60.8141613   4.5211411   0.8146074  59.9055624   4.7928593
   1.5135482  60.7556820   3.7537444  76.3320875  43.6268473  28.7948251
  77.1634102  44.0878820  28.6826372  76.5770483  42.7768469  29.1605043
  62.7835035  84.1936970  16.9586051  62.2756481  84.2770290  16.1515319
  63.3069277  83.4024143  16.8315995  28.3953977   4.9946493  41.4875746
  28.2251525   4.1019243  41.7880583  29.3370271   5.0143987  41.3167715
   2.0683387  15.3097653  15.0121808   1.1816330  15.5800164  14.7735405
   2.5463080  16.1310971  15.1270330  27.9865861  45.3611517  18.0179334
  27.9348660  45.1343060  18.9464247  28.8434148  45.0376320  17.7397037
  90.5615044  11.3653493  67.1562815  91.4787006  11.0916054  67.1490383
  90.5895615  12.2903883  67.4007130  32.8054595  19.3065691  30.9394503
  32.8334570  19.9097228  30.1967144  31.8722820  19.1584945  31.0926962
  44.3031788  49.9449205  71.2587452  44.9537611  49.2428684  71.2687159
  43.7697315  49.7882032  72.0379162   5.6081450  25.1909876  25.7200074
   5.5023849  24.2944384  25.4018188   4.8381484  25.6544542  25.3905630
   7.1247965  59.2196178  24.7083044   6.4551586  58.5358477  24.6916938
   6.6753525  59.9864292  25.0635886  30.6832600  49.6339369  26.0802817
  31.0281301  48.9080334  26.6002440  31.0415316  50.4180002  26.4963484
  15.9068286  63.8235044  33.7248945  15.2281237  63.4627819  34.2953968
  15.5903578  63.6518145  32.8379893  85.9966087  45.7474041  11.5149689
  85.8032703  45.1984072  12.2748733  86.7175770  45.2991247  11.0728335
  18.2525051  37.4191570   5.3655624  17.6361418  36.7857885   5.7332194
  18.8443804  36.8930316   4.8278764  44.1194439  62.0135641  64.6224785
  44.4919205  62.8947210  64.5899582  44.3682241  61.6800308  65.4845047
  55.4562330  33.5173655  13.5415399  54.6922922  34.0923405  13.4964371
  56.1857080  34.1036224  13.7425268  55.2900505  78.7114811  41.3558578
  55.1729393  78.7472963  42.3051929  56.0513163  78.1451082  41.2296438
  62.8702211  61.3667583  72.9134512  63.4287500  60.7251740  72.4745369
  63.0376959  61.2318087  73.8461733   8.2657892  52.8380680  44.0046549
   8.5823727  53.4876966  44.6323395   8.6909264  53.0744982  43.1802797
  36.6008878  46.8198395  26.0459113  36.1768627  46.6217136  26.8808842
  37.2561884  47.4833918  26.2615705  83.7982941   7.1410602  70.6407833
  83.5446739   7.9354107  71.1108017  83.2629108   7.1509689  69.8473787
  18.7332284  14.0066707  31.2358832  17.9476333  13.8992727  31.7721105
  19.2589664  14.6524465  31.7079043  25.5837917  15.7485223  58.1987429
  25.1714683  15.7904088  59.0615654  26.4592290  15.4005253  58.3682775
  11.5432560  32.7048683  57.5035810  12.4442101  33.0270910  57.5298071
  11.5914822  31.8276024  57.8834629  32.1841311  34.7843099  63.7089205
  31.5469503  34.3317533  64.2615747  31.6822696  35.4811525  63.2860994
  22.7348232  55.2852154  50.5449009  22.0809913  55.6753683  51.1250019
  23.4762025  55.0885868  51.1175489   2.5554931  39.7525620  27.4899387
   3.4948713  39.8230958  27.6597190   2.3376513  40.5529976  27.0123601
  16.3363361   9.3316549  13.0381978  16.6495907  10.0337410  13.6084414
  16.7189324   8.5352778  13.4064841  89.5714760  52.3508930  50.7351971
  89.0884209  51.6192532  50.3510094  90.4499531  52.2803831  50.3616714
  52.6132631  81.5951538   6.2099475  52.2789574  81.2599087   5.3780347
  51.9542313  82.2279739   6.4953470  85.2392197  59.6186209  47.2858620
  84.9692154  60.0956011  48.0705976  84.4228363  59.2790604  46.9192028
  19.9649489  17.4711454  48.7806892  19.9640608  16.7825723  48.1157827
  20.8773994  17.5293231  49.0640211   4.8355269  15.3835499  69.0975666
   5.1435733  16.1967611  69.4976044   4.9829617  14.7161376  69.7676849
   1.2377354  21.8857861  20.6886101   0.9206825  21.4401317  19.9030519
   0.9324471  21.3400126  21.4132905  11.1363149  16.0614789  46.4815140
  12.0707357  15.9224164  46.6356277  10.9436214  15.5467713  45.6978178
  35.4227686  39.8936272  28.9631295  35.2388740  40.4516506  29.7187924
  34.5601058  39.6797442  28.6077452  16.3285458   7.8287542  10.5673826
  17.2337174   7.5238717  10.6301796  16.2698114   8.5381520  11.2073338
  31.8505788   9.7747213  37.0361733  32.5425863   9.2698777  37.4633646
  32.2840118  10.1939106  36.2927699  44.6284676  12.3712122  17.9462707
  45.5541134  12.5133216  18.1442893  44.4681978  11.4599800  18.1916308
  89.9214172  12.0271206  58.4865999  90.3475761  12.2516787  59.3137598
  90.3115177  12.6226676  57.8467751  76.9820976  55.2762365   7.9532248
  76.9118547  56.1676264   8.2948750  76.9851017  54.7205544   8.7326109
  13.2575953  50.7755470  35.5912304  12.5390911  50.5315542  36.1747146
  13.2338238  51.7321920  35.5690742  89.9541855  33.6299062  22.9631042
  90.9083748  33.6151743  22.8886867  89.7869301  33.6002803  23.9051127
  65.7766104  67.5048494   7.9848701  65.2691793  68.0669165   8.5703820
  66.6621637  67.8671026   8.0130255  23.7281322  35.9148502  30.7870984
  24.3419886  36.1539841  31.4815235  22.9552293  36.4541459  30.9544683
   6.4505917  34.9260426  31.1397457   5.6044644  35.1076627  31.5487885
   6.6954839  34.0615225  31.4696932  86.1267757  71.2610769  52.3979330
  86.9900036  70.9782648  52.6997185  86.1175728  71.0479164  51.4648151
   4.3834600  33.5088563  62.4214172   4.5874229  34.4069147  62.6824236
   3.9517426  33.5985422  61.5718222   1.5472238  85.5128384  20.6218982
   2.0948927  86.2301064  20.9409904   2.1456547  84.9596310  20.1198244
  18.2803822  83.3684254  71.2656069  19.1476643  83.4379959  70.8665895
  17.9988790  84.2752838  71.3864088  81.3478470  14.6498716  72.4492264
  82.0962238  14.1492796  72.1243000  81.0290813  15.1281333  71.6837931
  22.6879525  48.2526112  60.3076982  23.1779027  48.9945555  59.9531555
  23.1236053  47.4819565  59.9436569  17.7048874  65.8572865  29.1885281
  18.1594431  65.4306889  28.4621525  18.0062556  65.3895903  29.9674201
  18.4801531  33.2987356  16.4454663  17.5237525  33.3030772  16.4065957
  18.6899567  32.6403666  17.1078598  22.0753145  67.7097225  59.3041563
  22.1598005  68.6583662  59.3998814  21.1948466  67.5821018  58.9509964
  28.7903714  16.2548041  17.4830353  28.2521749  16.5324235  18.2243204
  28.8021231  15.2993798  17.5401092  81.0541534  73.3144379  12.4940753
  81.3279915  73.8889456  11.7791009  81.1287212  72.4309444  12.1333718
  71.5987062   5.3976291  35.5320740  72.3549271   5.0100821  35.9727168
  71.6058016   5.0086546  34.6574998  44.8559618  10.0534344  47.4993372
  44.6491385   9.3143618  48.0713749  44.1221666  10.6573641  47.6135254
  26.0196185  21.6982341  34.2690444  25.4575396  22.1358705  34.9083972
  26.6617274  22.3629737  34.0199471  41.2991858  10.5757558  27.7592874
  40.7645416  10.7478666  26.9841957  41.4071703  11.4331293  28.1709695
  83.2293034  58.3137608  57.8912926  83.0828094  57.6195383  57.2487783
  83.8782406  57.9497433  58.4934616  75.9422874  27.5293493  16.7001581
  76.3914633  27.8564739  15.9207618  76.6473436  27.2387362  17.2786689
   2.0984213   8.2836521  13.6171818   1.6397920   9.1237152  13.6307931
   2.3409857   8.1580347  12.6997864  83.5915852  41.7697668  40.3851032
  83.7672710  42.0314932  41.2889099  84.3505096  41.2419415  40.1367712
  78.5302305  34.7722626  28.7897849  79.0284681  35.2987480  29.4149303
  78.9080524  34.9907923  27.9378891  34.6979666  62.5813913  46.5456438
  34.2706203  63.2739115  46.0416365  34.1036010  62.4162292  47.2775459
  84.9121761  26.4078331  25.5979156  85.4254913  25.8636570  25.0007439
  84.1099834  25.9076619  25.7480669  86.8294621  11.9792140  74.3174076
  87.1099472  11.2854826  74.9143124  85.9042358  12.1127117  74.5232391
  18.5859156  77.0810604   0.1823388  19.2790902  77.1516609   0.8386596
  18.2264709  76.2027359   0.3071341  69.0315485  32.3897552  32.6510787
  68.9610529  32.6476336  31.7319679  68.3974648  32.9449177  33.1049156
  23.7261748  33.3098912   0.5474159  24.1294289  32.6826954  -0.0527882
  23.1565952  33.8414192  -0.0087211  62.3331165  18.4969938  40.1314640
  63.0628061  18.4590483  39.5131278  62.6763725  18.9893878  40.8770895
  58.6090612  71.4336729  47.4617481  59.0127563  70.8850813  48.1342888
  58.5396099  72.2978497  47.8674603  16.9464731  30.0804949   4.1214004
  17.0443666  29.1764402   4.4202882  17.0394325  30.6067085   4.9155605
  38.9426303  40.8176565   0.8604491  39.2502356  39.9154186   0.7733900
  38.1781268  40.7558537   1.4331168  88.1774807  13.2181191  65.0896025
  87.4980164  12.6604676  65.4685354  88.9970493  12.8678155  65.4386330
  82.1035004  31.7701769  19.2996740  82.6751137  31.5191650  20.0252676
  81.2657738  31.9755673  19.7147143  23.3905554  10.1915669  17.2930980
  23.8060522   9.3324769  17.2185552  22.7291059  10.0792837  17.9758215
  65.1445532  12.5202715   7.9945236  65.1913929  11.7191780   8.5163355
  64.7216415  12.2506690   7.1792352  36.2629294  40.9711695  57.2072697
  35.3592873  41.0364437  56.8983984  36.3405800  40.0743961  57.5328350
  21.4511538  26.9488764   1.2621625  22.3690319  27.2184849   1.2944621
  21.4019275  26.1956120   1.8507227  42.6275635  28.9666820  25.6189442
  42.9896021  29.8523307  25.5908608  43.3788109  28.3956337  25.4584408
  27.0987344  38.3376050   2.1124785  27.0049214  39.2465663   1.8274876
  27.8491902  38.0078602   1.6181940   5.2527320  31.6887760  12.5565970
   4.8719594  31.0156155  11.9925928   6.1775941  31.7119813  12.3109901
  21.1230516  23.1412935  26.6951156  21.5671659  23.7130928  27.3212457
  20.9050298  23.7144756  25.9601593  32.1899271  46.9649887  22.6912880
  31.9129181  46.5119696  23.4876990  32.5168180  47.8106785  22.9981732
   4.0676510  30.4079032  16.6784000   3.7325388  30.5794716  15.7983458
   3.6422873  31.0652494  17.2290313  54.8161936  50.5928993  26.9525719
  54.4345427  50.3088474  27.7831650  54.1179180  51.0890293  26.5253711
  72.2858286  11.0561025  34.5843363  73.2170725  11.0629106  34.8056293
  71.9497490  10.2555108  34.9872470   0.9792240  47.2340775  12.9489768
   1.5173331  47.2957325  13.7381971   0.5121063  48.0687332  12.9117727
  19.4932842  53.9666224  29.8250580  18.7737978  54.0672255  29.2018008
  20.1346588  54.6254063  29.5588350  37.8795934  82.6150894  71.8396664
  38.1012893  83.4215546  72.3051691  37.1660709  82.8656578  71.2528658
  32.1315908  32.2192144  37.3102570  32.1049523  32.3262501  38.2610822
  32.7924562  31.5424204  37.1638417  12.8953838  30.6992388  15.0477910
  12.8553677  31.6528249  14.9749458  12.2432935  30.3836632  14.4221544
   9.1186327  48.9359379   9.4185799   9.9625659  48.5196877   9.5939219
   9.2959857  49.5439720   8.7008947  47.8288841  77.0883274  57.0391273
  46.9733572  77.0382929  57.4655104  48.4318399  76.6855669  57.6639986
  21.3720083  62.7987766  61.9669724  21.8565798  62.6628017  61.1527634
  21.9222856  62.4020767  62.6422930  21.0070443  25.6615615   7.0830339
  21.3499165  26.4170408   7.5604451  20.6912374  26.0243869   6.2554741
  15.9845960  34.0434194  19.6960175  16.5090060  34.8203158  19.5019639
  15.3527236  34.3386006  20.3516388  23.6584997  19.3678570  39.2868090
  24.4064307  19.6433842  39.8168230  23.8787174  19.6473408  38.3981991
  82.5940704  26.5169930  33.7736607  82.2098637  27.3907161  33.8459492
  82.7651405  26.4072084  32.8382921  31.0686469  36.1876941  19.0130329
  31.3256645  37.0236659  18.6240292  31.8364716  35.6266356  18.9039743
   3.8678768  19.4484234  16.6141272   3.0210739  19.2383206  16.2204099
   4.1098070  20.2897954  16.2270951  30.5243897  32.6117396  35.3943038
  30.3491402  33.4595895  35.8025551  31.0567856  32.1421957  36.0364223
   7.3378819  56.2631941  27.3827553   7.5218362  55.7380009  26.6039324
   6.6975772  55.7478952  27.8733754  21.7175007  22.6831198  60.7036400
  20.8264065  23.0167961  60.5995035  21.6027355  21.7600965  60.9296608
  20.3525329  22.5798321  14.1670120  20.0837684  23.4417200  13.8489783
  20.8538556  22.2032785  13.4437442  10.9688556  39.5112443  -0.1122615
  11.6201270  39.0258646   0.3941812  10.1471436  39.3723321   0.3586140
   0.8406349  18.0805421  12.9203749   0.6253831  19.0020990  12.7767444
   1.6034028  17.9232001  12.3639035  27.9186201  14.4685519  34.5156264
  27.0127010  14.3291914  34.7915292  28.4363890  13.9267266  35.1110840
  82.5961018  13.6577523  62.1289015  82.8261852  13.1433809  61.3551283
  82.2538757  13.0153143  62.7504969   5.8117825  29.6748233  45.3121996
   5.2212626  30.3855896  45.0625420   6.4507127  29.6331835  44.6006727
  72.6356411  79.6106100  52.7129936  71.7827225  80.0292015  52.5966454
  72.4295664  78.6940765  52.8966618  27.2532105  13.8674939  65.3619576
  26.7930579  14.6631026  65.6293535  27.9074073  14.1694784  64.7318316
  32.8935409  69.0717459  53.9086628  32.6377463  68.4328270  54.5739317
  32.2163248  69.7468233  53.9520025  40.6850863  50.0030184  24.6879339
  40.1637268  50.3994322  25.3859806  40.8665943  50.7243347  24.0854406
  91.0594559  38.2317042  57.0815897  90.9845352  37.2803545  57.1560764
  91.8555450  38.3698106  56.5683603  15.2512944  80.4039383  22.4713230
  15.5804086  79.5122290  22.3583388  16.0365319  80.9331226  22.6113343
  18.1912947  16.9494379  30.0180292  17.3376954  16.9903135  30.4492259
  18.3064246  16.0240734  29.8019791   6.8744302  21.7649388  11.1837602
   6.9325620  22.3786020  11.9160640   6.3664573  22.2314978  10.5200446
  34.2213941   3.1121716  15.1049232  33.7832022   2.8970003  14.2815626
  35.1506925   2.9679644  14.9264836  44.7571135   5.9454113  21.8971276
  43.8766623   5.9368300  21.5216732  45.1981974   5.1995695  21.4904404
  11.5796351  52.7891588  46.8298864  10.7672381  53.1435394  46.4684200
  11.6646242  51.9253826  46.4262819  73.8605738  72.2252274   0.4387627
  74.6665192  72.2932291  -0.0731557  73.6996937  71.2842083   0.5083171
   4.9855492  49.5681906  46.9943237   4.8696932  50.5171108  46.9457960
   5.8288175  49.4519281  47.4320602  49.6733522  41.7494869   4.7353867
  50.6073236  41.6636848   4.5441681  49.2512798  41.7417145   3.8763008
  14.8121941  47.5646019  12.4111557  14.7558022  47.8519821  13.3224535
  15.7002985  47.2183990  12.3237109   6.5281492  73.7999439  30.1615047
   5.9505528  73.1370115  30.5398321   6.5155023  74.5179605  30.7943749
  12.3408580  63.6967039  38.1227946  12.2391295  63.5163879  39.0573382
  11.9732785  62.9267359  37.6889014   9.2397422  32.0564556   3.3554775
   9.6026206  32.8439236   3.7609965   8.3951324  32.3362803   3.0025405
  89.8235989  69.0915871  32.6393270  88.8967896  69.3162918  32.5570512
  89.8497009  68.1405163  32.5343466  42.6839352  26.4661551  41.0171318
  42.1106672  27.2268486  40.9226036  43.5362196  26.8357420  41.2479019
  24.9378347  15.8678293  32.3951101  24.1505170  16.1277890  31.9167995
  24.8415065  16.2767124  33.2552075  18.9015365  32.3372054  10.4860210
  18.3527863  31.5724897  10.3119075  18.3123004  32.9644084  10.9051239
  28.4143496  74.6954536  45.9488392  28.7791324  75.1937962  46.6801548
  27.6036835  75.1537418  45.7274199  89.2763138  68.3576012  59.0939522
  89.5500183  68.5050106  59.9992657  88.6429310  69.0535927  58.9188719
  32.9630017  40.4635715  22.9938793  33.3663821  40.9283829  22.2607589
  32.3954678  39.8123837  22.5814629  47.1537495  64.6486330  56.7852879
  47.3151684  64.4970560  57.7165222  47.3582220  63.8120508  56.3674831
  24.0222168  58.4928131  57.4052811  24.0944219  57.5390816  57.4428892
  24.4920540  58.7373257  56.6079712  13.3566535  65.5541563  31.9968534
  13.9101815  64.8840141  31.5959215  12.9832971  66.0312557  31.2557650
  49.8283434  45.1127577  13.9683759  50.5377579  44.6057701  13.5735035
  50.0590563  46.0249043  13.7923336  11.3290691  25.5581355  40.7684803
  12.1153414  25.0713348  40.5214310  11.0872662  26.0399413  39.9775147
  30.8727741  22.7261829  54.7406387  31.6642809  22.2085690  54.5929003
  31.0879469  23.2849836  55.4874182  22.8030252  40.7026052  31.3093066
  21.9449663  40.3873491  31.5931749  23.4277177  40.1279926  31.7518139
  34.8465943  37.3214650  21.4800143  35.7725286  37.4652219  21.6754866
  34.8144341  37.2284818  20.5278850  17.1296799  17.7429211  20.7501531
  16.7206585  17.7101123  19.8853648  16.7194903  18.4929264  21.1808133
   3.0125394  46.5686655  57.3957968   2.4951045  46.8226671  58.1599855
   3.2502705  47.3979759  56.9811153   9.0214872  67.2262001  19.0383399
   8.4461844  66.5985203  18.6009920   9.8780566  66.7991018  19.0487552
  23.1590676  64.9753237  74.3317890  22.8733158  65.2336836  73.4555340
  23.2206059  64.0209341  74.2919636  34.3428373  57.4262238  18.4592021
  33.4232736  57.2268152  18.2834971  34.3590069  58.3719492  18.6060822
   7.8411531  46.9277716  24.3923020   8.3691293  46.1603212  24.6125174
   7.2408974  47.0256472  25.1314545  44.8646212  75.3613949  70.7358980
  44.2574024  75.0513220  70.0640583  44.6498156  74.8422718  71.5108824
  75.7609463  72.5663185  27.8784084  76.7035341  72.6810884  27.7576184
  75.3766775  72.8526211  27.0497942  19.1280818  16.6815233  41.1808538
  18.3169663  16.5265036  41.6648912  19.5309424  17.4294949  41.6218424
  85.5482006  70.3953362  26.4833307  85.9570599  70.1294136  27.3069549
  86.2601376  70.7884121  25.9784794  20.8790445  40.8217192  19.6219015
  20.7456946  39.9770617  20.0520205  21.7982435  40.8121347  19.3550420
  22.4104667  43.2797527  61.2464905  22.7608347  42.4029636  61.0892773
  22.2433639  43.6312580  60.3719902  90.1957417  73.1931734  73.0473852
  89.3383503  73.0411148  73.4448624  90.2869892  74.1458893  73.0318928
  26.9152522  28.8917875  26.7974138  26.7481875  29.1968465  27.6891875
  27.2906446  28.0184197  26.9094181  72.4584818  47.4446821  25.7820392
  71.7263937  47.1474028  26.3223219  72.1376181  47.3723269  24.8831272
  35.7706380  74.5412254  54.0439939  35.4637074  74.1120958  53.2453203
  36.6672635  74.2254400  54.1561413  36.6352797  49.5898914  17.4644423
  36.8545699  50.4974174  17.6754880  35.7562828  49.4663572  17.8226817
  11.7140496  83.9049530  11.4141071  12.5270498  84.4082165  11.4586949
  11.2598276  84.2512321  10.6459904   8.7020850  61.1311913   9.6402925
   9.3290812  61.1168528  10.3634119   8.0188435  61.7368507   9.9276769
  36.9764781  18.2131124  40.1104450  36.0462379  18.4341836  40.0655746
  37.2910237  18.6592293  40.8967495  18.9313698  34.6951294  50.8272457
  18.0074036  34.5473862  50.6255293  18.9608049  34.7594857  51.7818260
   5.5776680  51.5874672  52.8370619   5.5060428  50.6399727  52.7214766
   6.3283253  51.7015839  53.4199190  21.6808701  62.2302103   3.0798391
  22.2979951  61.5713406   3.3980870  21.6017175  62.8530359   3.8023725
  12.5679326  33.2076716  14.3121171  13.0256510  33.1279922  13.4752321
  12.4933159  34.1511369  14.4554245  53.7897444  67.1167231  14.5663393
  53.9791393  67.2659206  15.4926765  53.9838982  66.1896133  14.4284749
   9.4376004  57.8439331  17.3130715   9.4387031  56.8952513  17.1856487
   9.6443027  57.9612923  18.2402897  38.2390761  50.1966715  21.0548878
  38.0820084  50.2661896  21.9965506  38.1242990  51.0883999  20.7264447
  83.2819080  86.2878323  37.5835371  83.0953312  85.4694462  38.0435967
  84.0521622  86.6421318  38.0278492   4.5955780  40.9620762   2.0463435
   4.5135829  40.0508785   2.3278145   4.2543787  41.4714527   2.7814293
  20.1341009  71.2050772   1.2274761  20.0615621  71.4691257   0.3102799
  19.5360351  70.4623890   1.3109238  27.7665257  41.7013359  25.8073187
  27.8998590  41.4078474  26.7086077  26.8154740  41.7413568  25.7066774
  86.0736179  21.8482733  66.9865322  85.6813908  21.3064575  66.3018179
  86.9987679  21.6026592  66.9857645  88.8106346  56.8270159  60.0973988
  88.7147903  56.1176157  60.7328463  88.9976120  56.3837004  59.2699051
  27.5911880  62.3667860  59.5226574  26.9077826  61.7563343  59.2460060
  27.7722621  62.8926802  58.7436342  18.1077385  53.1455088   8.7797421
  18.5258949  53.7973976   8.2172269  17.6861095  52.5389814   8.1709880
  33.8850236  48.5986280  18.1080008  33.4157038  49.0694332  18.7967050
  33.1965828  48.2765675  17.5261414  42.6467514  26.4429808  10.2666688
  42.9720163  26.5641522  11.1587179  42.9847097  25.5872226  10.0026774
   0.7183876  73.7342882  15.1518798   0.6123683  73.0869770  14.4547558
   1.2155254  74.4443560  14.7458112  15.7712603  56.9997692  25.5598450
  15.6420577  56.4105129  24.8166633  15.0552619  56.7896795  26.1593795
  80.2627850  18.2202506  69.6688175  81.0509491  17.6791883  69.6210384
  79.9937677  18.3326018  68.7570953  -0.1486585  60.7592964  16.9848144
   0.1258138  61.1540365  16.1571205   0.4753063  61.0945797  17.6286185
  32.5616693  46.2679625  60.8666325  33.4972572  46.0729456  60.9202433
  32.3124218  46.0043097  59.9808598  52.4802160  72.1456957  59.3094254
  53.0815125  71.4464951  59.5659351  52.9972744  72.9473209  59.3886948
  79.5188618  72.0197773  15.9589434  79.6081066  72.8471947  15.4860294
  79.1169596  72.2627592  16.7930090   9.6347374  37.6498771  53.4886503
   9.5185316  38.3793712  52.8799105   9.1916072  37.9325700  54.2886257
  44.3865347  54.4671392  20.3372359  43.7571192  54.2451048  21.0233641
  44.0392447  54.0491629  19.5492542  45.2359152  30.4658556  25.8172703
  45.6042433  30.0989819  26.6209912  45.2021313  31.4088655  25.9779596
   0.2401214  54.6011448  23.6728930   0.3071367  54.1599083  24.5196819
   0.1793882  55.5310631  23.8915110  54.6060801  24.6758628  59.7169876
  55.4708958  24.2742348  59.8008060  54.5252132  25.2339721  60.4904270
  56.1787367  58.0859470  71.8671131  56.5328503  57.7655458  72.6966763
  56.6501093  58.9031410  71.7051601   4.8453340   1.9090110  59.4950104
   4.6622807   1.0209478  59.8017120   5.1437265   2.3753399  60.2758598
  41.0885859  25.0312090  22.9669070  40.6697845  25.2769399  23.7918019
  41.9739866  25.3890872  23.0318928  49.3336678  27.8934360   0.5332904
  50.2880907  27.9437757   0.5859869  49.0981865  28.5200310  -0.1509336
  31.4102244  38.9936996  13.7552798  31.2947655  38.5875988  12.8962195
  32.2366929  39.4714761  13.6852181  13.1837583  26.2759161  16.0991919
  13.3198273  27.1239233  16.5218055  13.8053226  26.2685847  15.3712940
  11.5467763  47.0823956  45.9203625  11.4319897  47.0344162  46.8694401
  11.6117191  46.1693287  45.6404924  11.1563873  59.8899794  16.3783371
  11.0357583  60.0946999  15.4510987  10.3448939  59.4516277  16.6343784
  31.0821223  52.0871782  27.2336698  30.3446984  51.9720030  27.8329802
  30.7875705  52.7579546  26.6176057   0.7569006  82.8618622  68.0487633
  -0.0536654  83.3363819  67.8641939   1.4478853  83.4207630  67.6932287
  41.0241747  13.0165601   5.9763610  40.3913069  13.0177808   5.2582324
  41.3627529  12.1214497   5.9957063  25.4796863   5.0213045  64.2909002
  26.3456464   5.0663310  63.8855362  25.0906372   4.2217392  63.9365435
  52.3974133  42.5047874  14.2664671  52.5475073  42.8133821  15.1600409
  52.2712326  43.3040333  13.7550783   8.5300034  11.1890376  12.5324023
   8.8412589  10.8291996  11.7018187   9.3199682  11.2792969  13.0653560
  22.5830507  37.3743272  46.4526606  22.5888324  38.2293224  46.0223389
  22.9293990  37.5447011  47.3285913  64.7554779   2.6583549  56.8768311
  64.5099640   2.0305528  57.5564003  63.9417982   3.1183010  56.6704082
  41.1774588  66.2103462   8.9485753  41.6132879  67.0457602   8.7801582
  40.5545521  66.1156130   8.2279873  16.8665099  37.4271941  10.3499448
  16.9261479  37.7075791   9.4366759  17.5309718  37.9457831  10.8035827
  40.9593868  61.5351582   2.7925619  41.5737581  61.2051964   3.4482342
  40.4479408  62.1984434   3.2559270   9.4967991  64.4296074  27.1451473
   9.7057694  65.3294325  27.3958921  10.1762879  63.9005709  27.5630569
  77.7582407   8.4868860  55.7746220  77.8290558   7.7178723  56.3401604
  78.2754993   9.1590005  56.2184048   9.9347204  14.0455997   7.4599290
  10.3316224  13.7598503   8.2827580  10.4180622  14.8371124   7.2230321
  66.3830996   6.5166521  66.0669518  66.8909597   7.0337164  66.6922188
  65.9774971   7.1661603  65.4926205  86.2014961  24.2848158  13.5622501
  85.5333900  23.9880085  14.1801310  87.0312595  24.1269541  14.0125823
   3.0048847  53.0840349  33.9796257   2.3605201  53.6132097  34.4497299
   3.6888513  53.7054062  33.7299919  21.0705328  50.3303289  40.0541496
  21.5454078  51.1493063  39.9127293  21.6031170  49.6660519  39.6167493
  55.1161766  53.4643126  29.1095781  55.9441805  53.8867044  28.8810444
  54.4864798  53.8151979  28.4798193  25.4941344  74.1219044  14.7087538
  25.4122114  73.8825321  13.7855947  24.7795320  74.7405052  14.8601091
   5.9621418  32.1569395   0.8841122   6.1248678  33.0871749   0.7278576
   5.0145888  32.0966339   1.0055126   8.8118857  40.7686901   8.8237482
   9.4438404  41.4220142   9.1238010   9.0195471  40.6420946   7.8979605
  20.3946185   7.8497303  14.4449878  21.1479115   7.3813164  14.8046672
  19.7504103   7.1650034  14.2650533  13.5551095  54.1967773  53.5169363
  14.2698479  53.6386299  53.8232946  13.9693558  55.0416565  53.3414078
  78.8164091   7.8912443   7.8664184  78.9164495   8.8258249   8.0474788
  77.8924942   7.7890867   7.6380062  51.8530560  44.3145275  12.2053540
  51.3063431  44.2745209  11.4206660  52.5523520  44.9277210  11.9790435
  77.7556276  12.3411214  70.1470804  77.5260592  12.6556420  69.2726660
  78.4445095  11.6940153  69.9956512  91.0367584  64.0027618   1.0389566
  91.9812584  63.8679171   1.1162695  90.6775570  63.6549711   1.8551958
  21.5194702  25.7635880  54.1517305  22.1720719  26.4046383  53.8699532
  21.2241602  25.3500342  53.3405638  80.3449631  17.4001014  72.4457598
  79.4689226  17.1945059  72.1194077  80.7443428  17.9202652  71.7485094
  33.1425548  56.9401169   3.6593497  33.5504699  57.7435207   3.9824319
  33.0349207  56.3957548   4.4392961   0.1222208  49.6867085  21.2507129
   0.7754591  49.9880171  21.8821597  -0.1833651  50.4862499  20.8222532
  88.4649754  76.4869595   3.4956327  88.1154346  75.8371639   2.8858554
  88.0465317  76.2805510   4.3314171  56.3363743  20.4244685  13.8607800
  56.1683941  21.3573384  13.9940894  56.6377401  20.3625059  12.9543734
  22.3547316  17.8498280  36.5810704  22.6957417  17.7168798  37.4655294
  23.0575395  18.3074403  36.1196756  12.8995585  42.4935579  36.2568021
  13.2718325  43.1975603  35.7257390  13.1184936  41.6927385  35.7803726
  42.6537037  20.2543545   4.7187951  42.1867609  21.0772038   4.5734724
  42.1428061  19.8046887   5.3918618  20.4885077  26.7865705  28.7071276
  19.9305153  27.2001362  29.3657923  20.1927519  25.8766174  28.6798525
  25.8939528  31.1762571  17.0939815  25.3232837  31.1299777  17.8610706
  25.6022549  30.4563165  16.5346694  51.5822411  81.4829636  16.0567474
  51.9511890  81.5048504  16.9397151  50.8177090  82.0571041  16.1023259
  52.6455402  56.9002342  19.2854702  52.2806358  56.4542150  18.5211802
  52.9045486  56.1920452  19.8750567  84.5362854  11.3507867  72.2593689
  85.4359245  11.0701454  72.4270821  84.0107059  10.8607924  72.8917503
   4.3799153  52.4604750  13.2612216   4.8148754  52.1460867  12.4686289
   3.5982835  51.9133854  13.3385372  36.1572552  81.0466766  40.6427813
  36.3223648  81.4808083  39.8058200  36.9644713  81.1729813  41.1414576
  55.3357601  31.3346648   0.7204518  54.3921900  31.4650822   0.8147733
  55.7245207  32.1362066   1.0706340  40.8762301  74.6933283  74.3316738
  40.1997329  74.3004645  74.8832538  40.7957412  74.2384447  73.4933211
  12.5249982  37.7648687  18.7558329  11.6203976  37.9831457  18.5315883
  13.0425739  38.1142426  18.0303788  28.3539295  36.6409802  29.7565627
  28.8147712  35.9808230  30.2742982  27.6710582  36.1517143  29.2977214
  24.5663142   5.8728302  55.9102535  24.7739005   6.1986393  55.0344753
  25.2498245   6.2401742  56.4707041  56.5338469  48.2014561  43.2071114
  57.2171688  47.7272177  42.7333975  55.9559679  47.5164270  43.5432911
   2.1766691  14.1623533  59.9916124   2.5832379  14.3553770  59.1468191
   1.8791550  15.0130391  60.3141785  20.7216120  49.6209192  33.6208963
  20.4519129  50.1397610  32.8630710  20.8316636  50.2619791  34.3231535
  45.9435081  60.3571033  10.0956738  46.5687990  59.7814703  10.5360067
  45.2156258  60.4363394  10.7122278  86.0575962  18.6249828  32.7435803
  85.5893135  19.4542003  32.8402138  85.8025932  18.3053529  31.8781090
  62.3526049   4.0208226  42.3406315  61.9935513   4.1806078  41.4678288
  62.6129770   3.0998075  42.3275757  11.6631055   1.4960229  14.0858138
  10.8145916   1.5152130  14.5284069  11.9547689   0.5879053  14.1663527
  14.4127548  35.8496809  22.2091866  13.4708369  35.8116841  22.0431232
  14.7447574  36.4737844  21.5638161   7.1601200  14.6148717  47.4557781
   7.9989171  14.1757607  47.5966120   6.5416938  14.1312861  48.0034351
  24.2105556   7.5293261  33.9104128  24.0716887   7.0358747  33.1020474
  25.0349569   7.9945451  33.7684178  79.5583487  12.7755165  26.6218734
  78.8315392  12.1531308  26.5970635  79.1918612  13.5859525  26.2681627
  22.2309256  28.8143396  11.8638122  22.0061326  27.9369712  12.1735322
  22.9852867  29.0697980  12.3947644  26.5490794  62.2045517   6.6096616
  25.7768941  62.0770979   6.0585570  27.0424747  61.3889027   6.5229702
   0.8759056  40.2792454  20.4215217  -0.0141647  40.1449490  20.7470536
   0.7890126  40.2525187  19.4686472  90.5507660  37.0286322  23.1889939
  91.0842705  37.1999884  22.4129486  91.1810684  36.7655635  23.8596320
  24.5869517  31.1382842   2.2688355  24.7523117  31.3602257   3.1851488
  24.2057300  31.9327378   1.8950070  14.7810268  42.8327656   3.2459900
  15.1515424  42.8604746   2.3638436  14.1381359  43.5418320   3.2581273
  30.8523607  60.0294638   1.8286952  30.0498819  59.5120478   1.8960905
  31.2345719  59.7705460   0.9901804  43.7920761  42.3159313  20.4653168
  43.6916399  42.3781919  19.5154393  44.5656967  41.7659426  20.5888295
  26.9173527  48.3169413  26.5065742  27.6030755  48.2207203  27.1674514
  27.3883629  48.5380507  25.7031465   4.1626874   1.0876515  32.3850632
   3.3576852   1.4792922  32.7239156   3.8631743   0.4269700  31.7605448
  21.8253994  30.5275011   4.0215400  22.5652957  30.5504084   4.6283838
  22.2242141  30.3870201   3.1627944   1.9934887  81.8866348  12.8667355
   2.7884853  82.3914242  12.6952887   1.9621827  81.2417603  12.1600604
  35.2536082  15.9393132  26.6873240  35.9814119  16.2809253  27.2067785
  34.5546150  16.5831351  26.8019295  71.7286968  74.7161007  63.2347631
  72.5674295  74.3952990  62.9033279  71.1287355  73.9788628  63.1218195
  76.2433100  18.1652141  68.5179138  75.4745102  18.2829905  67.9599667
  76.9575071  18.5772085  68.0316830  86.3853931  12.0991540  67.5146723
  86.8323708  12.6700222  68.1396151  86.0630417  11.3699961  68.0444431
   6.7720771  14.0123832  65.5868530   7.0416361  14.3178499  64.7206783
   6.4388531  14.7959352  66.0241604   8.5936540  50.3717995  46.4926529
   8.0729938  50.2989912  47.2925568   8.2319528  51.1336851  46.0399580
  26.6354561  84.0525723  66.3889742  25.6938124  83.9495945  66.2513638
  26.8068838  84.9736214  66.1927414  28.2572937  25.1020026  46.4262009
  29.1083002  25.0370598  45.9928417  28.3560205  25.8297992  47.0400381
  16.2074840  33.1071448  30.5195570  16.5018570  33.9291692  30.1273179
  15.6621385  32.7018356  29.8453522  87.0138454  20.2228737  19.9996650
  87.9198265  20.2590108  19.6928716  86.7124844  21.1306930  19.9639273
  25.9462047   3.7704188  20.9917879  26.1699891   2.9960251  20.4755831
  26.5038681   4.4633651  20.6381392  29.3326259  36.0445595  22.5878191
  28.5914850  35.6339908  23.0332136  29.4746113  35.5037975  21.8108726
  62.4880219  33.5142612  71.2879610  63.4370995  33.4742546  71.4057922
  62.1347046  32.9990220  72.0131683  30.0337887   9.4053775  35.0147319
  30.8178711   9.2940307  35.5523658  29.4249845   8.7415791  35.3387094
  46.4017534  23.9730477  27.1001792  46.7606258  23.1412435  27.4092817
  46.4770699  23.9269781  26.1470604  75.8569002  58.6438274  21.4554667
  76.7950487  58.6248112  21.2664080  75.6706715  57.7831030  21.8305755
  16.8082154   1.1611884  69.6518803  17.5841415   1.1908332  69.0921545
  16.3174164   1.9504386  69.4228983  63.4686565  58.1775808  72.0662737
  63.7851810  58.7340307  71.3546515  63.9390326  57.3518038  71.9519472
   7.5264597  67.2055006  24.1709971   8.0128694  66.5124273  24.6174145
   7.4852312  66.9195604  23.2584357  37.2773695  26.5928674  71.1342001
  36.7840219  26.4935803  70.3199673  37.8997612  27.2971034  70.9527874
  27.1179295  50.5635166   3.5971746  26.1922789  50.6915522   3.3897847
  27.2425032  51.0206890   4.4288623  25.1638293  16.8005061  62.4614429
  25.7704258  16.0711968  62.3334503  25.6784081  17.4615943  62.9244804
  30.2094531  67.5665712  23.8125658  29.3727803  67.2271252  23.4947824
  29.9686289  68.2479239  24.4402552  62.4452543  23.9270043  14.5942283
  62.8493881  24.3778491  13.8528466  62.3366022  23.0242133  14.2952359
  65.6575441  33.9545012  40.8965206  64.9855947  33.4113216  41.3084316
  65.2375031  34.2983150  40.1081085  18.5953033  76.7282963   4.8066103
  18.5706162  75.7907486   4.6152496  17.6759362  76.9944429   4.8193222
  39.8120904  74.5618582  54.7747040  39.0779638  74.0694714  55.1419210
  40.0638628  74.0694332  53.9934492  15.8542585  60.2981997  11.0649061
  15.3654873  60.4523134  11.8733525  15.3232658  60.7082081  10.3821385
  36.7259908  21.5178442  13.4425390  36.0842943  20.8863211  13.7675548
  36.7179275  22.2224712  14.0903580  77.0197535  82.4644470  42.8794909
  76.1993217  81.9769859  42.9536676  76.8511629  83.2881355  43.3370256
  60.3565454  83.5627460  63.5330820  60.5284691  83.8518524  62.6369238
  60.2664185  82.6122379  63.4649801  58.6930895  11.0337794  66.1379290
  58.0822325  10.8949471  66.8616772  59.0479708  11.9098771  66.2887478
  52.9894304  51.4549112   9.8891968  53.7496710  51.1222839  10.3663027
  53.2711363  51.4761972   8.9746356  52.7477217  25.6447148  34.2161155
  53.3000803  25.3234768  33.5034156  51.9174862  25.8663678  33.7944412
  15.7813084  37.3356056  37.6291132  15.3383148  38.0548120  38.0793715
  16.4263451  37.0184183  38.2612157  45.2336264  67.5222588  13.2123029
  44.6518946  68.2818604  13.2410550  45.6691504  67.5861549  12.3623216
  23.0242085  23.4406948  40.6701422  23.7456274  22.8343225  40.8377838
  22.3112583  22.8840017  40.3570509  79.1729212   4.2753831  69.6885872
  78.6398363   3.4817907  69.7361565  79.0500212   4.5932105  68.7940931
  64.7810936  12.0556366  24.8314738  63.9978933  11.5241432  24.9741101
  64.7861290  12.2268307  23.8897204  28.3194780  54.3663406   2.2059251
  28.6859965  54.0717649   1.3721862  27.5511360  53.8112688   2.3392546
  13.7471318  45.2137470  13.3301091  14.3769026  44.7706747  12.7615070
  13.9820910  46.1398315  13.2719111  51.1811399  53.0083418   1.5252405
  50.6948376  52.1992016   1.6834453  52.0585108  52.8306389   1.8641774
  25.9504890  52.3854351   7.9465669  26.6079712  52.8319359   8.4800357
  25.1550817  52.4075603   8.4786105  81.3054371  42.9449606  69.8737955
  80.6190968  43.5435104  70.1686001  80.8420563  42.1342754  69.6633053
  77.4767208  46.8308544  20.9352303  77.0881271  46.1241913  20.4196191
  76.9312477  47.5940657  20.7449651  29.8119950  76.2244892   5.4288733
  29.9602818  77.0471096   4.9624667  29.9982238  76.4314651   6.3446850
  52.4630976  39.7575545  15.0959337  53.4072208  39.6564126  15.2169013
  52.3328209  40.7016516  15.0068188  15.4030907  13.9325011   3.7576285
  14.7145665  14.2389977   3.1675208  15.0729525  14.1302800   4.6340558
  13.9390397  47.3154354   8.1684500  13.0787528  47.0308638   7.8599727
  14.0104461  48.2236433   7.8746945  85.6195450  39.0911198  28.5675502
  84.9114227  39.4450593  28.0294776  85.4034424  39.3657589  29.4586778
  15.1023221  60.0071478  20.0175428  15.9418356  59.7280931  20.3830314
  15.2224636  60.9368801  19.8241627  81.5306473  66.3661194  49.5009422
  81.3365078  65.6309366  48.9195251  81.3201618  67.1431112  48.9830542
  91.0039616  25.0337553  71.8215990  91.2254333  25.9538436  71.6780281
  90.9065342  24.9561286  72.7706623  37.9687023  51.6185093   2.9612193
  37.5151372  52.4592352   2.9004446  37.3094988  50.9719467   2.7089581
  87.1303082  47.6583433  63.4833288  87.0439816  48.1344604  62.6574373
  86.9552708  48.3147669  64.1576385  48.9741611  33.3566451  25.7682800
  49.0719652  34.2307758  26.1458540  48.4634733  33.4959888  24.9707770
  61.0962868  84.6019459  11.0008729  61.2833786  84.2652035  11.8771338
  60.2190638  84.9784470  11.0712230  30.5562329  53.7842941   4.2104769
  30.7378340  52.9912043   3.7062320  29.6983600  54.0741825   3.9002332
  26.9939947  14.6635914  70.2983427  27.7227449  15.0550795  69.8167896
  26.2832737  15.2994347  70.2157927  23.5368538  73.6775064  26.9843078
  23.7381697  72.7457476  27.0710707  22.9117465  73.7211180  26.2607241
  32.6286864  50.2340889   8.5388827  31.7218065  50.4708767   8.7331265
  32.7592063  49.3982983   8.9868236  85.8256340  40.7753801  74.2496157
  85.7381535  40.9876108  73.3203459  86.1624241  39.8794460  74.2600012
   5.3077990  78.4643841  69.9378538   6.0398394  77.9928303  70.3353310
   5.2360243  78.0966806  69.0570164  83.9419746  35.0711584  56.9703102
  83.4340286  35.0349140  56.1598110  84.1812801  35.9934187  57.0619583
  36.1574173  38.7901187   4.5403564  36.2531781  37.8397250   4.6021166
  35.3609991  38.9832401   5.0349826  48.1046295  77.1704054   4.8069432
  48.8067150  76.5345478   4.9447420  47.3006010  76.6806841   4.9799755
  67.2271490  42.1254921  22.6538754  67.8170872  41.3907099  22.4856424
  67.2807980  42.6617050  21.8627810  80.7413769  61.0463476  15.7544863
  79.8854113  60.6305885  15.6510532  81.3587093  60.4214001  15.3742635
  47.7372885  50.9825468  12.6088190  48.6476660  51.2133360  12.4239278
  47.6945639  50.9222460  13.5631609  44.5668173  73.5089016  12.3482299
  44.1838646  74.1775417  11.7803407  44.6884155  72.7505159  11.7770040
  28.1759501  71.3132143   3.0158746  28.0048013  70.5885315   3.6173549
  29.0805745  71.1806965   2.7324605  33.5409284  60.7915115  53.3297920
  33.6117077  61.6183662  53.8068008  32.8490782  60.3111219  53.7845421
  35.8775353  64.4263315   9.7386724  36.4901948  63.7050438   9.8822987
  35.7555985  64.4516230   8.7896079   5.6987327  47.9964161  67.8749943
   5.0660414  48.3165359  67.2319889   5.9037948  48.7624168  68.4111166
  22.2214198  45.8958578  24.2645907  22.8314877  46.1341619  24.9626303
  21.4186335  46.3728523  24.4749308  40.1251364  78.5570002  26.2567353
  40.4267311  78.1437397  25.4477334  39.1718578  78.5795927  26.1732006
  27.4045253  47.9851627   2.7770278  27.3211718  48.8544273   3.1690320
  26.6223073  47.8916073   2.2333220  55.7596397   1.7032664  17.6789010
  55.5614042   1.7889513  16.7463827  55.8770657   2.6034170  17.9825008
  55.2743101  23.3143830  36.7030978  55.4217672  22.8802299  37.5433350
  54.3482304  23.5560393  36.7176366  25.2541280   9.3505514  59.1680002
  24.4126844   9.0740633  58.8050175  25.3883171  10.2311981  58.8177299
  35.2746129  62.3073339  16.5439951  34.3886709  62.6514816  16.6575730
  35.4888129  62.4942255  15.6299806  88.3101845  43.9721012  42.4808121
  87.6648903  44.3894672  41.9101667  89.1120815  44.4768047  42.3449183
  31.7515087  74.4914913  15.8448482  31.1875415  75.2311945  16.0707140
  31.2072563  73.7194014  15.9994268  29.8752379  59.5497084  25.0159168
  30.7308269  59.9491596  24.8589492  29.7843647  59.5448494  25.9687829
  14.7566938  33.4570980  32.7980804  15.2780366  33.1729436  32.0472884
  14.7533274  32.7023268  33.3867598  46.3567543  55.0808573   6.7117089
  47.0918179  55.4848480   6.2505078  46.6409540  55.0386286   7.6247698
  53.2936192   3.0658096  13.1320620  53.1757450   3.7721187  13.7672496
  52.4711895   2.5769922  13.1620514  17.8877914  10.5634189   1.4763089
  17.2835767  11.2564492   1.2101042  17.9051292  10.6148112   2.4319710
  82.0412827  11.9822669  69.0738440  82.5955009  12.4623322  69.6891546
  82.5753403  11.2355840  68.8027763  28.1503701   5.3854674  22.6761293
  27.9719043   5.5783790  21.7557144  27.9625297   6.2051177  23.1334281
  87.5443840   6.4585537  21.4230299  86.7911053   6.9090700  21.0411429
  87.5478649   5.5988121  21.0022402  29.2045546  51.9295120  19.8849308
  28.8936710  51.2301159  19.3100965  29.3606782  51.4976358  20.7247782
  45.1399136  29.6490693  14.9006057  45.1434183  30.6032348  14.9766934
  46.0643911  29.4029045  14.9319410  12.0790553  26.6637945   9.8226768
  11.4841652  26.9087529  10.5314314  11.5759563  26.0480881   9.2897320
  26.4357901  77.1197128  15.2410591  27.3864651  77.2166967  15.1859057
  26.2790847  76.1919355  15.0652599  39.7208405  31.5325260  16.9434774
  39.4362569  30.6188273  16.9235373  39.1877151  31.9345236  17.6293409
  14.3752193  52.1249008  27.2049665  14.4987476  51.1985397  27.4119139
  15.2238441  52.5269842  27.3904371  38.6036754  17.1717405  51.5265703
  39.0152001  17.4803972  52.3337936  38.5776830  16.2194586  51.6199303
  32.0082569  33.6931229  25.6872344  31.4113951  34.3353367  26.0713601
  32.5956464  33.4533501  26.4039731  45.8209896  79.8582554  18.2881606
  46.6466713  80.1120567  18.7005496  45.3550673  79.3689775  18.9662147
  83.9563274   2.6008993  18.5808420  83.1844044   2.9241267  18.1162047
  84.6321583   3.2561648  18.4073114  66.4150476  47.3104143  42.4344921
  66.4696932  47.9264307  43.1650829  67.0299721  47.6529837  41.7858410
  80.4352474  47.2876883  21.1074281  79.5231867  47.0820427  20.9022593
  80.3956032  47.7349377  21.9527841  47.8669310  50.1217699  16.7129552
  48.2833338  50.7383204  16.1107004  47.3533535  49.5446920  16.1477602
  88.5693073  43.2031679  63.8866901  88.4981823  42.2535086  63.9832306
  87.8571892  43.5523987  64.4225550  50.9211636  60.8012629  17.7457166
  51.3024044  59.9447584  17.9388213  51.4571238  61.1465216  17.0317316
  60.3297806  70.9300900  15.2019620  59.4824553  71.2114286  14.8568273
  60.8854103  71.7066526  15.1351595  74.7396231  85.0842190  29.1470504
  74.8727655  84.6103764  28.3260918  75.5017424  85.6589794  29.2181635
   9.8836517  24.6403408  67.3947239  10.4873765  23.9175177  67.5658226
  10.2643967  25.3855300  67.8594398  51.2199545  24.6292973  39.4592500
  51.3877010  24.3943286  40.3718758  50.9441900  25.5452347  39.4945478
  42.0805502  48.7823677  10.2974498  41.5257263  49.4745779   9.9379450
  41.7581606  48.6562395  11.1898541  62.3599482  40.4188585  28.5762596
  61.4705944  40.5182266  28.9159775  62.6761818  39.6044993  28.9674807
  39.4619536  78.3812475  22.0434690  40.0663900  79.1079521  21.8925023
  39.1147399  78.1743145  21.1757970  80.4076672  41.6198063  18.4529293
  81.1380863  41.0030413  18.5011983  80.8000374  42.4309111  18.1298470
  28.7756181  10.5534565  58.0762005  28.0194521  10.8867192  57.5931025
  29.4527817  11.2179601  57.9492378  13.7474465  79.9815941   6.1846679
  13.7872672  80.8335972   6.6191125  13.7368429  80.1894188   5.2503616
  49.4013739  39.1210461  28.6096835  48.9353991  39.4815302  27.8552651
  49.0215397  38.2510591  28.7324810  10.1810157  51.9255257  11.6749966
   9.9454463  52.7998686  11.9852662  10.8287215  51.6135597  12.3069692
  44.8828745  73.0851030  20.6897974  44.8472214  72.1850824  20.3658819
  45.6880665  73.1221342  21.2060642  51.1851406  50.5842781   6.1580437
  50.6769753  51.3375568   6.4589953  51.0446310  50.5633259   5.2114445
  23.7771654  65.5387831  25.0933886  24.7150254  65.4073477  25.2325869
  23.4855413  66.0213661  25.8668876  91.4601994  34.2483139  73.4764624
  90.5788803  34.3750381  73.1251049  91.4579678  33.3515239  73.8111115
  30.1242232  34.7432303   9.3437934  29.7098255  35.5197430   8.9675808
  31.0022330  35.0352716   9.5888352  56.2702894  68.4765291  31.8842721
  55.6109524  67.7836609  31.9222403  56.4609528  68.5748625  30.9514213
  65.0407600  38.8900757  32.2214365  64.9026585  38.0415630  31.8005037
  65.9408045  39.1255069  31.9962096  47.6738882  82.0873928  55.2693224
  46.9928026  81.6520119  54.7566795  48.3240080  82.3595715  54.6216393
  41.9623041  70.6176710   6.5372854  41.4265966  70.5570316   5.7463557
  42.8642464  70.5766726   6.2193936  26.2219095  53.5096979   5.5298018
  27.1053529  53.1478214   5.4605019  25.9696507  53.3531284   6.4397925
  38.8581133  71.3698626  18.3527672  39.0288997  71.4958477  17.4193919
  39.4142699  70.6312370  18.6004579  25.8042955  52.5467920   1.1233686
  25.1772237  52.6032734   1.8443550  25.5595922  51.7486334   0.6550847
  38.7975359  49.1911364  15.2834451  38.6540627  49.9145555  14.6732664
  38.1580591  49.3356609  15.9808791  60.3935623  70.3883076  26.9739890
  59.8052692  70.1342916  26.2629199  60.2416468  69.7339296  27.6558566
  50.8104277  14.7187078  14.1108429  49.9106598  14.3925774  14.1278780
  51.3489246  13.9445913  14.2751443  47.3491335  73.5718775  21.8937445
  47.2675180  74.4343901  22.3007417  48.2871819  73.4711313  21.7320585
  51.5877485  61.6323280  10.1117003  51.8196297  60.8102131  10.5436540
  52.4242496  61.9921207   9.8166621  88.9394569   4.3857095  74.2937374
  89.2466354   5.2907598  74.3462467  88.2001877   4.3480989  74.9006128
  55.4101944  37.9951143  21.3555574  56.0893917  38.1094217  22.0202827
  55.6181574  38.6468863  20.6860948  64.3596506   2.7742717  49.2448282
  63.6840963   3.4347114  49.3986988  64.6775293   2.9582387  48.3608961
  76.6486692  84.8588657  35.4013848  77.3586178  85.2035999  35.9430122
  75.8778715  85.3586197  35.6703520  59.4029474   4.4487467  52.9009199
  58.5391569   4.0367544  52.8819323  59.4880533   4.7856772  53.7928104
  17.7073455  36.4156961   0.4744825  17.2472978  36.7836952  -0.2799469
  18.0523384  37.1777749   0.9397236  41.4498806  14.6851254  59.1877842
  40.7929039  15.0262558  59.7946167  42.0617771  15.4108083  59.0644979
  48.8044500  57.9926252   9.4262612  49.1257095  58.7757874   8.9794075
  48.4277868  58.3203650  10.2429271  27.5236845  33.7837934  16.0275233
  28.1893516  33.4368157  15.4336178  26.7384768  33.2723761  15.8322477
  88.6522007  70.7588387  53.1771278  89.0494251  69.8981524  53.0442286
  88.7960529  70.9484386  54.1042662  71.6970825  81.1302280  16.4278924
  71.7686224  81.9854259  16.0039222  70.7825422  80.8767414  16.3030040
  78.9787102  24.0857863  58.6971903  79.1065025  23.6152101  59.5208740
  78.6572838  24.9478745  58.9612389  45.2686357  32.2096014  14.8958123
  45.5482149  33.0757546  14.5994306  44.8676634  32.3668456  15.7506382
  55.7478094   9.4009751  27.3176765  56.2407303   9.7894889  28.0403924
  56.3843679   8.8495874  26.8627095  81.3940620  21.0961771   6.7454571
  81.7258549  20.4353189   6.1376679  80.6661892  21.5068507   6.2787801
  28.2576847  49.5379496  18.6881614  28.9508414  49.4173288  18.0391502
  28.1286716  48.6677122  19.0653551  59.9440622  66.4709711  30.8186936
  59.4505262  66.0092545  30.1408505  59.5849514  66.1417484  31.6426373
  48.9647245  41.9330931  12.8888464  49.7811985  41.9288492  12.3892570
  48.5607147  42.7754259  12.6803184  29.5424581  23.6333323   7.9881489
  30.1784396  24.1981101   8.4272188  29.2490840  24.1442513   7.2337443
  63.4654713  30.4049850   1.4508556  62.7399158  29.9178648   1.8413900
  64.2035723  30.2484632   2.0398688  38.3679819  35.8735728  16.8666649
  37.5694966  35.3893590  17.0768762  38.4468174  35.8040047  15.9152567
  25.6226134  39.7930956  67.8595924  26.1735058  39.0153241  67.9480314
  25.1402926  39.8400950  68.6850548  24.9006462  77.1154213  26.9369864
  25.2159929  76.5829659  27.6672482  25.5798340  77.7784491  26.8131852
  89.7067928  70.1728439  64.5943022  89.5040035  70.7996082  63.8998461
  90.6461811  70.0121403  64.5050907  21.9970989   9.4301206  24.3937421
  21.6528773  10.3228176  24.4226456  21.6207123   9.0032500  25.1633835
  20.1202154  65.8828545  50.5984259  20.9511113  65.4162645  50.6886435
  20.3311348  66.6457272  50.0601196  57.4637413  57.2468758  21.0003614
  58.1612968  57.6092482  20.4541659  56.9178104  58.0009031  21.2231493
  72.3678637  44.2497635  22.3064518  72.7047920  43.5416031  22.8552866
  72.2016287  43.8374376  21.4587569  38.6900520  17.9777992  21.0747433
  37.8989196  17.7073610  21.5407968  39.0896654  18.6361361  21.6431928
  45.1083612  67.9333735   4.1760331  45.7790899  68.2164192   3.5545540
  44.4265890  67.5411797   3.6305046  58.5611534  13.8386667   6.1971682
  59.2809677  13.2111573   6.2629682  58.4122658  13.9345920   5.2564967
  14.0795851  38.1766510  55.0115204  13.4389317  38.8878441  55.0118685
  14.8900640  38.5845304  54.7065783  58.6848068  75.0522470  44.7747755
  58.2076645  74.2246914  44.7138357  59.3159437  75.0183249  44.0559244
  69.5114374  79.4384623  29.2221355  68.9873648  79.3018961  30.0113940
  70.0864697  78.6743307  29.1812658  40.0588799  51.6888952  17.7763641
  39.4667006  52.3129940  18.1959641  40.0121832  51.9036150  16.8447268
   9.4070333   9.8818058  68.1868362   8.5533822   9.6231425  67.8395510
   9.7544295   9.0845960  68.5868406  24.1806078  80.6105232  32.1258879
  24.9222326  81.2154961  32.1106482  23.5135841  81.0622787  32.6428342
  29.9001145  72.4123526  15.6023288  29.2239547  72.7900839  15.0398695
  29.4910002  71.6329384  15.9783196  41.8244839  34.2968082  69.5997572
  41.5640879  35.1997137  69.7819328  41.9364738  33.9008188  70.4639816
  53.8747263  78.3709574  62.7447939  53.5837173  77.9578066  63.5577202
  54.7325039  77.9826689  62.5725031  60.0135517  77.3078012  28.6493111
  60.9222984  77.0147514  28.7166381  59.5574474  76.8358183  29.3460417
  61.4963675  27.9142261  28.0801320  60.9717321  27.8636646  27.2811103
  61.6013479  28.8523340  28.2387686  87.9092598  32.3654604  40.8073664
  87.5388145  33.1354880  40.3760195  88.8336754  32.3733735  40.5590868
  30.4282069  24.5661235  66.4759111  30.7273626  24.2925715  65.6087828
  29.7105241  25.1747799  66.3006926   8.4953326  28.6108804  59.9736691
   8.5715455  29.2140865  60.7129717   9.3998241  28.3967304  59.7450542
  87.4197960  10.7607329  17.5351489  87.5035763  10.1011229  16.8465793
  86.7703056  10.3974020  18.1371272  62.0590019  21.9684505  27.0852566
  61.9636631  22.7407360  27.6426768  61.7158890  22.2430086  26.2348914
  14.0945852  25.3499770   0.5120926  13.8029969  25.1019549   1.3894144
  13.2948828  25.6220913   0.0619113  55.5015659  56.4350510   8.6242336
  56.2921047  56.5941954   8.1085318  55.8019018  56.4474201   9.5330113
  42.1061611  77.1331215  33.1514668  42.4736071  76.6572618  32.4066377
  42.7685308  77.0522118  33.8377285  64.0993023  84.8502350   5.3747755
  63.7327957  84.5917988   4.5291311  63.6830807  84.2629814   6.0057461
  18.2961250  44.7503237   0.4328595  17.4129654  44.5295804   0.1370106
  18.2257963  45.6526412   0.7444821  23.2782483  20.6245708  28.6637735
  23.3000612  21.5768886  28.5697007  22.3687434  20.3868484  28.4834385
  86.8500805   8.5463470  15.9151971  86.7698002   8.2244051  15.0173438
  87.0671940   7.7690285  16.4298499  60.2070332   2.1814592  15.6048810
  60.4721928   2.7996951  16.2858415  60.5885363   2.5330323  14.8004663
  44.3310547  77.4699974   4.2520976  43.9130306  78.2837486   4.5336866
  44.3358707  77.5214815   3.2962954  41.9691086  48.0318975  20.6126738
  41.5025091  48.8085842  20.9213424  42.8578758  48.1355381  20.9526563
  24.4047761  60.0828838  26.0185361  23.8348126  60.8517981  26.0063410
  25.2551365  60.4104137  25.7255483  63.3006573  35.0108814   7.3759222
  64.0217209  34.4077802   7.5563973  62.9689121  35.2531099   8.2405043
  45.4618692  46.6992188   0.9284680  44.7919083  47.2654486   0.5453737
  45.6609964  47.1018171   1.7737448  26.4954352  70.3428411  25.8422637
  26.5109754  70.0028658  24.9476099  27.4111199  70.3265238  26.1206269
   0.7797025  65.3843641  55.0959253   1.1069170  66.2407780  54.8207617
   0.5496845  65.5007362  56.0177612  62.1073055  57.9310846  18.7672555
  61.2342978  57.9821062  19.1564667  62.1348953  58.6577654  18.1448376
  89.7250843  28.0389714  57.5711298  89.6525574  28.9927769  57.6061630
  88.9676476  27.7229214  58.0637121  12.0017374  58.2706738  72.1767950
  11.2043905  58.1685877  71.6571331  12.4944913  57.4651384  72.0201492
  89.1879749  70.3003550  29.0778065  88.2679462  70.5604982  29.1238213
  89.5935345  70.7190895  29.8370218  53.3402824  58.2171249  22.5898671
  52.8728437  58.9636087  22.2150469  53.1371307  57.4883556  22.0034719
  41.5039587  45.0939465  10.5013657  41.5580130  44.1593027  10.3020000
  42.4123478  45.3623533  10.6392860  84.8932457   5.0848788  39.7789693
  85.1253223   5.7266521  39.1077781  83.9593887   4.9240020  39.6438146
  33.9077759  83.6740780  19.4808424  33.9813614  82.7770519  19.1549957
  33.6570835  84.1879463  18.7131727  77.2601795  54.8646021  45.6539488
  76.7578316  54.9679995  44.8457432  76.6600609  54.4218159  46.2539721
  85.0432396  83.7175083  43.7474203  85.5141735  83.2065678  43.0890989
  84.1229916  83.4908390  43.6132812  51.7539883  83.8770103   7.3627126
  52.3803854  83.7564087   8.0763745  51.2196302  84.6224976   7.6364678
  78.5705566  19.2149079  39.5197177  79.2231703  18.7814891  40.0696945
  78.1048393  19.8003602  40.1168680  64.5716572  68.0919266  26.5641546
  64.8559284  67.3814917  25.9890914  63.6974669  68.3205080  26.2482882
  32.8546476  51.0665035  67.4728203  33.1859684  50.1866293  67.2931767
  32.0281696  50.9217978  67.9335022   1.3697632  54.8205376  18.9448369
   2.0318007  54.9821186  18.2726538   0.6997643  55.4854107  18.7858427
  35.7181692  72.9239988  34.2484355  35.4305339  73.6189079  33.6563230
  35.5647540  73.2772541  35.1247382  78.1450701  57.6264906  65.8128023
  78.5284233  57.2430468  65.0239754  78.8976669  57.8516197  66.3597488
  25.8705235   1.6487195  34.8208952  26.4297891   0.8735375  34.8713851
  24.9850655   1.3150534  34.9653292  50.6561184  71.7475176  30.9099174
  50.1876879  71.1245489  30.3542995  51.5595913  71.7168474  30.5952334
  69.8436975  70.5304670  22.9839158  69.8206043  70.2524996  22.0682549
  69.8592615  69.7132111  23.4819913  18.3044708  13.1693625  64.0452099
  19.0068245  13.3454359  64.6712542  17.7388918  12.5387120  64.4908953
  88.9291191  66.2896442  66.0687160  89.4017029  66.3504410  65.2385330
  89.2313766  67.0454836  66.5722847  31.5220547  77.6409960  33.4261060
  30.7006121  77.3169088  33.7954712  32.0290160  76.8508005  33.2395267
  34.9526095  80.5498314  45.9912252  34.3031311  81.1092281  46.4172316
  34.9081731  79.7228670  46.4712191  86.7748547  60.9356070  28.8102961
  87.6589584  61.2671995  28.6533332  86.9055176  60.1402330  29.3265748
  61.5821171  71.2622261   4.9761635  61.8756533  71.5530777   4.1127533
  60.6341553  71.3943291   4.9639139  57.9786110  75.2747583  19.2374372
  57.5419521  76.1098337  19.4053757  58.6679554  75.2274561  19.8998594
  47.7377129  64.3085241  21.6111851  47.2721291  65.0404978  22.0157552
  47.3818636  64.2593575  20.7239509  20.3139710  77.4997282  19.2892396
  20.2245808  77.2795963  18.3619940  19.9601996  76.7395878  19.7510505
  58.2253599  50.4509544  26.1981559  57.4239731  49.9362373  26.2934351
  58.7877226  49.9169397  25.6370759  73.1159163  32.5300980   9.2827082
  72.4373484  32.6082850   9.9532789  73.7643099  31.9393039   9.6658295
   7.4949950  18.2188976  20.1848316   7.6264882  17.3994803  19.7078645
   6.7140388  18.6044860  19.7877645  65.6242943   1.8313546  40.0283480
  65.0798798   1.0554497  40.1618290  65.9896564   2.0192008  40.8929062
  62.7132845  71.4184713  27.8412604  61.8782425  71.0459137  27.5581789
  62.6039457  72.3629522  27.7306533  67.9143190  37.6075935  51.5512991
  67.3919010  37.0217037  51.0035372  68.7985039  37.2425294  51.5170336
  18.4010184  47.0590019  73.1852484  19.1459000  47.6501703  73.2943630
  17.9994941  47.3295307  72.3595190  41.0905218  25.8287835  50.2300739
  41.9260359  25.3939629  50.4006195  40.8250666  25.5079198  49.3682098
  33.0960298  74.1162300  10.4558229  32.4812245  74.3848515   9.7731149
  33.9016533  73.9061975   9.9834979  81.1749840  23.5664654  44.8659229
  81.8459892  24.0118217  44.3485832  81.6520023  23.1950045  45.6080151
  55.3234053  76.3027811  25.0300193  56.1563063  76.1392164  24.5875835
  55.0889444  77.1955967  24.7767544  17.3661923  66.2990236  50.9816599
  17.1472096  65.6308126  50.3322220  18.3231473  66.3109303  50.9997463
  27.4468422  15.4377580  62.4730968  27.8030419  15.5351102  61.5899897
  27.9652190  16.0388696  63.0080557  48.5762453  83.4184933  57.9376078
  48.0106544  82.8739643  57.3900366  48.6912394  84.2251682  57.4353313
  14.5491290  24.4472051  74.6848726  15.2342498  24.8683858  74.1657877
  13.9795280  25.1662874  74.9582005  68.7946987  63.4131002  30.4156899
  68.0652666  63.9865589  30.1805139  68.4244156  62.8045130  31.0550237
  84.4116974  83.8551617  28.3216381  84.7828960  84.6077728  28.7820888
  85.0722027  83.6244106  27.6684093  90.4431057  66.5664434  63.9761925
  91.3026810  66.5451908  64.3968105  90.5763531  66.1264944  63.1365967
  48.9453745  74.6234179  34.4072413  49.7530127  74.2918491  34.0147924
  49.2276573  75.0366879  35.2231789  23.0788922  70.3625202  74.5887232
  23.8960838  70.3658772  74.0903091  22.8542733  69.4359779  74.6741819
  40.9301090  75.9023666  29.5748973  40.2187967  76.4148331  29.1906548
  41.6537762  76.5231180  29.6597958  60.8025408  81.5050888  33.3438730
  60.3984880  81.4341545  34.2087078  60.5698204  82.3831463  33.0420732
  45.7858849  65.4292059   8.8714939  46.4704037  64.7995329   8.6452609
  45.8685350  66.1195278   8.2135785  51.5696096   4.0630174  33.8273692
  50.9098053   3.8040611  33.1840706  52.1359396   3.2959491  33.9116716
  58.6435890  72.4818563  18.1963277  58.5253334  71.5558434  17.9847813
  58.4138060  72.5470257  19.1232491  50.2110958  79.9894142  42.2120667
  51.0228539  79.7155094  41.7851591  49.9381208  80.7696533  41.7294359
  17.4115646  27.4728703  54.7687912  18.1150627  26.9404244  54.3975449
  17.8506517  28.0443883  55.3987122  51.4179039  62.6236200  49.2418337
  50.6108379  63.1172180  49.3875551  52.0816088  63.2931995  49.0763426
  47.4623156   6.8312556  48.2506180  48.0801105   7.1499753  48.9086342
  47.8101254   7.1540332  47.4193096  90.7247713  74.2584562   8.5686409
  91.1534831  75.0573301   8.8756245  91.0191086  74.1615391   7.6629895
  83.7673855  70.8277750   2.9410446  82.8295135  70.8281851   2.7496520
  84.0635204  71.7025948   2.6896125  62.4384069   5.1443869  32.0588541
  61.6591311   5.2279121  32.6083875  62.7430534   6.0435933  31.9370031
  45.1165724  75.1249599  14.8954093  45.7642794  75.7852602  14.6490192
  44.5223284  75.0811291  14.1462862  17.8006303   8.8255507  34.3450499
  18.4896898   8.7383771  33.6863923  17.8029764   7.9869628  34.8065639
  38.8467240  75.8517075  10.2808273  39.2138052  74.9698019  10.3418577
  38.0516744  75.8175516  10.8127689  51.5467405  68.7454367  37.1957111
  52.0560503  69.5475054  37.0794225  52.2004175  68.0462980  37.2079682
  63.9772797  45.6012726  24.2548776  64.9142647  45.6817389  24.0764904
  63.9024353  45.7221556  25.2014589  40.7784271  71.1934042  38.7244177
  40.6246138  70.5085182  38.0736470  39.9792814  71.7201185  38.7112689
  56.1990786  77.9792976   4.5776394  56.0469770  77.1966028   5.1072460
  56.8101788  77.6938725   3.8984314  85.0620270  60.6800413  15.0494719
  84.2054844  60.2861977  14.8838043  85.4846954  60.0831699  15.6669891
  66.7200518  76.7823839   2.3429298  66.3792324  77.1349001   3.1650040
  67.6650238  76.9260168   2.3942278  57.8185701  55.3610611  47.2693110
  58.5737419  55.1908493  47.8323174  57.7435446  56.3151455  47.2511768
  47.9068111  80.5310897   0.1165019  47.3887442  79.9090032   0.6272326
  48.7790941  80.4954700   0.5090390  53.7983084  67.4147081  34.5602918
  54.0481615  66.4943552  34.4781017  52.8605413  67.3922110  34.7508574
  50.8953857  76.2272787  26.3038182  51.4659643  76.9945049  26.3489366
  50.8072233  75.9405708  27.2128057   5.1506007  23.7630248   3.1570834
   5.2281511  23.8491797   2.2069283   5.6041032  22.9451656   3.3612263
   7.9633802  30.3636742   0.9364240   7.4167848  31.1378980   1.0707390
   7.4478662  29.8044252   0.3552884  48.4131956  20.0087523  16.3558602
  47.7614927  19.5396090  15.8348787  49.1311598  19.3843365  16.4600873
  42.5725555  46.5767384  23.8907623  42.4803257  45.8911324  23.2291961
  42.2412872  46.1788321  24.6958494  43.3572960  51.4411306  17.5052309
  42.6786327  51.7647266  16.9128346  44.1484213  51.9118929  17.2430611
  86.4951897  39.5776296  21.6624880  86.8052769  40.3419447  22.1481919
  85.7422543  39.2645693  22.1638012  71.9964886  15.1191628  11.3620722
  71.6463470  15.7423186  10.7254314  71.3571024  15.1197493  12.0744061
  20.0894189   1.6684578  32.2689486  19.1561067   1.7643982  32.0793271
  20.2937388   2.4050754  32.8450394  31.7978168   2.5329110  67.1329927
  31.6808248   2.7884105  68.0480146  31.5663290   3.3163282  66.6340923
  63.6314297   1.7633826  25.7734609  62.8694057   2.2839145  26.0276198
  63.6281729   1.7854199  24.8165202  59.5272064  34.9408698   2.0090050
  60.0188446  34.1792130   2.3162581  60.1813412  35.4894972   1.5761660
  41.1831951  59.5943594  72.3401642  40.6743574  58.7860155  72.2777081
  41.3508558  59.8426723  71.4310646  45.1081800  71.9037533  14.3268800
  44.9807501  72.6306915  13.7173307  45.1953077  72.3219252  15.1834857
  37.9568934  73.4678125  31.4369321  38.9130068  73.4944773  31.4739084
  37.6936221  74.3864441  31.3818407  77.6704550  25.5463791   3.4324363
  78.4949207  25.9193468   3.7444982  77.0691872  25.6429076   4.1709438
  55.6866074  49.3977976  45.5833626  55.7715797  48.6039448  46.1113882
  55.9755468  49.1360521  44.7091579  81.3370895  26.7708993   7.5009543
  81.6205883  27.3895645   6.8278170  80.3973103  26.6679168   7.3510981
   7.2921681  69.3453932  54.4419527   6.7926049  68.7751007  53.8576317
   7.3741305  70.1687288  53.9606667  58.2908297  81.1302280  69.1614866
  57.7290106  80.7703590  69.8478413  58.5314178  82.0000553  69.4804525
  27.9226780  82.5604916  20.4617620  28.7395692  82.7321339  20.9302235
  28.1839609  82.4864101  19.5438957  52.4368763   1.8943128  45.8182573
  52.7061129   2.5134370  46.4968061  51.6542721   1.4738324  46.1745644
  36.0516882  48.4080791  20.9502101  35.9515309  48.3325577  20.0012636
  36.9458222  48.7273264  21.0720253  69.7974968  68.8567305  10.1064324
  69.2347670  68.0918741   9.9857742  69.7052765  69.3526554   9.2929298
  52.1927786  76.8300867  38.0560493  51.6822910  77.5825834  37.7570724
  52.6512861  76.5253592  37.2730160  21.3299966  62.1329689  11.5238357
  20.6604624  61.6301489  11.9876504  21.9890618  61.4840221  11.2774003
   9.2751944  12.2273421  30.1037979   9.0761113  12.3449790  31.0326457
  10.0546753  12.7629352  29.9562120   8.3326805  56.3648367  44.9521112
   8.1232482  56.0628271  44.0682793   8.5798353  57.2826719  44.8393154
  61.8505955  76.1525822  14.1545928  61.1855936  75.8114100  13.5565889
  62.6635695  75.7327604  13.8734305  79.5735598   4.8934093  22.1112800
  79.8882008   4.3207973  21.4117455  80.3504181   5.3764707  22.3930192
  72.8867674  11.3409793   3.8233352  72.3444033  12.1144450   3.9776874
  73.1215763  11.3941002   2.8969038  44.1761780  73.7353945   4.3505439
  43.2717943  73.5758257   4.0806139  44.6445370  72.9385519   4.1017300
  49.3859148  65.1817083  26.5251207  49.0464830  64.2927885  26.4210105
  49.8952055  65.3382778  25.7299232  69.6495914  21.0300255  15.5312967
  69.6144724  20.6868005  16.4241540  68.7603569  21.3392353  15.3584135
  34.3998837   4.3789503  11.5864146  35.1435947   3.8020396  11.4123464
  34.7722507   5.2606392  11.5722716  56.4093447   6.2194997  26.1313391
  56.3962269   5.5368853  25.4604459  57.0641422   6.8458831  25.8229351
  46.0544729  59.5041561  38.9023781  46.8254566  59.2952633  38.3749485
  46.0841131  58.8800812  39.6275544  42.3537350  68.4199715   7.8585088
  41.9608498  69.1152096   7.3307645  42.7470493  68.8768530   8.6020100
  51.2658882   6.6090310  35.5631781  51.5259075   5.8114934  35.1021409
  51.9155455   7.2607005  35.2995443  62.8713751  58.2249308  46.5019846
  62.1007395  58.7684011  46.6662884  63.5918951  58.8496685  46.4196444
  42.5496626  62.4277782   0.7927192  42.8842354  61.5966558   0.4557791
  41.8210030  62.1796370   1.3616806  30.0895047  76.9199991   8.4528565
  29.8803139  76.9236946   9.3869108  29.8735380  77.8038502   8.1555432
  87.4278164  15.9137261  29.2911172  87.4796963  16.3760495  30.1276565
  86.5115643  15.9980094  29.0273046  39.2249918  81.9292831  21.0444546
  38.4854579  81.4798546  20.6353855  38.8229799  82.6119328  21.5816712
  61.5575171   8.5773635  22.6577520  61.4849615   8.0897844  23.4782600
  62.1742916   8.0691832  22.1308994  39.6625662  81.2559128  32.6676440
  39.3200469  82.0379353  32.2347999  38.8838816  80.7488918  32.8974652
  62.5358486  65.8134556   2.3851000  62.0640898  65.4784679   1.6225670
  62.9208994  66.6370678   2.0857134  60.3176594  61.0496807  30.3086400
  60.4423857  61.1451435  29.3644142  60.7339001  61.8252134  30.6848359
  86.0727978  83.7664318  16.3793910  86.1088562  84.1840649  15.5188584
  86.5765476  84.3477726  16.9490516  67.0446157  66.7063284  42.2398138
  66.8536234  67.2389698  41.4677715  66.4738178  67.0599937  42.9219723
  55.6576300  59.2817497  21.3025665  54.9360323  58.8340187  21.7442226
  55.2673149  60.0864887  20.9615612  23.8804531  43.6470222  71.0980368
  24.5157766  44.3456268  71.2547159  24.0703630  42.9948854  71.7724895
  10.9737730  63.2510805   9.2512292  10.4647994  62.7580118   8.6077547
  10.3256559  63.5570669   9.8856968  50.3098774  60.6901503  46.7707109
  49.6789646  60.0673485  47.1316767  49.8412800  61.5246820  46.7564297
  67.3067951  84.4080925  27.5778222  67.3396730  83.9080524  26.7622805
  67.6204729  83.7981892  28.2455444  23.6435771  43.9407921  50.3419113
  23.9757013  44.2332888  49.4931650  24.1561389  43.1577349  50.5427408
  16.4320028   6.1694688  57.4732494  16.3146603   5.3709054  56.9586992
  16.2523329   5.9021610  58.3746338  17.5476253  41.4061069  61.9386578
  16.6374779  41.5558147  61.6828251  17.9598498  42.2674417  61.8723059
  44.0060949  64.6930361  27.0164275  43.1572676  65.0557327  26.7630982
  44.5264387  65.4555225  27.2695875  33.6447740  72.8495502  37.3469329
  32.6983261  72.7776909  37.4706388  33.9377689  71.9483662  37.2118115
  53.9405155  72.5188208  50.0990200  54.2572069  73.4007692  49.9038029
  53.0085850  72.6345301  50.2843332  62.3233938  69.6858740  19.1343284
  62.5721693  69.4869661  20.0369787  62.2588539  70.6405497  19.1085017
  46.3750648  79.9311066   8.7745041  47.1927452  79.7217274   9.2259324
  46.5914106  80.6834888   8.2237399  32.8545737  21.0619760  58.5400820
  33.5095620  21.3263321  57.8940630  33.3405018  20.5293226  59.1696739
  38.2858372  56.6959286   8.6072391  38.0632114  56.0368156   7.9497910
  37.6203442  57.3755217   8.4999865  25.4905725  64.4141388  50.0738192
  25.5599284  63.4772158  49.8905230  25.5189610  64.4741201  51.0287189
  82.7623940  85.7778263  44.8521328  83.5215378  85.3452396  44.4612265
  82.0200634  85.2243805  44.6094656  59.9182367  59.0078115  21.0948706
  59.6726418  59.1851854  20.1868773  60.7398891  59.4831705  21.2179804
  63.1294012  67.4070644  37.0557165  63.5272551  66.6227245  36.6778874
  62.9241943  67.1607971  37.9576445  72.8215551   7.1505868  24.9012518
  73.3700895   7.6552415  25.5018044  72.6648188   6.3238025  25.3574252
  55.9270239  64.7096968  51.0065985  55.2782154  65.3805494  51.2192869
  56.7408895  65.0323963  51.3935280  65.7875538  73.7627172  43.1384373
  66.4038038  74.1365719  43.7682819  65.9809399  72.8252602  43.1416798
   1.7864098  64.7403383  20.3677893   2.4312262  64.0747070  20.6073284
   1.1687182  64.7495127  21.0989547  40.3343153  75.6787968  14.6945500
  40.7542849  75.7446861  13.8369298  40.7094765  76.3992548  15.2009368
  68.9109802  80.4965210  21.9934368  68.1887960  80.0247002  22.4082541
  68.4914446  81.0338116  21.3214779  66.2731934  72.2383547   6.8347383
  67.1513891  72.0973635   6.4810091  65.7063198  71.6872120   6.2951767
  57.8980589  81.4304733  39.0847611  57.0567226  81.8368816  38.8768864
  57.8304243  80.5443954  38.7290430  59.2529392  69.9598932   7.7374017
  58.7083769  69.3232679   7.2743773  58.6643028  70.3563833   8.3796889
  27.4944234  49.3763256  69.5387268  28.2310081  49.4453192  68.9313459
  27.2518992  50.2833414  69.7250986  52.0658541  63.8608408  18.1841111
  52.6354933  64.0546608  17.4396801  51.4487982  63.2096291  17.8503585
  20.8067298  23.0339551  22.5325227  21.5612221  22.4845505  22.7449560
  20.4833555  23.3354259  23.3815074  14.6583498  14.8695648  72.7390480
  14.8432446  14.5799351  73.6324453  15.5054760  14.8321092  72.2949696
  11.8192315  20.0356245  32.1803761  12.3552167  19.4921219  32.7579188
  12.2959185  20.8634949  32.1201062  37.8718209  16.0105431  65.4274130
  37.4306536  16.1391759  66.2670898  38.4611845  15.2713394  65.5772734
  51.7465544   8.1019419  51.7192316  50.9844112   8.0597931  51.1416578
  52.4448490   7.6712465  51.2261629  29.0311408  75.7826138  13.7927675
  29.8107839  75.3581047  13.4347463  28.3261371  75.1521444  13.6454284
  71.5183878   0.2689417  19.1375351  71.1126900  -0.2449018  18.4392476
  70.9543991   1.0369932  19.2283463  64.6385241  41.0889244  26.8054724
  63.9355803  40.5417967  27.1558332  64.9233150  40.6343794  26.0126829
  55.3473854  25.3686976  72.8874874  55.8570671  25.1956725  72.0959568
  54.7005939  26.0208631  72.6180887  80.1932621  58.2527828  26.6564488
  80.4148865  57.6411581  25.9542871  81.0350513  58.6144543  26.9336104
  18.4959650  84.8412991  60.6766367  18.7510347  84.1468620  61.2840366
  19.0178347  84.6762657  59.8913622  63.3114624  53.4856176  21.3898420
  62.6227093  53.7476397  20.7789469  62.9610634  53.7033510  22.2535777
  14.5617783  69.3747425   4.6123514  13.6222041  69.5309782   4.5173621
  14.7969985  68.8547182   3.8439268   2.0855242  10.8824992  25.0448155
   2.1158561  11.4371789  25.8243299   2.9041058  10.3870702  25.0713873
  26.7298532  86.4045811   3.7411690  27.4126816  86.7908478   4.2896023
  27.1741414  85.7043266   3.2631752  11.3888824  73.8252592  62.3382044
  11.3206387  72.8799582  62.4723053  10.5284810  74.0829515  62.0072412
  56.1296511  19.2772496  32.6466346  56.0316658  19.3112528  33.5981989
  55.9560966  20.1725435  32.3558402  34.5207429  33.6066747  45.3196192
  35.0909448  33.7711573  44.5685863  35.0029850  33.9582372  46.0680008
  11.6134691  21.7940569  55.4566717  10.9023798  22.4335003  55.4978609
  12.3952508  22.2891283  55.7015276  12.3397982  27.6936960  63.1535339
  12.0740831  27.4876475  64.0497351  12.4463725  26.8403888  62.7331305
  48.8364506  54.3466663  14.2018580  49.4928885  54.3327475  13.5053492
  48.0218506  54.0922308  13.7683594  43.5518360  72.3744631  38.7162757
  42.6904631  71.9570160  38.7141275  43.4363937  73.1645823  38.1884360
  50.6946421  71.4740801   3.7039030  51.1401844  72.2923517   3.4844565
  51.1948538  71.1185408   4.4384855  23.0470920  60.0993347   4.6432412
  22.7482224  59.1900826   4.6301973  22.7878356  60.4243231   5.5054468
  53.3807278  84.5980835  44.7992325  52.7128077  83.9154911  44.8639727
  53.2325935  84.9976158  43.9421129   9.3196458  19.7892201  37.8595805
   8.9304012  20.4049993  38.4804964   9.6267569  19.0633488  38.4027433
  45.1832724  67.7444839  37.6281738  45.0192308  66.8425751  37.9036331
  45.6718826  68.1316519  38.3545303  91.0642052   2.2142459   8.7514335
  91.7508888   2.5189230   9.3446243  91.5289497   1.7007586   8.0906951
  60.6847000   1.9232702  54.5942354  60.7804871   2.5762430  53.9009237
  60.6111908   1.0896290  54.1296196  18.3967304   1.6288541  16.8299568
  18.3843362   1.6398780  17.7870131  19.3015289   1.4125356  16.6046178
  73.3857298  25.3796506  65.5126286  72.8527498  26.0189176  65.0398731
  72.8504753  25.1323962  66.2666798  56.0637331  73.4844017  38.6871099
  55.9283924  73.2255840  37.7755570  56.6126442  74.2668343  38.6349607
  63.3452845  68.4489918  21.2152195  63.7720728  67.9707193  21.9260907
  63.1494617  69.3083858  21.5884757  40.7285929  76.0781813  20.4533696
  40.8139849  75.9786749  19.5051932  41.6194201  76.2525749  20.7570863
  70.9097910  16.2208629  38.3039427  69.9859905  16.4681721  38.2630730
  71.2986279  16.6174817  37.5243735  58.0773306  69.7148800  43.3747149
  58.9162731  69.3296146  43.1217861  57.4936533  68.9647055  43.4877968
  44.9558544  70.8748055   0.6424312  45.7549238  71.3585472   0.8514901
  45.2007437  70.3146601  -0.0941112  65.4055023  69.6822643   5.3419578
  66.2459850  69.3731737   5.6800181  65.4793072  69.5861912   4.3924558
  49.5990658  85.7468700  12.3512077  48.9954138  85.7822609  11.6091943
  49.7030115  84.8124790  12.5310457  66.8547010  19.0989482  26.8302345
  67.2973967  19.7790062  26.3225198  67.1934128  18.2767904  26.4758873
   1.3504483  42.2893047  36.5092182   2.1905105  42.2320414  36.9644618
   1.5748249  42.2122288  35.5818844  68.3448935  76.7680645  36.1107063
  68.3449793  77.4031496  35.3945374  69.2086029  76.3577747  36.0670972
   3.5232252   4.2669043  25.6633759   4.2383310   4.4639459  26.2683797
   3.3065373   5.1102763  25.2658796  78.6909199  25.4269052  55.9633636
  77.8517723  25.1076746  55.6314611  78.8417912  24.9193931  56.7608023
  44.8443508  46.5852594  69.3098402  45.2527428  47.3007298  69.7972345
  45.5598021  45.9726810  69.1392136  91.0967541  84.2840099  22.2584629
  91.6166878  84.8910809  21.7317963  91.3633251  84.4607544  23.1606483
  70.0126362  69.3998432  20.3139567  70.8233309  68.9291048  20.1205254
  69.9656010  70.0813627  19.6434736  76.7931652  22.5818825  63.8940096
  76.3544416  21.7617059  64.1199827  77.7251005  22.3634124  63.8958549
  84.6753120  14.5773053   8.7736458  84.9415016  14.8103893   9.6630543
  83.8373661  14.1280770   8.8843930  54.2667055  64.0770149  31.5058613
  53.8438034  63.3425045  31.0610247  55.1911974  63.9995956  31.2701750
  19.2583752  11.4791977  20.8683681  20.0418496  12.0251751  20.9340096
  19.5073032  10.6524074  21.2815070  17.7566111  66.7776728  25.6270003
  18.3368731  67.1839285  24.9831939  17.6372731  67.4487734  26.2990212
  57.3419571   9.4440210  21.5287542  58.1578493   9.9345273  21.6285419
  56.8944311   9.5502502  22.3681998  18.4492552  29.0653539  33.3835936
  17.5494874  28.8463402  33.6258364  18.3875167  29.9392748  32.9979968
   8.3210373  76.4217281  40.9681273   7.8647804  75.8122587  41.5483093
   8.5238451  75.9042263  40.1888371   7.7703851  82.3610783  44.5974350
   7.4021035  83.2438469  44.6338558   8.2382590  82.3309994  43.7629175
  73.9959478  36.3391638   1.9287513  74.3140459  35.5055976   1.5820339
  74.4756937  37.0032096   1.4336577  29.8061061  83.7682247  50.9686327
  29.2008448  84.4455910  50.6668663  30.5584955  83.8404179  50.3813267
  21.9331288   9.8609877  27.9398465  21.8273211   9.7543168  28.8851810
  22.7980590  10.2584243  27.8389835  45.1723385   9.8652214  19.1320670
  45.6779718   9.1535550  18.7395132  44.2608166   9.6467304  18.9381003
  30.1414847  54.5438337  46.1146116  30.8063650  54.2784739  45.4791975
  30.6418014  54.8623371  46.8659258  10.2549779  11.7461145  19.5423818
  10.7064629  12.1877813  18.8231301  10.3490567  12.3416150  20.2858615
  50.4030800  63.2088661  12.1919096  50.8637333  63.9267302  12.6263106
  50.9632921  62.9785204  11.4507377  63.2470369  80.3572369  33.8778186
  62.4236679  80.7953739  33.6625719  63.4008837  80.5747604  34.7971916
  43.2542467   2.4643809  29.9467993  43.3996773   1.6614065  30.4471135
  42.4184275   2.8002504  30.2705693  64.8288012  78.6911821  44.4435692
  64.5332670  78.7194252  45.3535652  64.1224909  78.2453060  43.9760828
  44.4234228  70.1266766   5.7156563  44.3387032  69.2049789   5.4716647
  44.8634720  70.5326653   4.9688247   5.6617862  14.7696650  43.4019613
   6.1691988  14.8484194  44.2097759   6.1838818  15.2305532  42.7452803
  25.6858182  11.1564553  12.7629912  24.7547007  10.9508765  12.8466082
  25.7252908  12.1117175  12.8093278  31.8928885  41.9313145  20.0154090
  32.8442144  41.9921064  20.1020932  31.7244291  40.9999371  19.8725903
  29.9501467   0.3337877  60.5312109  29.1975212   0.8903831  60.3312445
  30.6638741   0.6991603  60.0084066   5.0711673  85.0544071  46.9408035
   5.0575244  84.1430664  46.6484022   4.3452153  85.1177025  47.5614643
  82.2708130  75.8603048  20.4813528  81.3871479  76.0038805  20.8201265
  82.5105000  74.9896717  20.7988143  64.3813086   8.9345169   1.1768513
  64.9995136   8.3256257   0.7727411  64.5606756   8.8705754   2.1149182
   0.1630425  69.6939039  25.7492185   0.6136192  70.2732229  26.3637114
  -0.1819795  68.9874125  26.2951684  63.4775591  18.8268626  31.5084600
  63.3536577  19.3115437  30.6923938  64.2704964  18.3109224  31.3625765
  16.1988044  22.1231174  43.5411453  15.6426692  22.4563360  44.2453575
  15.5849206  21.7617369  42.9017830  89.4331741  14.1410697   2.1063492
  88.8406086  14.2559803   1.3634589  89.7276688  13.2327521   2.0395501
  27.1124244  83.5761356  14.4869864  26.5498948  83.0595970  15.0640309
  26.5247536  84.2220497  14.0949786  26.9879842  31.7527747  38.1912231
  27.4949837  32.0705724  38.9383435  27.5854373  31.1648655  37.7290058
  52.3514271  43.2667255  71.2105703  52.8664494  42.6194429  70.7288933
  52.8143454  44.0928841  71.0712910  42.7319002  21.0686684  23.0378008
  43.1738615  21.2033606  22.1994901  42.5315237  21.9519210  23.3475542
  72.6720428  11.4880157  31.9874883  72.2777700  11.4433253  32.8585696
  73.0137587  10.6072009  31.8337750  45.3512287  78.8451910  20.6115937
  45.8575583  79.4140482  21.1914754  45.8005810  78.0009842  20.6520391
  47.7887487  59.3584538  11.8286693  48.3676338  60.0158358  12.2146428
  47.2628403  59.0416479  12.5630295   9.5456362  80.9559250  42.9115629
  10.0042164  81.0027218  42.0726681   9.9874604  80.2524662  43.3871317
  42.6324463  76.9322538  45.7471752  41.8916941  77.2725725  46.2488747
  43.4017658  77.1704674  46.2645102   9.6812320  27.3125196  56.5702200
  10.3446579  28.0006766  56.5198565   9.0359056  27.6470780  57.1930027
  67.3398972  59.3961954   8.3479637  68.1064510  59.1147804   8.8473964
  67.6583433  59.4838858   7.4495590  69.0218735  20.9194851  25.9206843
  69.5331860  20.2011871  26.2933016  69.3907690  21.0479307  25.0468159
   9.3931448   6.9248110  48.7920237   8.6946249   6.4540720  49.2466736
   9.4947958   7.7382648  49.2861843  70.2944231   9.8721808  13.7814331
  71.0331821  10.0087726  13.1882966  70.6294250  10.1217270  14.6426713
  91.3100287  27.6223159  50.0363445  90.8017453  28.2601213  50.5374289
  91.6740554  27.0335627  50.6974697  87.1516228   2.5316930   0.8778574
  87.2199631   1.9269621   1.6166818  88.0413914   2.8630713   0.7564815
  25.0862098  83.2152367  34.8806906  25.5062294  84.0533447  34.6873116
  24.2318034  83.4529781  35.2408290  78.3242702  85.5019760  41.3075352
  77.6802111  85.2609253  41.9733477  78.6005068  86.3856983  41.5503597
  16.6408455  12.6518238  10.9054685  17.1723986  12.8328109  10.1302731
  17.2785223  12.4808073  11.5985429  20.4152751  37.8720188  57.2553062
  19.6546340  38.2769346  56.8385315  20.3606105  36.9488645  57.0082664
  72.7799940  10.0590205  15.9534597  73.5998154  10.0422525  15.4596555
  72.3137760   9.2724085  15.6704187  24.0190935  55.6139231  47.4887562
  24.0209746  56.5384102  47.7368546  23.1816530  55.2810478  47.8114319
   5.9870791  38.4738588   8.0482000   6.5787935  38.3357787   7.3085791
   5.8328021  37.5965357   8.3985341  82.5424576  23.0363798  17.6354873
  81.9916153  22.2537637  17.6532698  82.0606041  23.6560249  17.0876849
   0.5415718   9.1077715  26.7796421   1.1205185   8.4643036  27.1883011
   1.1286599   9.6744913  26.2792540  13.3751380  23.3935714  17.5781858
  13.1403077  24.2013788  18.0348408  13.3337855  22.7161622  18.2531941
   4.5815665  15.6996512   3.5996455   5.1999682  16.2834287   3.1603098
   5.1001704  14.9274170   3.8253352  32.7997255  18.0330598   6.5284902
  32.1442366  17.7324438   7.1579307  33.6055803  18.1085157   7.0395029
   9.9461806   2.4026355  68.9171362  10.4845369   3.1892473  68.8296938
   9.9913526   2.1837340  69.8478746  78.7463379  78.1224680  50.7175255
  79.2421103  78.7358618  50.1751328  79.1527367  78.1845903  51.5819359
  59.5846987  29.8355722  22.1890235  59.9019957  28.9339781  22.1372581
  58.8458776  29.8647475  21.5811372  39.6765733   5.7142198  31.2346339
  40.0932503   5.6919789  32.0960951  40.2740002   6.2297583  30.6928468
  76.6361046  12.6062119  42.0152998  77.0812654  11.7699730  41.8783092
  77.3223734  13.1939316  42.3312950  15.8359694   1.6820885  47.2073841
  16.1841333   0.8008863  47.0713806  15.0029767   1.6859157  46.7358541
  75.9602356  43.8985491  74.5064545  75.6201839  43.1748152  75.0325775
  75.8880472  43.5921097  73.6025095   2.3141071  80.2349854   6.3236982
   1.3781238  80.0408459   6.2739581   2.3949786  80.8362961   7.0640552
  37.4397159  10.3237462  35.2839327  38.1718683  10.8210552  34.9194193
  37.3957396   9.5332116  34.7460175  77.4667262  85.8770307  28.9324450
  77.6840734  85.5547684  28.0577230  77.2601103  86.8025491  28.8022256
  51.2643909  21.3686824   7.4283117  51.9311428  21.1805153   8.0888164
  51.7597628  21.5112472   6.6217679   6.5898812  85.2199459  14.0420473
   7.1715635  84.9037266  14.7333407   5.7436967  84.8179626  14.2385447
  41.3481474  38.7392545  13.4450865  42.0096445  38.2735038  13.9566827
  40.6658745  38.9592171  14.0793967   2.1873206  39.1100478  40.3324652
   2.9933035  39.6105361  40.2054501   2.1784194  38.9034939  41.2670708
  12.2828293  82.6290321  22.4173951  11.4926207  82.8333282  21.9173288
  12.2198868  83.1774712  23.1993747  11.5586603  24.3130088  74.5379353
  11.7071688  24.4718409  73.6057568  11.2099862  23.4224129  74.5765781
   8.5652435  22.6196265  38.3443856   7.6330411  22.4038935  38.3181310
   8.7060434  22.9667187  39.2252588  10.5992508  42.7237797  25.7337379
   9.9037927  43.1818485  25.2617836  11.3527393  43.3116341  25.6797504
  74.4580173  11.5236235  11.3306427  74.8598433  12.3631632  11.5541196
  74.9674797  11.2050438  10.5855322   3.2257211  31.8730545   1.4122653
   2.3930374  31.5390301   1.0786508   3.5077447  31.2183475   2.0510580
   4.2391104  55.5561447  25.1144457   5.1729321  55.3463078  25.1011467
   3.8070139  54.7421932  24.8555851  46.2273979  16.1469483  73.1404209
  46.7840195  16.7623973  72.6633120  45.4130793  16.1214066  72.6379633
  28.9710259  38.7626696  28.1337738  29.0120554  38.0058932  28.7184405
  28.7476206  38.3934212  27.2793865  44.5666599  57.1092367  74.0254354
  44.4753122  57.4309540  73.1285620  44.0547276  57.7222204  74.5530796
  70.5567455  30.2636027  38.6858082  69.6660185  29.9848843  38.4733248
  70.8049965  29.7217846  39.4348335  84.3521214  76.7818260   2.4037144
  83.6246681  77.0725489   1.8536900  85.0860023  77.3389626   2.1443982
   1.5298836  80.2576828  30.0999498   1.0562815  80.5462551  29.3197823
   1.6524585  81.0554695  30.6144881  26.0722852  29.2346668  29.5548129
  26.3367558  30.1541662  29.5832372  26.2820983  28.8980603  30.4259658
  29.1917634  57.2472620  23.1981516  29.7304153  57.3673630  22.4160624
  29.5023465  57.9165077  23.8079715  62.1599913  10.4882479  11.1521220
  62.8258610  10.2932465  10.4927063  62.6569748  10.6474757  11.9545496
  25.1052761  27.3483706  21.7579365  24.5462990  28.1005955  21.9527006
  25.6513047  27.6385307  21.0272598  31.3848948  16.0159397  34.7016239
  31.3281345  15.4494727  35.4711199  30.4795766  16.1080790  34.4047379
  30.9582567  24.4811940  24.4600749  30.6263995  23.7159753  23.9904547
  31.0481930  25.1552248  23.7864089  30.1902223  61.9764233  55.5463505
  30.8141756  62.2997665  56.1962461  30.1936269  62.6425028  54.8589182
   3.2332262  51.5220737   2.7681834   2.2880754  51.5358353   2.9189545
   3.5807630  50.9791613   3.4757823  51.9516230  85.7534885  72.6129150
  51.6670084  85.3757954  71.7807007  51.6676474  85.1207829  73.2726669
  46.8755198  37.3712516  10.0707912  46.4959240  37.9788303   9.4359785
  47.5408792  37.8863525  10.5270815  10.0241029  80.0282669  63.2258034
  10.5689049  80.7559109  63.5257435   9.1314924  80.2870560  63.4549475
  13.3990872  29.8437190  11.4605939  13.2916057  30.3598857  10.6616879
  14.3281519  29.9260402  11.6757572   7.7416080  17.2223067  42.2160292
   8.6150753  17.1085119  42.5906467   7.1918833  17.4675131  42.9602766
  44.6106291  40.7894468  15.8295321  43.7394810  41.1859417  15.8406460
  45.1038742  41.3126612  15.1977205  41.0961246  20.7536077  71.6443062
  40.2237272  20.4699826  71.9176531  41.6940212  20.1573539  72.0951176
  39.4543481  80.7001305  54.8199844  40.1018190  81.3429832  54.5305872
  39.0093231  81.1224842  55.5547047  21.0323262  44.8767090   6.0737252
  21.9556212  44.7696209   6.3024008  20.9909296  44.6678591   5.1405042
  31.6370082  34.3256927  12.6614225  32.2833562  33.7125731  12.3113489
  32.0714331  34.7282267  13.4134018  43.8670397  20.0968838  27.1977735
  44.1732454  20.3181839  26.3182902  43.2315636  20.7807469  27.4092770
  41.9945526  69.2972279  74.4272757  42.1202660  69.9631691  75.1032543
  41.9301224  69.7934294  73.6112690  41.3304567  37.3440504  20.8471227
  41.1286831  37.6093245  19.9498212  41.1176014  38.1119227  21.3774967
  28.4818649  72.2210455  41.7742968  28.6096883  73.0718422  41.3547277
  27.7314401  72.3503399  42.3542738  10.7893133  53.0259800   9.0557289
  10.5970120  52.6329279   9.9070585  10.6254041  53.9606905   9.1809571
  26.6280365  45.8929157  22.4809551  27.0500326  46.6671324  22.1084714
  27.0437264  45.7815742  23.3359623  44.2942238  24.9337196  29.3457031
  44.4998837  24.6904492  28.4430671  45.1177502  24.8157573  29.8191190
  54.2261839  53.9780378  17.2193325  54.1587973  53.7841129  18.1542575
  53.4505510  54.5051384  17.0275414  40.1201296  47.5044918   2.3915023
  40.5118799  47.5918674   3.2604840  40.0620604  48.4019041   2.0636195
  31.2885356   0.9081550  48.1617880  31.2304163   0.9937537  47.2101974
  30.4186678   1.1524636  48.4778166  33.1450558  18.5189533  24.2284060
  33.9520979  19.0034342  24.4021773  32.4564934  19.1833508  24.2545891
  31.9526482  19.2027199  56.1463642  32.1780419  19.6039474  56.9856787
  32.2882366  18.3085752  56.2105322  52.2910690  38.5029984   0.7730488
  51.6772223  39.2066765   0.5626690  52.3124361  37.9602051  -0.0150831
  41.2308693   5.3038901  17.4690235  41.9869614   4.8436111  17.1047425
  41.5208960   5.5939156  18.3338940  81.1264801  65.7219982  69.7347927
  81.4589691  66.5834427  69.4826126  80.5883980  65.4463100  68.9927006
  28.0712414  48.1435537  21.6811705  28.2183456  48.2475805  22.6212621
  28.9392710  47.9603243  21.3217473  45.4361391  13.3336985  39.8012710
  46.0849237  13.7505174  40.3683424  45.8680582  13.2703114  38.9494157
  57.0582628  61.0078144  64.7335720  57.8081608  60.4698610  64.4796228
  56.6402769  60.5172348  65.4412794  31.0519290  16.7437577   8.6828685
  31.4689898  16.4725792   9.5006418  30.6393433  17.5820422   8.8909179
  12.4290133  70.9929991  12.4242568  12.6912749  71.6116714  13.1059444
  11.6056836  70.6218958  12.7414966  20.1238775  59.4445372   7.9888022
  19.5606923  59.4532871   8.7627381  20.9700656  59.1349411   8.3118373
  73.7851429  22.3686266  72.2058630  74.5766640  21.8546772  72.3658180
  73.3482790  22.4067092  73.0567074   2.4844363  20.9521866   9.3200731
   2.0484766  20.5287957   8.5805386   3.0910432  20.2900791   9.6515453
  87.6238632  43.6963415  11.9921434  87.9646206  42.8423214  11.7261195
  88.0176258  43.8546419  12.8501189  45.8193254  27.9639983  21.3922930
  44.9542713  27.7320957  21.0544610  46.4218664  27.7365875  20.6841540
  31.5160418  12.8646171  33.3031273  32.1251297  13.5518265  33.5732841
  30.8588433  13.3202839  32.7771139  41.2209892  34.6519709  20.5332851
  41.2896967  35.5936313  20.3758478  41.4239597  34.5491457  21.4630485
  72.9502583  31.8898892  39.9970818  73.4237528  31.6354346  39.2050672
  72.2315454  31.2607241  40.0590086  32.6178956  23.1181955   5.8966273
  32.3543310  22.2342014   6.1522019  32.9516482  23.0202127   5.0048649
  78.6971140  55.1255226   3.6568579  79.5303202  54.7356272   3.3923286
  78.4253120  55.6457090   2.9007083  31.7580318  41.2646723   5.6914115
  31.2225294  40.7892370   6.3265741  31.2485433  41.2387133   4.8814863
  76.2978697  62.6025820  11.6423333  76.3639116  62.6414299  12.5964618
  76.4816284  63.4962893  11.3529420   0.3928819  28.9184690  66.0146332
  -0.1858649  28.2158661  65.7186079   0.0886255  29.1228342  66.8988848
  88.4271145  81.4570141  72.9639339  89.3669319  81.2763596  72.9824781
  88.3336449  82.1755886  72.3385239  20.0595903  32.6998234  13.7038207
  19.5546138  32.7008486  14.5169818  19.8165309  31.8808818  13.2719767
  82.7171898  66.4014053  14.8810995  81.8575859  66.2657022  14.4824886
  83.3088207  66.5239477  14.1386771  39.0736222  81.8403339  60.5548477
  38.7095213  82.7163029  60.6826973  38.3381748  81.3201618  60.2311707
  56.9100904  53.8244581   9.9763024  56.6695070  54.0560722   9.0792489
  57.6559067  54.3896151  10.1777673  48.0331659  34.3314242  15.2188158
  47.2010899  34.4436193  14.7591412  47.9769516  34.9283147  15.9650016
  50.9206390  41.4235687  35.3607416  51.3625908  42.0260000  35.9590650
  50.6797409  40.6761456  35.9080648  73.0199766  69.3441725  70.9466076
  73.8416004  69.7317743  70.6450653  72.3513603  69.7293091  70.3801680
  12.1336341  56.4541292  19.7481787  12.4494362  57.3313046  19.5312345
  11.9027901  56.5052748  20.6757164  79.5377588  75.3210545   2.1170402
  78.7608194  75.8108330   1.8473923  79.6339846  74.6394300   1.4519364
  36.7512846  20.7872200   2.3372316  36.8785834  21.3480234   3.1024286
  37.6156044  20.7396936   1.9286659  50.1894617  46.2509155   8.9938861
  49.7053671  46.8873262   9.5200616  49.8470449  45.4010963   9.2709976
  77.7331352  63.1066418   7.2270966  77.1345139  63.8437176   7.3479414
  77.4407482  62.6911402   6.4158618  52.9824162  45.4243279  30.5156589
  53.4924841  44.8026896  29.9963999  52.3056412  44.8903370  30.9316564
  64.6363354  26.3815379   4.9101180  64.2146444  26.1402750   5.7348603
  65.3776360  26.9280100   5.1710272  57.9203558  58.0508947  41.6590452
  58.4416294  57.6753807  40.9494734  57.0131493  57.8795815  41.4063406
  12.0079660  13.5824752  65.2227736  11.6882432  12.7136004  64.9797392
  12.8085709  13.4128618  65.7192564  53.0005646  15.7739770   4.3085825
  52.7191019  15.4077351   5.1469606  52.9394102  16.7216539   4.4285816
   8.9163238  18.3835113  53.5308647   8.9403236  18.8038552  54.3904972
   8.0611724  17.9547358  53.4977102  74.8048401  30.7719445  45.4555225
  74.0028715  31.1683607  45.1150322  75.4561806  30.9229636  44.7705555
  58.7484932  15.9864891  73.1417847  58.6408043  16.7860496  73.6568928
  57.9632425  15.9456444  72.5959444  27.6177979  21.2100697  36.7781949
  27.3625040  21.6265082  35.9550095  28.5746551  21.1997461  36.7547297
  53.8788557  69.6972656  66.7419100  54.2301989  70.2941322  66.0811949
  53.8212490  68.8526297  66.2952566  61.3423729  80.7639980  63.6314678
  60.8188391  80.1113796  64.0964794  61.7620897  80.2745056  62.9240274
  36.4186978  49.9592400   8.3526605  36.3375092  50.7986307   7.8998172
  37.3604274  49.7893190   8.3751249  65.8190250   1.3002621  68.8142538
  65.1785660   2.0090696  68.8745403  65.3777409   0.5450186  69.2029762
  46.3197899  48.5159874   5.6415123  46.4951706  49.4375801   5.8316255
  46.4122391  48.0753756   6.4862281  26.2364006  20.8802199   5.8253205
  27.1666384  20.8009791   5.6141090  26.0944843  20.2425766   6.5249658
  20.9468508   1.9182770  35.9554648  20.4727173   1.2441161  35.4687047
  21.3198781   1.4546537  36.7052221  44.6209288  59.6843433  17.6546109
  43.9177990  60.1310682  18.1260753  45.4227114  60.1040506  17.9664147
  74.8850298  17.1530139  13.8250840  74.1049671  17.7063715  13.8642192
  74.5809984  16.3384271  13.4247780  37.1555853  62.6316309   5.6296617
  37.3572040  63.5393906   5.4026085  36.3344669  62.6837969   6.1188185
  43.3255053  48.6853695  18.2528138  42.4971914  48.8425303  18.7060606
  43.6472273  49.5593929  18.0318940  48.7648201  36.2580490  34.2735600
  48.1830788  36.9393444  34.6106791  49.6429157  36.6296339  34.3578100
   1.7649131  33.9121461  63.2775450   1.9527170  34.8283386  63.4813881
   2.5761306  33.4490967  63.4866905  51.4422464   9.0885264  19.4679582
  51.5086317  10.0403655  19.3916273  51.9088697   8.7537122  18.7021935
  38.0887175  70.4566813  63.9991808  38.0036139  70.7519293  63.0926371
  37.6980948  71.1600065  64.5178127  76.1215925   6.6253299   3.2663509
  76.6096067   5.9178025   2.8450692  75.6955719   7.0859468   2.5434592
  30.4922891  47.7345610  20.6618619  31.2056208  47.4106073  21.2118125
  30.7697988  47.5353622  19.7676933  36.2205648  19.8191762  48.9450836
  35.4072237  20.2606988  48.7006187  35.9867239  19.2922437  49.7092104
  18.2380497  10.2399909  58.4884119  18.6146092   9.4222105  58.8134813
  18.2408535  10.8233023  59.2473412  55.9200335  27.4247527  38.4812546
  56.2855625  28.1430888  38.9976025  56.5476131  27.2976875  37.7697563
  42.4836636  23.5847807  33.0445218  43.3629942  23.4411216  32.6947093
  42.1943235  24.4012737  32.6372719  31.8134069  41.8463373   9.6738440
  32.2904873  42.4487829   9.1031510  32.4940610  41.4203310  10.1948619
  67.8184319  74.0428162  67.3699188  67.2245312  74.7628593  67.1576738
  68.6922312  74.4303703  67.3198318  57.1364164  44.5237398  21.7240977
  57.2508669  44.2773247  22.6419282  56.3008165  44.1301870  21.4728498
  76.0643053  21.6694713  58.9378166  76.6319036  21.4094996  59.6634054
  75.4419374  22.2828841  59.3284845  32.5998354   7.4906582  72.2095871
  33.1144500   6.6947520  72.0756531  33.2450151   8.1976664  72.1988869
  48.2230043  16.5441823  26.9544029  47.5987434  16.8089640  26.2788129
  47.9099989  15.6884360  27.2475863  30.6529880  22.3369718  74.7121191
  30.5246305  21.6178107  74.0936041  30.0651264  23.0263472  74.4032335
  37.8542185  51.0036278   5.7893682  37.5448251  50.1000738   5.7253605
  38.2638407  51.1771393   4.9418217  76.8510914  49.1221428  13.7786806
  77.6600552  49.2008734  14.2842650  77.1225023  48.7198973  12.9535937
   8.5784888  35.5962777  40.3835535   8.4213150  36.2269163  39.6808290
   8.2605654  34.7638750  40.0338936  35.3507757  19.6971822  14.7920656
  35.3039670  19.6807361  15.7479787  35.1892996  18.7911940  14.5287359
  90.3662109   1.0452297  62.1736622  91.1498260   1.5767279  62.3139811
  90.1627445   0.6858841  63.0372047  73.2633495  82.9861259  65.0696611
  73.6857700  82.2776318  65.5552864  72.4185467  82.6234150  64.8032379
  42.0176888  78.6457014  67.9939938  42.8481722  78.6638784  68.4695959
  41.8475628  79.5616150  67.7740145  39.0340543  60.4049301   5.8772236
  38.5958767  61.2528181   5.9501773  38.3328152  59.7627068   5.9869653
  36.1958551  44.3367434   1.7391819  35.4634190  44.8292303   2.1096252
  35.7864213  43.7145042   1.1380059  26.3765717  22.7844262  46.0119534
  26.1575532  22.8248835  46.9428778  27.3182178  22.6134419  45.9946537
  25.0229788  19.0489483  60.3541422  25.9166765  19.3658412  60.4849672
  24.9305916  18.3286095  60.9776878  34.1482663  57.0141363   0.5151611
  34.2073631  57.8646326   0.9503580  33.5268164  56.5160561   1.0461454
  88.0213165   3.2872742  61.4317751  88.9633751   3.2658628  61.2635756
  87.7766132   4.2042908  61.3075399  61.4893770  50.5691051  20.3620982
  61.2218285  51.1009502  21.1116242  61.5690041  49.6824312  20.7138109
  66.6751003  65.9341860  22.4509192  67.1733093  66.5328503  21.8944836
  67.3307419  65.5409336  23.0268717  52.6537371  67.9515362  55.6974888
  51.7275858  67.7687407  55.8557940  52.6798630  68.3024454  54.8073101
   2.2917444  17.6221991  49.4843864   2.3209155  16.8537235  48.9144516
   1.4036223  17.6220274  49.8414183  73.0246592   3.0560949  70.3858042
  72.1503639   3.0948961  69.9980783  73.6108875   3.3374304  69.6833658
  54.4919395  28.3421111  32.1575356  55.0800133  27.6239276  31.9238424
  54.7039795  28.5379958  33.0701685  42.1142244  22.7478600   3.7910792
  42.0534754  22.8216028   2.8386596  42.3386097  23.6304760   4.0858191
  14.0598571  18.5255027  33.2013273  14.2838740  17.7130461  33.6551595
  14.8634481  19.0448272  33.2292032  14.9105453  27.9460335  43.9583731
  14.1193199  28.1137991  43.4464645  15.4933417  28.6745262  43.7441826
  14.9643135  17.1990895   7.5475574  15.6237221  16.7817330   8.1018376
  14.7171652  17.9913449   8.0245072  74.3383121  73.3793449  59.4182873
  74.5660639  73.2679081  60.3412962  74.3712521  72.4944019  59.0549374
  55.1636887  79.3658304   6.6326207  54.2439842  79.4150972   6.8932790
  55.1576853  78.8432837   5.8306611  82.8551483  73.2523155  65.3733158
  83.6013222  73.0630255  65.9421968  82.9196739  72.6056862  64.6705103
  31.1321139  33.8000011  59.9570179  30.4965210  34.5024061  59.8196030
  30.9239268  33.4550881  60.8253050  27.7610445  81.2731075  13.2181215
  26.8467355  81.1074162  12.9882932  27.7563977  82.1499443  13.6019981
  43.6711168  71.9331598  59.1504574  44.3191004  72.6297760  59.0452242
  42.8328466  72.3920345  59.2049265  71.7193842  53.2168150   8.1862032
  71.4503813  53.8912249   8.8099319  72.5528097  52.8931379   8.5280532
   0.9753922  81.1943245  18.3341265   1.6437888  80.6891918  18.7970650
   1.3503107  81.3498116  17.4672401  62.2508907  52.4499798  34.2747545
  61.6485691  52.7198982  34.9679995  61.7041731  51.9617939  33.6591172
  46.2978125  81.5372849  58.9545584  46.8692064  82.2943878  59.0831137
  45.7389641  81.7815018  58.2168102  78.9199686  37.5688291  24.7841501
  79.4159889  37.5090003  23.9676857  78.0034161  37.5292969  24.5110178
  21.2293315  23.8773322  73.2353497  20.4146433  23.5193777  73.5880375
  21.0312366  24.0646052  72.3177910  43.9994097  37.2200251  18.9665484
  43.8789749  37.1888661  19.9156308  44.3428183  38.0973387  18.7973678
  62.5487757  13.0822575  63.0184746  62.3277903  12.1754074  62.8062963
  63.3703613  13.2434118  62.5545120  70.4075766  14.8327160  13.3967197
  70.2354479  14.9653709  14.3289256  69.9131680  14.0445936  13.1716478
  67.4135542   7.7152550  60.3438377  68.3678818   7.7263564  60.4170990
  67.1827984   8.6074924  60.0851965  90.5663109  51.1404276  27.7383733
  90.2753735  50.2726030  27.4582577  89.7755337  51.5605402  28.0766082
   0.4018399  27.4710846  54.8639822   0.2954569  28.1724834  55.5065966
  -0.2869566  26.8423128  55.0794792  18.5900760  63.7819576  18.1322932
  18.2707894  63.7151861  19.0321982  18.2300222  63.0117035  17.6926315
  25.0163746  12.5232053   6.9932473  25.1403737  13.4722638   7.0052665
  25.0743413  12.2624242   7.9124123  65.7669306  32.7944183  54.4447660
  64.9834585  33.2038379  54.0776491  66.4328909  33.4812856  54.4140339
  82.8119850  68.0502558  73.4728241  83.0408001  67.1527243  73.7143230
  83.0315971  68.5697651  74.2462015  42.4175835  50.7274818   2.5555345
  42.3290825  50.9025764   1.6186562  41.6710997  50.1664686   2.7659085
  53.5209322  61.5493298  58.6412621  53.3871269  62.1850681  57.9382944
  53.7118578  62.0823240  59.4130754  73.0296898  33.0705333  67.8339577
  72.6462412  32.4095988  67.2574472  73.9557314  33.0907130  67.5925636
  70.6873720  86.2374749   1.1739776  71.4007639  86.1148195   1.8002842
  70.9387719  85.7072624   0.4177339  41.3366127  54.9732256   2.7833852
  40.3886795  54.8577785   2.8491166  41.5299034  54.8433638   1.8549421
  43.1879711   8.2988340  16.5208662  43.0391502   8.3738732  17.4634445
  42.6579046   8.9980412  16.1382830  54.1870546  19.1094303  11.3460517
  54.6822596  18.3040500  11.1964977  53.7459850  18.9673591  12.1836090
  43.7185335   6.1532724  11.5596247  43.1462049   6.1542100  12.3268723
  43.9039946   7.0783252  11.3980293  62.4297047  39.8077154  14.3984628
  62.7766562  39.2120862  13.7343228  61.9237137  40.4511452  13.9022732
  21.9686484   0.6589156  64.7869444  21.5201187  -0.1851160  64.8385429
  22.2204947   0.7404687  63.8670778  59.0753555  20.7764935  23.9609051
  59.2684031  20.5176473  23.0598164  58.7263918  19.9837208  24.3683004
  16.5575290  79.7289944  37.7502084  17.0035481  79.0564632  37.2354269
  17.2130966  80.4169941  37.8647280  34.6148276  72.9664660  62.7396059
  33.9256787  72.6499414  63.3236599  34.1460586  73.2988787  61.9741058
   3.0569297  70.9659290  25.5655193   3.9081925  70.6534863  25.8720565
   3.1516743  71.9175434  25.5244398  63.4372187  77.3643923  66.8824673
  63.0250549  77.9982519  67.4694777  63.6064863  77.8566694  66.0791969
   4.1979632  77.0111084  37.0810199   4.0650371  77.4530554  37.9196191
   3.3152378  76.7895365  36.7844820  88.9182854  14.5677149  45.0887156
  88.1023407  14.2293084  44.7200203  88.7143040  14.7344184  46.0089493
   0.8710767  48.1879377   2.6590794   1.4878798  48.4000683   3.3596414
   0.0729603  47.9212427   3.1152761  12.8318858  56.3301373  25.6575108
  12.7162409  55.8797312  24.8208570  13.0126917  55.6292582  26.2838554
  23.8822651  39.3533802  22.1750164  23.9326167  38.4698582  22.5398254
  23.2313013  39.2872906  21.4763665  79.0316569  14.9840828  74.9053188
  78.6143147  14.5213743  74.1787116  79.6603929  15.5713459  74.4857407
  43.8990877   0.0061304  21.7714977  44.4029425  -0.5739897  22.3423004
  43.6545490   0.7416040  22.3332000  35.0139761  61.1476135   8.2389402
  35.0360775  60.5254316   7.5118697  34.1894794  61.6202593   8.1247371
  13.0416107  32.5663376   3.4621873  12.6901186  33.1271076   2.7706498
  13.8136077  33.0341315   3.7806559  51.5738440  43.0222082  23.6990738
  50.8637428  43.1454706  23.0691552  51.1301184  42.8698063  24.5334077
  29.1342115  39.2475080  18.0667639  28.3982277  39.0116763  18.6315155
  28.8653588  38.9651871  17.1925533   5.5415511  18.5591424  70.7203245
   4.7691298  18.6091232  71.2834406   5.6536865  19.4497561  70.3879642
   7.1720433  61.9499826  16.5958285   6.9992548  61.3608408  15.8614671
   7.8536516  62.5400829  16.2742329  62.4584341  50.8474922  17.6930416
  62.2467899  50.8273602  18.6263323  61.6613531  51.1715126  17.2736287
  30.6538391  30.1849079  28.8286996  30.3795052  29.3127227  29.1120100
  30.9112835  30.0696683  27.9139996  34.9073124   6.9531471  12.0700920
  35.7127833   7.4278957  11.8649995  34.2326379   7.6311123  12.1075988
  48.1965685  82.5104237  50.4615307  47.3921347  82.6525402  50.9604502
  48.3874464  83.3615398  50.0673342   3.3645162  13.7013960  65.9809017
   3.9535534  14.4515491  65.9000492   3.8724133  12.9611647  65.6487417
  12.0281971   4.0272802  72.7874327  11.9822621   3.1573877  73.1841803
  11.3471472   4.5303950  73.2338381  14.2295039  61.7775059   9.6250343
  13.9763618  61.8084764   8.7024343  13.5211968  62.2299910  10.0830638
  10.3083527  38.0300903  69.0356016  10.3210843  38.7122488  69.7069693
   9.3788505  37.8502870  68.8944387  23.8970089  27.5087047  55.4342794
  24.7846127  27.8632736  55.3825808  23.4438801  27.8865361  54.6805191
  18.6907697  70.3312063  15.2173519  19.2434633  69.6106672  14.9147284
  18.8972819  70.4168940  16.1480737  78.9456940  58.1640339  74.1571665
  79.1606379  57.5326538  73.4705830  79.0840864  59.0185308  73.7486172
  69.2394829  54.8247766  20.9755731  69.1007376  55.5075073  20.3191733
  70.1304340  54.9742270  21.2919617  85.6540012  76.6737223  41.0123348
  86.5886497  76.7549658  41.2022591  85.4480267  77.4475050  40.4878664
  86.8457222  73.9984274  54.5692682  86.9258785  73.6745453  53.6720991
  87.1311951  73.2655859  55.1148701  33.4796643  79.3574095  23.9083362
  32.5427270  79.2389536  24.0643883  33.7060046  80.1479721  24.3982458
  66.2670660  78.4120417  69.5351744  66.0549021  79.0980053  68.9021873
  65.7173681  78.6079502  70.2939129  20.2607369  44.9848366   3.1789994
  19.4456482  44.7382498   3.6160994  19.9954522  45.6305218   2.5240636
  41.1277199  44.6197701   4.2921239  41.5277863  43.9683199   3.7161055
  40.5496931  45.1234436   3.7190408  70.3511381  75.2926445  68.6550331
  70.3788519  76.0933208  68.1312180  69.7744131  75.5061483  69.3885422
   2.5265962   3.4291098  45.9614944   2.5194663   2.5019485  46.1993027
   1.9229011   3.4911630  45.2212667  19.8217857  50.2357864   5.0917548
  19.8898840  50.1288176   4.1429910  20.0877237  49.3881035   5.4480523
  71.9923258  43.1687737  34.4799066  72.9216528  43.1105232  34.7017002
  71.7060900  42.2583294  34.4064689  53.0237913  20.9547186  15.2111685
  53.1210804  20.1507735  14.7008359  53.7952185  20.9737134  15.7775414
   9.6591485  44.3803358   0.3123509   9.2942274  44.1504145   1.1668691
   9.2798787  45.2361345   0.1123556  77.5303221  29.1300035  65.8671236
  78.3226442  29.4694018  66.2833786  77.8374100  28.4046698  65.3232336
  64.3653917  56.1811304   7.4136418  64.7459888  57.0003462   7.7302867
  63.5004807  56.1452055   7.8221458  59.4226837  50.8605146  40.9191561
  60.2263260  51.0434914  40.4324150  58.9344978  51.6834641  40.8935070
  74.9608374  44.7730112  48.1232882  74.3571377  45.4862165  47.9156446
  75.8067560  45.2035761  48.2468605  26.8049598  22.5960207  59.4066906
  25.8583307  22.4745584  59.3333864  26.9067192  23.4845471  59.7478628
   4.2733636  76.8583250  42.3159695   4.0569717  77.7797651  42.4586248
   3.5728276  76.3768721  42.7560616  52.1635389  41.4684057   3.7396818
  51.9017506  42.2647047   3.2775071  53.0249643  41.6743755   4.1026652
  50.0439835  40.2718115  37.9009819  50.5021381  40.7930565  38.5602450
  49.9778271  39.3993068  38.2890463  42.9868460  12.3121250  48.3599043
  43.5869551  13.0358624  48.1801701  42.2519302  12.7187479  48.8190222
  19.1118348  77.1976042  44.4806147  19.0700626  76.8805122  45.3828001
  18.4807420  76.6558361  44.0068626  24.9398446   1.3363774   9.6961594
  25.1404262   0.5893975   9.1322267  24.7631645   0.9487291  10.5533314
  32.9809833  56.5872049  14.5507681  33.5835052  56.1448908  15.1487279
  33.5494494  57.0812893  13.9600408  85.3728294  69.0624666  70.4944801
  86.0433102  68.6957788  69.9180841  85.0352669  68.3090448  70.9788752
  36.6713595  77.5566196   2.3191407  36.0316396  78.0385828   1.7950177
  37.3725557  78.1877565   2.4810727  40.1903439  42.1834755  21.0512567
  39.3050957  42.5288630  21.1664724  40.7536793  42.9571056  21.0705733
  49.1753292  78.3782721  47.1761751  48.9811897  78.9926147  47.8840780
  49.2569065  78.9284945  46.3971806  22.6246095  46.5115499   3.2432923
  21.7395782  46.2049341   3.0459750  23.1517625  46.2151289   2.5013530
  52.6828957  55.3638220  10.5008054  53.5293913  55.7817554  10.6589508
  52.7507544  55.0139856   9.6124125  67.6400137  31.4164710  30.0434518
  67.7381897  32.0082808  29.2975593  66.6945553  31.3606763  30.1821065
  56.9114113  32.8986883  19.8531294  57.6837254  32.8342795  19.2913294
  56.9202900  32.0905685  20.3660607  85.7098293  76.3681746  11.3237619
  85.7612228  75.4799938  11.6769254  86.2207890  76.8988752  11.9349110
  44.8588276  22.8096318   1.8313500  44.6220970  23.7370157   1.8436189
  45.3028297  22.6647043   2.6668677  73.1536198  25.0451875  21.4354992
  73.4867191  25.9424162  21.4514446  72.5091839  25.0414944  20.7277441
  10.4262853   9.2056018  74.8237705   9.9463260   8.7841952  74.1108274
   9.8038173   9.8310393  75.1947069  23.5129738  41.3342571  15.6538653
  24.3018937  41.4404011  16.1854362  23.2018638  40.4528809  15.8602989
  12.8796244  50.6223631  74.0638590  12.3781157  50.5653477  73.2505512
  13.7781918  50.7902145  73.7798929   6.5300041  76.9061184  72.2352362
   6.5079629  77.1961117  73.1471872   7.1753275  76.1992455  72.2242212
  36.8983293  38.5280061  19.0938771  37.2882032  37.7846503  19.5539331
  37.4685454  39.2669153  19.3062401   9.8185420  43.9526367  19.0796888
   9.4418800  44.0333843  18.2034254   9.7738081  44.8374510  19.4420874
  46.0794783   3.5295141  30.2346849  45.1410341   3.3816445  30.1176906
  46.2023544   3.5491922  31.1837626  51.0934258  40.7421875  29.7877264
  50.5151176  40.0433874  29.4819903  51.9759035  40.3882217  29.6774030
  40.6057787  35.7195425  27.8879714  40.2154398  36.1461473  28.6507821
  40.4809761  34.7839022  28.0468225  65.7939196  36.7843342   6.0526246
  65.3325605  37.3494411   5.4329222  66.0121202  36.0017443   5.5464870
  85.0526142  77.1104431  58.8526535  85.8744431  77.0255804  59.3360090
  84.6014786  76.2790823  58.9994335  61.8430042  78.0119371  57.2357559
  61.3946915  78.4890842  56.5374899  61.1559200  77.4872828  57.6467133
  50.6745434  35.1554751  14.8057663  49.8491096  34.7472167  15.0669491
  51.3462830  34.6555948  15.2695704  27.4752665  62.8873539  23.5447192
  27.9697800  62.4574566  22.8469563  26.8458939  63.4429693  23.0849242
  16.3157094  83.0867672   8.7277728  16.5590572  83.3847713   9.6042478
  16.6037166  83.7908936   8.1468350  57.8975439  48.9087677  40.1292896
  58.4063053  49.5446539  40.6323195  58.5294962  48.5220671  39.5232081
  89.0349293  41.1653614  70.0190973  89.2264175  42.0994568  69.9352455
  89.8903465  40.7395267  69.9628735  53.9318228  49.6899796   6.0224360
  54.1107702  50.4592323   6.5632308  52.9914093  49.5413017   6.1211717
  68.7745810   9.6215743  20.6923318  68.1944323  10.1918125  21.1967969
  68.1841087   9.0199888  20.2388287  75.0706434  61.7228556  66.0359001
  74.5550251  61.0143232  66.4210606  75.9126759  61.3192368  65.8254099
  64.0922070  81.1501122  24.5959377  64.4302559  81.7706490  23.9502645
  63.6876917  81.6995621  25.2672815  62.0285511  50.9167337  13.2912815
  62.8536034  51.1492872  13.7172437  61.6578579  50.2302408  13.8458502
  21.7918563  22.0557022  11.8787014  21.6507769  21.6256285  11.0352767
  22.7358603  21.9934821  12.0243478  29.3026042  24.0658903  19.8835552
  29.1656733  24.6925831  19.1731048  28.4343243  23.9466047  20.2683806
  18.9892924  15.4144335   6.5932083  18.2704079  15.6327677   6.0001093
  19.3974304  14.6425760   6.2009186  51.8797207  46.5036917  16.8923378
  52.5541449  46.6267490  17.5603509  51.0557032  46.5132809  17.3793006
  74.0088606  45.5319834   4.9611336  74.7440720  44.9382639   5.1134509
  73.2404518  44.9615526   4.9414772  59.4122410   9.1377115  64.1976976
  59.2555332   9.7639531  64.9044466  60.1270390   8.5880333  64.5188665
  28.8698006  10.9398186  66.2986135  27.9394627  10.9144938  66.0748720
  29.0503955  10.0763237  66.6700888  73.6832809  80.3462315  50.0802469
  72.7680588  80.3261471  49.8006105  73.6444950  80.2629375  51.0330248
  91.5545177  49.6983576  56.7322540  91.9281578  49.9873686  55.8997297
  90.6441593  49.9924850  56.7011642  70.7504940  34.7595787  56.5899324
  69.8161697  34.6795988  56.7819595  71.1810780  34.6215630  57.4336004
  55.8062029  65.5384541  12.3368192  55.0257635  64.9852037  12.3694670
  56.5297699  64.9246883  12.2104216  63.5289097  74.7346210  56.9178677
  63.7244129  73.8296413  57.1608067  64.2323637  75.2469397  57.3165035
  20.5629468  24.8706341  70.5824280  20.2328610  25.2018094  69.7472048
  20.9876633  25.6261706  70.9886456  58.5906935  47.2052956  16.2016416
  58.5838556  46.7270803  15.3724897  58.0378580  47.9701424  16.0415733
  85.3091358  85.9811880  47.1016121  84.4387602  86.2059738  46.7727518
  85.3407859  86.3655377  47.9776859  80.8744240  63.5688877  16.3820970
  81.8038368  63.7635851  16.2615800  80.8419418  62.6195669  16.5002978
  46.4585066  70.2808952  52.3379517  46.5728331  71.1328697  52.7590227
  45.8418655  70.4469538  51.6249180  54.6094084   6.5958214  64.6466684
  53.7632513   7.0433021  64.6495962  54.6352148   6.1377758  63.8065767
  62.1724081  46.7728376  17.6455557  63.0136633  47.2249222  17.5812268
  62.0902681  46.3006639  16.8169796  70.4160070  37.7852798  31.7066598
  70.4468441  38.4998798  31.0705566  71.1703396  37.9384017  32.2756624
  48.5846996  13.0005074   7.2226948  48.4059381  12.6422095   6.3532704
  49.4831848  13.3259547   7.1675307  67.6698208  33.5746217   5.7418370
  68.6179829  33.6200356   5.6187159  67.3160028  34.2006063   5.1100266
  87.1433256  -0.2148264  55.5033636  88.0588005  -0.3495234  55.7482862
  86.9061087   0.6177027  55.9118366  63.5054541  56.3520670  12.7994311
  63.8567019  57.2011471  12.5312424  63.8639259  56.2105131  13.6756110
   8.2960123  18.4906054  63.1503916   8.9522564  19.1287422  63.4303141
   8.8060570  17.7624834  62.7955341  78.5573006  73.2994175  73.8772058
  78.6914349  74.0640545  73.3172321  78.7178516  73.6210918  74.7643232
  77.2102451  39.3096876  44.5331383  76.5514565  39.3352795  43.8391876
  77.2556019  38.3877301  44.7864532  91.0129070  69.5076752  70.3573132
  90.7553196  70.4295206  70.3658056  90.1863861  69.0285730  70.2976513
  25.5150247  40.4133511  57.1314335  26.3406515  40.5851698  56.6786098
  24.9883103  39.9308109  56.4942837  51.1582851   6.7830116  28.5084367
  51.4530134   6.0237616  29.0113354  51.9172812   7.0294797  27.9798460
  57.7224255  58.9738560  10.5182087  57.2426701  59.1957998   9.7202086
  57.0455790  58.8946247  11.1903894  64.9450445  65.2192068  60.7814503
  64.5890236  66.0674763  61.0458755  65.7198095  65.1026917  61.3313580
  66.7875957  82.8936291   7.3408210  66.8294239  83.8360023   7.5033027
  67.1000719  82.7914715   6.4418459  57.5079727  73.5086775  25.6187749
  58.0103016  73.3861303  26.4243031  56.6800261  73.8916397  25.9087372
  72.4374247  58.2905340   2.8739977  71.5552378  58.4155893   2.5242248
  72.3894167  57.4644709   3.3551893   0.2772501  44.7554493  26.3864851
  -0.0044653  45.1017809  27.2332001   0.1427152  45.4793596  25.7748604
  30.1829481  13.7811255  57.5920010  30.0197363  14.4294882  56.9070053
  30.8060789  13.1696832  57.1994734  49.6135664  51.6340542  20.6312966
  49.6581793  52.5188351  20.2687931  48.6801386  51.4220572  20.6314278
  75.4777431   9.6839786  73.6131287  75.9153318   9.6112907  72.7649164
  75.7277536  10.5488515  73.9382792  48.9680147  49.1344690  19.0525568
  48.0863571  48.8543892  19.2984462  48.8639450  49.5149660  18.1804216
  11.8759573  11.0173583  68.0391216  11.0430336  10.5458641  68.0264330
  12.3462605  10.6526041  68.7887907  78.5453558  64.6510506  36.5720582
  78.9896631  65.2291107  37.1922779  78.1339312  65.2446556  35.9438920
  39.8535872  47.3899937  25.1558566  39.2592168  47.6910305  25.8431196
  40.2154922  48.1939316  24.7831130  12.5153029  51.2227774   0.0390548
  12.1579981  51.9140339   0.5964848  13.2018757  51.6553736  -0.4685974
  60.2237272  31.3203692  24.5530438  59.9537754  30.6475925  23.9279628
  60.1704025  32.1396899  24.0610075  44.1264343  71.3628149  18.4878337
  43.3846712  71.3868761  17.8833199  44.5810366  72.1925068  18.3422923
  15.5577612  29.3652248  52.9563999  16.4045906  28.9475536  52.7993536
  15.0743961  28.7337756  53.4891844  47.0231771  64.4708347   5.8239007
  47.4608421  65.2066612   6.2519699  46.1085987  64.5446539   6.0965288
  67.7858162  81.3016605  28.0695820  67.0250463  80.7743645  27.8258181
  68.4168530  80.6681156  28.4111190  89.9412632  72.0183039  31.1322117
  89.1944218  72.4917746  31.4986682  90.5356789  71.8984699  31.8728471
  31.4777374  47.7306604  73.4799290  30.7761741  48.1250381  72.9617500
  31.2202024  46.8134642  73.5729885  49.2828321  51.6715050  14.7636652
  49.5705462  52.5771523  14.8787999  49.9348354  51.2855911  14.1786933
  56.3103199  55.2282906  36.3283753  56.0719776  54.6360493  37.0415902
  55.9359169  54.8236942  35.5458426  61.2259769  65.6264305  17.4876583
  61.0464954  66.4218521  16.9863343  62.0543098  65.8055639  17.9326332
  46.0442781  43.2266760  32.8257108  46.4631796  43.9745760  33.2516146
  46.7080212  42.5372553  32.8452277  41.9099283  42.1323490  71.5087175
  42.0480156  41.4773703  70.8244896  42.7735138  42.5220680  71.6449976
  52.9239988  32.8025794  11.6677463  52.6414108  32.0032835  12.1121562
  52.9567671  33.4627581  12.3600769  37.1615005  45.9421062  20.3382468
  38.1145811  45.8871269  20.4078746  36.9322109  46.7402172  20.8143520
  61.7795849  35.0124621   4.7461799  62.3184013  35.2030492   5.5140257
  61.0086966  35.5702829   4.8500955  67.9587507  48.6864614   5.7611883
  68.4736013  49.1215038   5.0815582  67.2937012  48.1943798   5.2797282
  68.6735630  30.1545620   2.7145180  69.5102692  29.7782469   2.9875571
  68.6174774  29.9602485   1.7789280   3.4599182   6.5494680  43.5972548
   3.5152161   7.3705995  43.1084633   3.6125377   6.8020254  44.5078325
  58.8046074  56.5601444  23.6327600  59.3692493  56.2131405  24.3234110
  59.4108582  56.9304466  22.9912233  20.6373024  24.7208762  67.2844124
  20.8085275  24.2873049  66.4483929  19.7421551  24.4657040  67.5076389
  82.0163536  52.8201342  69.6886873  82.2520638  51.8984079  69.7939825
  82.2275448  53.2192898  70.5326700  69.8741579  57.9592562   1.9395342
  70.1094341  57.7541018   1.0346656  69.4177008  58.7987709   1.8838745
  10.4594362   8.7757784  57.6526880   9.9353367   8.0468392  57.3207235
   9.9388343   9.1381317  58.3695602  66.0035896  44.7030210  34.5454383
  66.2096786  43.9308786  34.0186048  65.4318190  45.2289057  33.9861941
  34.6371055  50.2638006  57.1419621  34.1490960  49.4408512  57.1707487
  34.3175364  50.7043409  56.3545370  55.9961843  85.1579094  45.1652384
  56.1233854  84.4639301  44.5183563  55.0492668  85.1871586  45.3020668
  80.7587147  66.9316959  35.1297474  81.3217449  66.3390493  34.6317554
  79.8913383  66.8219519  34.7400618  22.4297237   7.9935205  55.0912857
  22.8418612   8.7926406  54.7629833  22.9763699   7.2850734  54.7514153
  49.9955320  28.3933854  19.8505139  50.4612398  27.8122330  20.4518557
  49.1087389  28.4460711  20.2069545  47.9156828  21.2792158  62.0356321
  47.3371553  21.1321998  61.2873507  47.7180910  22.1717691  62.3194218
  27.7267599  20.3557110  65.2238226  28.6140800  20.7072711  65.2966309
  27.6252961  19.7996831  65.9963322  12.2803915  58.3477497  60.4949808
  12.5268710  58.9809227  59.8207617  12.9609787  57.6759863  60.4529619
  22.4757838  34.5490670  15.8159137  23.3990455  34.5435166  16.0684800
  22.4321580  33.9700603  15.0549412  37.2470498  50.2665281  25.1796842
  37.2166061  51.1874342  25.4389763  37.8076410  49.8515320  25.8352351
  62.2741795  38.5569715  20.9671426  62.9150248  38.6385489  21.6734672
  61.5948486  39.1950822  21.1852145  80.9485626  85.2680206  52.2596741
  81.0305786  85.8575153  51.5100098  80.1399136  85.5419540  52.6924324
  46.7023039  51.1261702  20.7519150  46.4243984  50.3400707  20.2817583
  45.9381723  51.3777208  21.2706232  57.1349907  80.1330757  54.7285223
  57.8282738  80.5539894  54.2201662  56.3859081  80.1033974  54.1333532
  45.0889730  50.2747345   8.7542325  44.1978884  50.3318691   8.4093702
  45.5257082  51.0583401   8.4203827  54.9116755  48.0134916   0.1185198
  55.2975893  47.6941872   0.9342078  55.3398609  48.8556147  -0.0354715
  26.5744209  64.2277002   0.4988328  25.7682967  63.7148142   0.4410126
  26.3174510  65.1091146   0.2280771  75.8893681  63.6625099  52.0021963
  76.6723347  64.2130756  51.9931984  75.9764910  63.1351805  52.7962780
  16.4801669  31.6439366  69.1673040  17.1573377  31.1524916  69.6322250
  16.9581699  32.3340869  68.7074852  39.9387312  10.0044107  61.9162273
  40.0340462  10.9566760  61.9345999  39.2855430   9.8160338  62.5900888
  24.7472286  77.6926565  11.3910615  24.4377398  76.9681263  10.8474541
  24.0324306  77.8519535  12.0074368  86.7114258  54.5022058  18.3264792
  87.2388840  54.0719128  17.6535249  87.3058224  55.1362324  18.7276423
  52.0211458  27.6745844  14.7197676  51.9660854  26.7231679  14.8092675
  51.2020969  27.9226136  14.2909682  30.4487967   5.5946147  61.6854668
  29.6364260   6.0989439  61.6414595  30.9189606   5.8275068  60.8848810
  71.6272259  60.4057217  18.4160650  72.4631643  60.4902315  17.9574776
  71.8610477  60.4165506  19.3442047  20.1616263  43.4107208  44.2697430
  19.5312214  42.9948521  44.8578548  20.9489012  43.5222197  44.8026562
   9.7106892  66.2638760   4.4379774  10.5376816  66.6807222   4.6799603
   9.3981236  66.7695189   3.6877364  55.6320047  43.8795710  19.3197823
  55.8073092  43.2822180  18.5926843  56.2814808  44.5755816  19.2198634
  90.0466347  58.4277916  34.1908193  89.5606709  57.9331493  34.8506641
  90.9665775  58.2584620  34.3939614  49.3288231  19.3548429  11.0210133
  49.8390818  20.0357676  11.4594316  49.8693514  19.0929794  10.2757013
  19.6328950  81.4384556  35.7381368  20.3085589  81.5429688  35.0682211
  19.2413437  80.5850029  35.5523014  13.9555120  78.8043022  36.4199138
  13.5166502  78.7742519  37.2700477  13.4749711  79.4683838  35.9256411
   4.0194795  17.2678208  62.2882748   4.3779606  17.2068262  61.4028358
   4.7858256  17.3872781  62.8492355  53.0262804  18.8566995  37.0649195
  53.1270361  19.0640032  36.1358833  53.8477850  19.1424668  37.4645472
  78.8807106  80.0215244  45.7837582  77.9723740  79.7493553  45.6530619
  78.8879776  80.4221821  46.6530418  72.3584414  79.6153402  13.7427795
  72.3460293  79.9752522  14.6296513  71.4744091  79.7691059  13.4094989
  56.5541220  67.7661705  19.4843268  56.0276508  67.6690865  18.6908317
  57.3269129  68.2546520  19.2007542  50.5861425  12.3078489  25.9068704
  49.7035789  12.1251857  25.5844688  50.8494282  11.5030551  26.3532066
  56.6089344  84.7315121   8.8290948  57.2352743  84.4852734   9.5097494
  56.7043447  85.6804657   8.7477756  73.9157152   0.8195888  19.9990916
  72.9595900   0.8049712  19.9562228  74.1536283   1.7090678  19.7374487
  56.6159678  74.6933222  10.8997118  55.9936953  74.5204496  10.1932275
  57.2672462  75.2753448  10.5081546   5.0333810  20.9797573  58.8421583
   5.6083673  20.8949423  59.6027040   4.1957802  20.6197643  59.1338110
  10.9800148  56.8640137  31.0131955  10.8958220  57.3429012  31.8376994
  10.0783348  56.7271948  30.7225323  51.6761017  65.1543856   2.6371005
  51.9544840  64.7945929   1.7949092  50.8436060  64.7188902   2.8201932
  91.3636589  74.1768026  49.3032360  90.7575798  73.5235977  49.6528387
  90.9881210  74.4239426  48.4581757  32.9295087  71.2560272  27.6723528
  32.5262666  71.9273138  28.2228088  32.3128581  71.1363268  26.9501019
  39.2699313  52.5576496  15.0551641  38.9853525  53.3678293  15.4780746
  38.9754009  52.6444674  14.1485512  66.6614771  44.1967392  10.8621418
  65.8327007  43.7239456  10.7857919  67.0789194  44.0878820  10.0076687
  54.2340422  37.4205923  24.4155812  53.4267378  37.9124904  24.2654777
  54.7243881  37.5099087  23.5983825  91.2864113   8.2269323  69.8011160
  90.3773403   8.4643596  69.6181917  91.2255859   7.5393409  70.4642487
  55.3682661  40.0723028  15.3456986  56.0368967  39.5024180  15.7256913
  55.8308697  40.5657339  14.6683872  21.8593597  20.6637979  44.4204950
  21.8528247  21.6208863  44.4075108  21.2541723  20.4296708  45.1241779
   6.7011875  78.9902115  66.4218092   6.6051179  78.1661558  66.8992424
   5.9079766  79.0526009  65.8896875  25.8626246  63.4981251  25.5956841
  25.9724402  62.9968786  26.4037204  26.5413880  63.1613493  25.0107980
  81.0315037  59.4592762  33.7713146  81.6098595  58.8140726  33.3645487
  80.2299213  59.4251919  33.2492709  41.6674805  76.5716028   3.5686293
  42.5831556  76.7431355   3.7885040  41.7082119  75.9592819   2.8340298
  20.0032711  35.0392509   0.7690305  19.9320710  34.2031789   0.3084335
  19.1339028  35.4316783   0.6888327  15.0394154   9.8903573   5.0956869
  15.2924979   9.0668023   4.6786276  14.2557645  10.1681161   4.6213728
   7.0647472   6.6944748  39.0891743   6.7850763   7.5742060  39.3423319
   7.2230572   6.7552930  38.1471181  54.7122192  67.2189474   4.0549707
  54.2730522  66.8681812   4.8297784  54.9565077  66.4451504   3.5472319
  90.9218025  11.1569452  55.4279137  91.5621090  10.4472852  55.4790211
  90.2842617  10.9540641  56.1124706  33.1722593  69.7077990   4.4419110
  32.5078607  69.1619921   4.8625067  32.9123950  69.7345543   3.5210493
  21.7450738  37.1187449  32.4658942  21.3011312  37.7406955  33.0423689
  22.3309588  36.6314483  33.0451274  48.5191822  50.6321526  27.5145459
  48.1604719  50.3529978  26.6721487  49.4647360  50.6715631  27.3710036
  21.7551041  24.3654299  51.5780258  22.6254511  23.9672923  51.5632534
  21.3221145  24.0237546  50.7957172  75.0065517  69.9473000   4.2719841
  75.3330421  70.7217073   3.8138077  74.5104361  69.4678545   3.6084810
  50.8209562  19.1814280  72.7636719  50.9192276  19.6499193  71.9347620
  51.6765404  19.2593491  73.1857300  53.8030243  44.7917318   2.8474498
  54.1669989  45.6770277   2.8487134  54.5046663  44.2437935   3.1991521
  38.5309458  24.5437407   0.4819250  38.0330729  25.3546858   0.5854837
  38.5183930  24.3736053  -0.4599496  84.1811371  80.6367970  64.8333025
  83.9409637  81.2831688  65.4971933  84.9819946  80.2344513  65.1694298
  36.4220309  38.4576797  63.0525446  35.7255840  38.8622928  62.5353527
  36.0876799  37.5861049  63.2641983  68.0162621  68.3458090   5.8112222
  68.8714361  68.5920382   6.1637586  68.1854534  68.1449986   4.8907429
  87.6167202  73.5520506  51.7493439  87.2337055  72.6981592  51.9503689
  87.1750355  73.8297272  50.9468222  53.7056255  54.3882322  19.9073637
  53.0909061  54.1670370  20.6069541  54.3923712  54.8932505  20.3427601
  76.3292360  61.1419821   5.7489121  76.5822077  61.0010481   4.8365664
  75.7341671  60.4188442   5.9469050  68.0679703  40.5543709  25.6046152
  68.9730215  40.2477980  25.5487299  68.1432199  41.4928961  25.7770586
  17.5509620  25.1553440  33.4634686  17.9621661  24.2915392  33.4948254
  17.6062536  25.4797053  34.3623352  59.9322033  79.8265743  31.2009239
  60.6600285  79.2638302  30.9366822  60.2852345  80.3541565  31.9173431
  76.4105368  71.7925978  11.6247082  76.5512562  71.4499855  12.5073445
  76.5752935  71.0459471  11.0488653   4.6381193  52.6075125  47.8544140
   3.9713794  52.5914764  48.5410213   4.3304139  53.2713032  47.2372103
  33.0866814  34.4703913  72.8706884  33.5707951  35.2961326  72.8745317
  33.6597919  33.8546228  73.3274269   8.6722219  52.3812628  74.2390108
   7.8204954  52.8178024  74.2238665   9.0161574  52.4963999  73.3531904
  29.5375633  84.1135597   5.7969928  29.4335461  83.4164524   5.1493376
  28.7227011  84.6130085   5.7442683  39.6897030  40.1203966  15.1516557
  40.2391481  39.8436022  15.8849537  38.7962055  39.9274087  15.4356432
  46.4961529  37.5314450  14.4756758  47.2068977  37.9301763  14.9777567
  46.4237642  38.0741572  13.6905289  72.8154707  68.6938763  19.1333115
  72.7447319  67.8011560  19.4713628  72.3762798  68.6636305  18.2833552
  63.0317497  70.8254814  22.3367667  62.2315836  71.1813164  22.7232170
  63.7403774  71.2801838  22.7920914  32.7091193  10.3664708  30.5763102
  32.2404480  10.1232123  29.7779346  32.6756668  11.3229632  30.5916715
  48.4436655   5.4489124  67.8401375  48.1632280   6.3641101  67.8405905
  48.2907581   5.1511121  68.7368917  57.6321554  69.1091728  26.3305354
  57.0426035  68.4134722  26.0395670  58.1343412  69.3400049  25.5490255
  64.3421268  68.6376572  13.6575139  64.9172831  68.4247684  12.9225910
  64.0513992  69.5327187  13.4826648  41.9326019  69.5903492  12.4198878
  41.1804342  69.0027905  12.3474264  41.5544081  70.4689837  12.3851168
  34.1494274  59.4694901   4.2583641  33.6121869  60.2344561   4.0523764
  35.0094151  59.6750450   3.8917625  42.1725845  84.3080521  67.4335766
  41.4413738  84.9246597  67.3966646  42.1587563  83.9735222  68.3303118
  45.6722116  62.8294230   0.4457740  44.7636127  62.8294277   0.1446523
  45.6571198  62.3147297   1.2526780  40.2917957  69.3409491  36.5468335
  41.0043716  68.8378286  36.9409561  40.2963638  69.0813780  35.6255102
  78.4495401  44.6931696  12.2252333  78.7451553  43.9788532  12.7896774
  78.7969542  45.4839277  12.6378322  34.3136168  36.9196296  54.0482187
  34.1895700  36.9826150  53.1011820  35.2080774  36.5948200  54.1515350
  47.1164513  76.8365622  14.1278112  47.8733587  76.9774961  14.6965456
  47.2178316  75.9385538  13.8123143  28.7030172  42.9619932  62.7803802
  27.9362631  43.3899832  63.1613588  29.2193651  43.6790276  62.4123001
  58.2275009  76.7813015  66.4655590  58.2960892  77.0120287  65.5391169
  57.8463125  77.5565004  66.8778610  80.9579563  63.0839682   0.8634847
  80.3103733  62.3791885   0.8508027  80.6447315  63.7088251   0.2095104
  60.0593948  67.0940018   7.5249690  59.9296379  67.9892397   7.8379321
  59.4512653  66.5681505   8.0444849  28.7958407  75.9303045  65.6243372
  28.0519366  75.6425381  66.1535168  29.1082644  75.1329660  65.1967049
  28.3151960   1.6278976  70.7456064  27.8193021   2.1042088  71.4115286
  28.8461614   2.2989872  70.3167152  67.8104877  73.7979603   9.0694898
  67.5216055  73.1023359   8.4788269  68.5501766  73.4179020   9.5434612
  87.4471188  47.3305225  32.4360061  88.1096935  46.7316628  32.7803731
  87.9194260  48.1493616  32.2854948  43.9697170  66.2611485   6.4897817
  43.2741451  66.7902279   6.8802762  44.7423077  66.8257332   6.5139055
  59.4310474  83.3547020  67.4069738  60.1841497  82.7641106  67.3903990
  59.1525936  83.3621120  68.3227444  50.6529427  50.4935646   3.4102300
  49.8117161  50.1745033   3.0834737  51.3001108  49.9072790   3.0182144
  77.6024103  50.3623962   3.1562939  78.4465075  50.6972361   3.4589687
  76.9546938  50.9139395   3.5950366  71.0151100  68.4384489  28.5577345
  71.4088249  68.2896042  29.4174218  71.7553425  68.6487103  27.9884529
   9.1796094  71.1159420  63.9244366   8.8922745  70.3161192  63.4840345
   8.5990179  71.7975378  63.5859489  38.1313777  29.1400719  74.6883678
  39.0478063  29.4086242  74.6230268  37.7336240  29.4453120  73.8729811
  33.8853788  14.5245731  57.4404764  33.2845140  14.1455734  58.0819988
  34.0833569  13.8037026  56.8426609  59.3829918  40.4406166   9.4007683
  58.5794401  40.5250502   9.9139988  59.0839767  40.1864624   8.5277134
  62.4020386  66.0468674  25.9400225  62.6720524  65.3800488  25.3086138
  61.7217922  65.6211472  26.4618087  -0.1505910  16.3012302  57.3258781
   0.4812076  16.7508817  57.8870153   0.0516234  15.3719366  57.4342966
  88.1525517  72.6103258  68.0328369  87.6680756  73.0596781  68.7253666
  88.0549335  73.1757069  67.2666454  41.7018223  68.5598946  33.9596534
  41.1291885  68.4828138  33.1965137  42.3993587  69.1512823  33.6769342
  73.4174442  20.3305125   3.0136707  72.7197599  20.7810760   3.4895492
  72.9613495  19.6824336   2.4768274  35.2884221  60.3625631  10.8606005
  35.2859998  61.0369444  10.1813149  36.0197878  59.7906399  10.6277025
  68.2794809  81.2074566  72.8299284  69.1891909  81.3379478  73.0975628
  68.3401012  80.7772350  71.9770098  63.4295034  38.0188298  12.5035655
  64.2667913  38.3732295  12.2042620  62.7948713  38.3235645  11.8550205
  47.6678276  65.5087090  46.2073421  48.1075811  64.6974897  46.4618397
  46.7391205  65.2787352  46.1781883  50.4631472  53.7885571  11.5751839
  51.3410091  53.9283514  11.2201536  50.3820610  52.8374243  11.6459250
  14.5823181  64.1789436  17.7007425  15.0864732  64.0612602  16.8956280
  14.8980725  65.0071383  18.0621636  26.3766265  53.2496643  26.9371080
  25.6329894  53.8071823  26.7081761  26.1117792  52.3720598  26.6616201
  32.4310994  69.5671082  60.3327894  32.1698117  69.7274780  59.4260120
  32.4513745  70.4361725  60.7334757  35.2497458  40.2369642  24.6530724
  35.6980133  40.7819033  24.0062904  34.3489456  40.1792049  24.3345547
   5.5068541  74.9771643  32.3205137   4.8883060  75.6436253  32.6196194
   5.4997396  74.3159580  33.0125999  34.6821761   0.7840846  10.1967621
  35.4018164   0.8690148  10.8221710  34.2364764  -0.0234308  10.4526973
  36.6739082  17.2280586  16.2500966  35.9001923  17.1248221  15.6960785
  36.6462970  18.1423581  16.5321016  46.9749022  18.7730265   7.3952311
  46.2861156  19.2467320   7.8614986  47.1025038  19.2699790   6.5871537
  60.7136583  32.6746273   3.1275207  61.4515209  32.6272297   3.7354255
  60.7458973  31.8475437   2.6467684  13.8987303  14.4500160  59.0433741
  14.2873275  14.0872395  58.2473707  13.7811482  15.3800988  58.8501024
  78.4381533   8.8787651  24.0652084  78.4241104   9.5018023  24.7917461
  78.7075043   9.3993390  23.3084488  -0.1164267  80.5495644  64.9500513
   0.8361604  80.5797672  65.0388479  -0.3491042  81.3990498  64.5752668
  24.6864963  12.8947413  38.0863547  24.7953820  12.0457196  38.5147691
  25.4647136  13.3917856  38.3384609  88.4657860  78.1565714  32.8551984
  87.5539970  78.4467459  32.8291988  88.6038685  77.8815842  33.7615919
  54.7515965  53.3181000  34.3650270  55.3993464  53.9462185  34.0454626
  54.8731947  52.5463438  33.8120008  56.7711878  60.0460100   8.0948800
  56.9499493  60.4798603   7.2605854  56.1496878  59.3518496   7.8755289
  76.1010933  52.5483465  42.1601629  76.2931299  52.8597927  41.2756538
  76.8911552  52.7495193  42.6617241  57.3243856  31.1190486   3.9124963
  56.8460894  31.3424087   3.1140107  57.5914001  31.9633842   4.2758563
  59.1424036  61.0614061  25.3336596  60.0303745  61.3021994  25.0695515
  58.8804293  61.7480516  25.9469509  60.6643057  29.9026370   2.2534840
  60.1989698  29.8811555   3.0896854  60.0073385  30.1939130   1.6212018
  40.6661892  62.9695559   9.1396260  40.9446430  63.0878258   8.2314920
  41.0525560  63.7101698   9.6070015  58.1262732  64.1168070   4.5519158
  58.1781864  63.2490873   4.9526742  59.0311909  64.3298721   4.3239683
  57.0541286  59.0201664  17.0143676  56.1880684  58.6142349  17.0516562
  57.4544382  58.6582518  16.2237978  55.3137922  50.9910870   3.3744696
  54.7545481  50.5340195   4.0026173  54.8665619  51.8224669   3.2162723
  70.4699898  80.8941460  24.1821074  71.2245417  80.7740498  23.6055160
  69.7109747  80.7669449  23.6129427  56.2974739  69.1644001  36.0639620
  56.1848545  68.8704634  36.9679236  55.8471251  68.5026598  35.5390644
  71.3727999  59.4566059  12.5992513  72.3066950  59.3420649  12.4233174
  71.1638832  60.3162432  12.2337246  40.2231932  75.0982523  22.8510046
  40.3365946  75.3576517  21.9366288  40.7509184  74.3048763  22.9421067
   4.4482876   0.4254419   9.1367984   4.5769049  -0.0881403   9.9342412
   4.8932720  -0.0767248   8.4541172   0.9680603  48.6298370  34.2769051
   0.7633951  49.2019224  33.5372663   1.2102205  49.2288351  34.9831605
  52.9937601  10.1636744  62.3431301  53.5576630   9.4875133  61.9675636
  52.4902964  10.4957187  61.5998220  75.2818298  65.2000570   4.9417821
  75.8385372  65.9623718   4.7830722  74.5293760  65.3285885   4.3642655
  19.6002889  77.2025347  52.0106220  20.4914546  77.2711372  51.6680574
  19.0727270  77.7332115  51.4137220  30.1726866   4.3821654  72.0813513
  30.0118709   3.9447770  72.9174519  29.6324706   5.1715839  72.1162128
  90.7145023  36.5544462   9.3288922  91.4766884  37.1333861   9.3171072
  90.1630878  36.8698168   8.6128491   1.8934545  74.7571945  73.5202074
   1.8986259  74.1934538  74.2937708   2.0514625  74.1609430  72.7882576
   9.4458222  23.1690907  56.4020634   8.5331422  23.1606627  56.1136627
   9.5094967  23.9346433  56.9731236  72.4090910  16.5396512   5.0466979
  73.2743740  16.7034543   4.6716258  72.4825478  16.8321502   5.9551471
  61.5244532  54.6591806  19.6301055  60.7168722  54.5243979  20.1259732
  61.2323475  55.0000525  18.7846959  38.9134860  33.3273029  18.9152884
  39.4177818  33.7749028  19.5946789  39.3129253  33.6124563  18.0934799
  44.2072439  62.2198057  28.4832096  43.8198853  62.8899527  27.9201031
  43.9586258  61.3906622  28.0746174  51.5272999  27.8477907  24.7980714
  50.6081724  27.9848266  25.0275373  52.0146656  28.3496118  25.4514337
  17.6017761  17.0643640  64.1741562  17.9755020  17.9419160  64.2545462
  17.2463274  17.0358682  63.2858562  26.0441136  16.1228251  66.3395929
  25.7500291  16.3175607  65.4497433  25.2557921  16.2064135  66.8760538
  17.8651571  25.3669286  59.0261793  18.8038623  25.1845288  58.9838314
  17.6246214  25.5944514  58.1280661  39.4920659  56.3630676  69.0477276
  38.7043238  55.8230209  69.1113091  39.7048712  56.5839291  69.9544621
  60.5195284  75.3974009  46.9183207  60.8546686  74.6003056  47.3288727
  59.8163748  75.0936890  46.3442421  22.3962808  38.0173755  74.5659304
  21.6255808  37.8630400  75.1122189  22.0427227  38.3539295  73.7425470
  84.7147179  72.0306587   6.4614969  83.8255787  71.7362499   6.2640351
  84.8416996  71.8074322   7.3836023   3.1459698   3.3897522  15.2506554
   2.4097708   2.8043127  15.4281473   3.4795052   3.6244717  16.1166191
  83.6804199  65.9019041  12.2858822  83.3470154  65.2821302  11.6370702
  83.6384583  66.7522860  11.8484819  19.2138171  53.9228630  35.5519748
  18.8895810  53.8913631  34.6519136  18.4889531  54.2942858  36.0548186
  13.3099318  78.4155750  63.9557505  12.7571809  78.0754757  63.2521629
  13.4168601  77.6766682  64.5547628  13.8281393  34.6515751  66.6073084
  13.6801338  35.0083160  67.4831295  12.9550171  34.6020627  66.2181568
  84.2155647  42.8464174  61.7733908  84.5637798  43.5722494  62.2912169
  84.2759132  42.0875931  62.3537111  78.8200998   7.7357835  14.5942891
  77.9105139   7.8924191  14.8479688  78.7957048   6.9080734  14.1141498
  68.1840944  66.1911583  57.0411825  67.5998211  65.4536057  57.2168922
  68.6682034  65.9317350  56.2572384  84.3342472  77.4000706  74.2688849
  84.1248155  76.7035974  74.8912165  83.4948994  77.8259553  74.0946613
  42.2540569  78.8833666  28.2066822  41.4269114  78.7919950  27.7337003
  42.2239161  79.7670221  28.5733914  35.4120922  77.4823952   6.7256081
  34.5515752  77.7791119   7.0217520  35.4650545  76.5722513   7.0172602
   2.3756383  85.6192780  70.4417086   2.3398730  84.8912907  71.0621738
   3.0318758  85.3530884  69.7977161  54.7671318  19.7938585  59.4871950
  54.6500778  19.5056689  60.3924465  54.0217352  19.4188499  59.0181684
  31.6963339  25.2346539  52.7483606  31.7644286  25.9828210  53.3415222
  31.0996461  24.6313453  53.1913233  58.0331469  61.1822748  20.5750751
  57.2720146  61.7020416  20.8334374  57.9477024  60.3688765  21.0723853
  47.9903412  38.8337326  19.0669906  48.4557724  39.3470788  18.4066284
  48.6637020  38.5971165  19.7048211   8.6481416   3.3693254   8.5083824
   8.4840429   2.4670857   8.7827313   8.0731070   3.4986761   7.7541697
  53.8902760  61.2209797  40.8854628  54.3173027  60.7512903  41.6018963
  54.4027185  60.9921980  40.1100349  90.7048512  85.1669502  14.9163449
  90.3088284  85.6597424  14.1976321  91.3482094  85.7675552  15.2926445
  50.2174616   6.7749393  54.6389675  49.9492121   6.9130695  55.5473709
  50.0463867   7.6126885  54.2086840  15.7512963   5.9591579   7.9230481
  15.1085389   5.9550732   8.6323279  15.3894067   5.3618801   7.2684288
  63.7689304  64.1448402  24.4343233  64.4148684  63.5881138  24.8691249
  63.1916666  63.5315990  23.9794254  59.9621820  53.9026785   4.0295404
  60.6789589  54.3293095   3.5600233  59.1698790  54.2176580   3.5944879
  47.1623898  43.0040121   5.7116008  47.7701807  43.6997938   5.9620219
  47.7242470  42.3012924   5.3849018  22.1021414  43.8285303  56.0150862
  22.2306919  43.0206585  56.5121317  22.9618096  44.2494822  56.0156965
  38.3157468  62.9667854  21.0739088  39.2583227  62.9753780  21.2403584
  38.2274675  62.5471783  20.2181244  63.4626099  86.8086387  11.3539267
  64.0233200  86.3864837  10.7030654  62.9464313  86.0932772  11.7254770
  14.8489153  30.9884000  44.4164085  14.4154155  31.1772108  45.2486706
  15.7787156  30.9348536  44.6373940  76.0982561  13.5873795  12.0465267
  76.7128944  13.0187011  12.5102687  76.6209126  14.3478024  11.7919266
  61.1304522  23.9540792  10.7231104  61.5852737  23.4755898  11.4162338
  60.8554411  23.2767344  10.1052082  24.7357893  84.8663425  73.3723736
  24.6447372  84.0158367  72.9427385  23.9667034  84.9322987  73.9384031
  31.5448689  72.2716093  24.7482157  31.6529083  73.0094385  25.3483558
  31.1812329  72.6609707  23.9529800  53.4026577  85.9703986  27.8962708
  54.2066719  86.4882727  27.9363155  53.3941414  85.6094769  27.0097637
  81.5709877   8.6513239  10.8499062  82.4461460   8.9133584  10.5641520
  81.7217255   7.9036951  11.4283180  87.6387882   8.3767402  43.6105680
  87.2425842   7.5537872  43.3242035  88.2646561   8.1185502  44.2872238
   9.1097099  17.1934938  27.2761726   8.6706501  16.5838909  27.8693366
   9.9201798  17.4264908  27.7290344  85.4708195  29.3533707  62.4882269
  84.7184372  29.9073339  62.6962709  85.9126282  29.2243648  63.3275080
  36.8161869  13.6937511  73.4888458  36.2243962  13.9617181  74.1918468
  36.2386179  13.4986973  72.7508736  40.9933758  70.4356623  22.9969716
  41.7132044  70.2938604  23.6117649  41.3942909  70.8989048  22.2615075
  15.3215790  10.5258262  52.7724648  16.0919011   9.9791080  52.6177549
  14.8151863  10.4607809  51.9627905  83.4402752  62.5716448  43.2963228
  84.0532494  62.4528122  44.0218401  82.6924801  62.0181513  43.5214567
  30.5706453  48.0794096   1.4756262  30.4253817  47.6019430   0.6588309
  29.7541261  48.5568905   1.6224064  44.8590851   2.2183725   8.4275073
  45.1476622   1.4288568   8.8853520  43.9146805   2.1028119   8.3227426
  48.6613750   1.7538080  69.7279692  48.5771561   1.6579951  70.6766319
  49.5606613   1.4858004  69.5390701  46.7797232   7.1366334   6.0000467
  47.3812532   6.5728533   6.4864010  47.2895193   7.9245204   5.8114457
   7.1549892  29.6900487  51.8915319   6.3778627  29.3462038  52.3320723
   7.7027345  28.9204788  51.7367077  85.0637722  50.8723783  73.9412737
  85.8857632  51.3241434  73.7502813  85.2039909  50.4726839  74.7996569
  85.4887676  58.7928534  67.7975988  86.3506794  58.3770561  67.8190136
  85.1791763  58.7490702  68.7022924  52.1676445  39.7659540   8.6908305
  51.8031073  39.1014647   9.2754638  52.8634310  39.3114400   8.2159328
  48.0145264  33.5331321   3.1386596  47.3202944  33.4147239   3.7869281
  47.6183271  34.0805125   2.4606976  89.7930241   4.6699297  46.5284872
  88.9472485   4.4347104  46.9100332  90.2228546   5.1946205  47.2038937
  32.3558831  36.5708303  15.4510450  33.2120442  36.7029905  15.0439155
  31.8048668  37.2594213  15.0789452  90.3852749  27.3197198   8.9567316
  91.1315155  27.8223801   9.2833608  89.9997044  26.9271088   9.7399443
  60.2306843  26.6416264  10.3031766  59.3544769  26.6912961  10.6853056
  60.5190420  25.7463408  10.4807866  17.7961266   4.1283065   1.6007425
  18.2480383   3.3886936   2.0069203  17.5387013   4.6846980   2.3358567
  82.1381092   6.8062395  29.4605470  82.0666599   7.1693492  28.5777807
  82.8404427   7.3107654  29.8709297  11.4827156  61.6283178  65.8040762
  10.5616426  61.8839884  65.8539867  11.6175854  61.3968801  64.8851204
  83.8594723  34.6043158  15.5354595  83.8424683  35.3415966  16.1456728
  84.1360474  34.9883604  14.7034442  71.6832829  54.1516781  70.1201582
  71.6570902  54.5724535  69.2608023  72.6162004  54.0649843  70.3160572
  81.3523482   0.0428278  35.1781964  80.6520270   0.6025106  35.5136585
  81.5860270  -0.5178183  35.9179974  61.9851255  74.0235519   9.5656937
  62.4819899  73.7678671   8.7885290  62.3468113  73.4846210  10.2692330
  53.9705038  13.1841612   7.1213031  54.6527767  13.5121024   7.7071309
  54.4427443  12.6641166   6.4710921  23.8857269  66.6686344  61.3159513
  23.1691861  66.9543982  60.7492590  24.5974612  67.2808695  61.1293030
  46.5487337  28.2816958   1.1210101  47.4150515  28.2116127   0.7199940
  46.6474485  27.8675914   1.9783348  58.6789370  45.9488106  13.6774671
  59.4254971  45.7064056  13.1296325  57.9286623  45.9262657  13.0834901
  72.1506453  49.6096659  65.2855825  71.5070486  49.6234131  65.9939814
  72.1952772  48.6910343  65.0203228  81.5187740  56.8731737  73.0118132
  82.3483276  57.3497438  72.9808903  81.0939217  57.0775986  72.1787882
   7.2337449  82.9301548  25.6345820   6.2995398  83.0467415  25.8074975
   7.6645672  83.2270718  26.4361191  46.0096455  43.7118530  26.2257051
  46.9552183  43.8099861  26.1139631  45.9170151  43.0917072  26.9489431
  27.7287841  27.7198267   7.2348827  27.6647902  26.7867517   7.0311552
  28.6684060  27.8833437   7.3161560  30.5474472  64.7019243   3.3532712
  30.4119563  65.5445623   3.7866670  30.6273842  64.9202728   2.4247426
  87.6686954  64.8691702  63.5708809  88.2288265  64.4891071  64.2476654
  87.7045536  65.8120441  63.7319422  80.2731037  66.8587160  73.9135647
  80.1365566  66.4823627  74.7830153  80.9256744  67.5456285  74.0497017
  76.5324545  40.6957769  24.2929387  76.8481541  40.2934408  23.4838080
  76.0984039  41.4996338  24.0072131   8.4971517  60.5569315  66.2714815
   8.2329017  60.4719877  67.1875525   8.7759805  59.6764517  66.0200024
  77.9340172  14.2517245  64.9666739  77.3068953  13.5745144  65.2203321
  78.4012079  14.4606113  65.7755804  71.4612961  12.4400425  65.6428909
  71.2817383  12.0193040  66.4837074  72.4092293  12.5728679  65.6391287
  26.5923929  64.0967607  39.7455072  26.5552330  64.7219706  40.4693604
  26.2489367  64.5798397  38.9939070  40.3016758  37.0900154  18.4809339
  39.5331454  36.6148901  18.1649506  40.9676838  36.9417214  17.8096092
  53.6620092  52.8948069  13.4650671  54.4954681  52.4411154  13.5905421
  53.0084515  52.3022175  13.8364673  30.2012873  79.6343040  17.0420635
  29.3363285  79.6335697  16.6320908  30.5663681  78.7746191  16.8325651
  20.8015299  53.7846947  25.3406835  19.9924314  54.1151857  25.7310224
  20.9257364  54.3204069  24.5572186  46.3924837  53.9484072  12.8866410
  45.5424118  54.1494226  12.4952328  46.5895319  53.0604553  12.5884044
  55.7451344  41.2866545  22.6930213  56.6777658  41.2473106  22.4811482
  55.7000732  41.0528851  23.6201429  86.2795353  31.9773269  64.7346640
  86.2168789  31.4677715  63.9267921  86.1342812  32.8823543  64.4588804
  33.8385940  24.1826677  34.6931863  34.2309451  24.5222211  35.4975462
  32.9404473  23.9616251  34.9395728  60.8332586  51.1861897   4.1552010
  60.5219269  52.0801497   4.0132707  60.8686161  50.8029079   3.2788020
  52.7714109  79.7686386   8.4648228  52.5944948  80.4530811   7.8194749
  52.0635796  79.1358900   8.3430421  80.7167816  23.2806587  26.7243671
  79.9242258  22.9381180  27.1375847  80.8082962  22.7687716  25.9207320
  32.9312444  65.0411510  15.4280770  33.8567662  64.8623466  15.5944180
  32.6962376  65.7075644  16.0737514  42.3533392  26.0571837  27.0515442
  42.9751921  25.4525161  26.6466880  41.9760227  26.5404558  26.3164854
  70.4394293  14.7625256  33.3884168  71.2472916  14.6160114  32.8963542
  70.1354265  15.6228137  33.0990720  74.1222143  80.9788990  42.4554157
  73.7845802  81.3358974  41.6339636  73.6994076  81.5026951  43.1359339
  65.4708099  81.3518047  73.0467272  65.3586626  80.5921268  72.4752855
  66.4080572  81.3695812  73.2403469  66.1038876  38.0369949   8.7179506
  66.2109137  37.7427673   7.8134024  65.5655575  38.8256478   8.6511791
  72.7879858  51.9112921  66.7893219  73.5629940  51.5499926  67.2195053
  72.4725485  51.2021589  66.2290859  73.1927538  27.9560733  21.9602108
  72.2381687  28.0063248  21.9104528  73.3801794  27.8806543  22.8958488
  40.5897045  17.3108709  63.4841537  40.0942039  17.7931201  64.1460800
  41.4234209  17.7770400  63.4222698  48.4926224  36.5107918  12.5054312
  49.2227077  36.3682699  13.1078351  47.8996181  35.7776761  12.6701069
   8.7925845  84.7587681  38.2020998   8.7474847  85.7096863  38.1023407
   9.6530020  84.5221519  37.8557968   7.7001178  27.7370358  29.9012232
   8.4339893  27.1754766  29.6515918   8.0092347  28.2042384  30.6773663
  26.8544507  55.1797628  54.2130184  25.9605479  54.8380423  54.2329693
  27.2309780  54.9147081  55.0521851  24.3183970  37.1035171  63.4773779
  23.8489342  37.9143953  63.6731148  24.1323113  36.5330338  64.2231321
  81.9667435  48.2698822   3.6042482  81.1824131  47.8646994   3.9742288
  82.6840591  47.6995087   3.8805950  30.2179003  85.3213596  39.2648268
  30.0838614  86.2505531  39.4515467  31.1351800  85.2605438  38.9981222
  82.8283119  52.5162029  66.1652374  83.7320614  52.4327230  65.8610964
  82.8988075  52.9741096  67.0028400  46.4206839  33.5238767  23.7768960
  45.6517744  33.5537672  23.2075834  47.1649456  33.5384464  23.1751585
  69.1496086  78.1264830  66.5284300  68.3905792  78.0522394  67.1068668
  69.0252447  77.4335051  65.8799410  43.2920599  64.4449043   9.3935561
  44.0738487  64.9429655   9.1548741  42.6261282  65.1112175   9.5632619
  90.2657127  85.4251099  57.6756191  90.9022713  85.0200558  57.0865870
  90.7633495  85.6174755  58.4703398  65.0860929  73.0578327  62.5025225
  65.6209373  72.5667620  63.1262398  65.0217485  72.4845076  61.7387247
  53.0479240  41.2196827  31.6965771  53.7269878  41.1580706  31.0247827
  52.2614861  41.4831448  31.2187362  52.6855803  34.3066692   2.5168046
  52.7567768  35.1060605   3.0384710  52.0428085  34.5187974   1.8399906
  36.0963607  35.5343032   9.8033756  36.6823339  34.9181056   9.3638659
  36.0233712  36.2703252   9.1957784  62.9943085  28.6162400  25.3189659
  63.6042595  27.9231262  25.5715108  62.2334576  28.1508398  24.9714828
  55.8570814  40.5199146  19.9254298  55.5839491  41.2065077  20.5338883
  55.6179571  40.8562613  19.0617621   7.2684711  75.0680828  60.8429337
   6.6536528  75.6949377  60.4617691   7.3601621  75.3463697  61.7541838
  10.5438828   9.9972892  10.9951484  10.4503500   9.5204842  10.1704431
  11.4037192   9.7374117  11.3258708  23.4618783  54.5617771  71.2224627
  23.2899117  54.5384073  72.1637964  23.2754946  55.4653168  70.9672928
  69.7068787  45.4428434   7.4254960  69.0416098  46.0874176   7.6666898
  70.2029991  45.8622646   6.7225134  62.9336929  76.7201090  43.2927322
  63.0776072  75.8585787  43.6842489  62.8883219  76.5509796  42.3516846
  64.1091681  54.5374775  37.9889083  63.1838465  54.4290400  37.7692342
  64.4414330  55.1485538  37.3313236  13.3469188  80.9910965  20.5815649
  12.8363657  81.6660500  21.0287833  14.0898335  80.8282852  21.1627722
  31.4353061  58.3008814  70.8890772  30.6208205  58.8031721  70.8657408
  31.1646366  57.3978424  70.7232666  15.3466260  53.1420612  66.4611292
  15.4474521  53.2018852  67.4111223  14.4003177  53.1641388  66.3188457
  80.3202820   5.0590038  72.0852470  79.8160076   4.4616020  72.6375628
  79.9934769   4.8999482  71.1997366  81.0223484  71.5964031  66.5824509
  81.7207623  72.0067072  66.0724401  81.0404110  72.0526218  67.4237394
   4.9190766  78.3846855  50.8166695   5.3509492  77.6278162  51.2127399
   5.3726220  79.1410732  51.1886978  79.9686623  51.5155029  66.0289860
  80.8946991  51.6945648  65.8658171  79.5666504  52.3810863  66.1023760
  43.7075233  15.6580985  52.5259924  44.2611551  15.0350797  52.9967070
  42.8173780  15.3286493  52.6498365  50.3097010  62.8123474   6.2033385
  49.4360542  62.6465607   5.8491033  50.2404833  63.6717939   6.6190189
  87.4080181  60.1540756  56.6712999  86.6002464  60.6399965  56.8374634
  87.2526073  59.2919874  57.0571566  79.6230364  75.1943684  72.3697901
  80.3726292  75.5401754  72.8543043  79.9250364  75.1477289  71.4626789
  55.9566879  33.6684275  22.6954889  55.1760483  34.0974402  23.0458879
  56.6601086  33.9280152  23.2905030  79.4076204  57.6620531   9.8325598
  78.6824608  58.0685234   9.3580550  79.1516829  57.7162886  10.7533133
  89.6719646  78.3262110  43.6163187  88.9624310  78.2241058  42.9819965
  90.3391361  77.7014780  43.3320189  28.3155966  18.5777092   7.7307987
  28.8922954  19.0991545   8.2891405  28.2725310  17.7241373   8.1618357
  82.5380802  25.1383352  26.1838055  81.8342495  24.6287966  26.5853286
  82.3318958  26.0467196  26.4041686  66.1223841  66.1088419  33.4085584
  65.9629440  66.4519691  34.2878032  67.0716333  65.9937334  33.3648705
  85.7163906  21.8495989  57.3898125  85.3687096  21.0390496  57.0178413
  85.3269768  21.8988395  58.2628345  23.1517553  38.0950975  57.5533199
  22.2473717  37.9797196  57.2617531  23.6331034  38.3206820  56.7573023
  21.1481476  24.8701096   3.0423743  21.2837052  24.0053296   2.6550645
  21.9520307  25.0415373   3.5329011  66.1445618  56.5774632  47.6017189
  65.7635498  55.9326887  48.1978083  67.0576143  56.6504240  47.8796387
  76.4409208  76.5894938  64.2855692  77.1746683  75.9956121  64.4441748
  76.8430138  77.3711061  63.9065742  63.2525778  25.6947684   7.2007853
  62.4613476  26.1570072   6.9241518  62.9295063  24.9014616   7.6280111
  65.6943130  28.8396478  -0.0848745  65.6949472  29.6772528   0.3784272
  65.5967093  28.1840396   0.6056933  59.6039152  69.5209789  24.2079592
  59.4492483  69.4568920  23.2655144  60.5137873  69.2458916  24.3206072
  64.2251635  61.9834995  17.5258744  65.1817513  61.9752073  17.5590479
  64.0188646  62.1607637  16.6081321  70.3191519  46.6184855  27.8656602
  70.4682016  45.6816721  27.9937100  69.3729877  46.6959238  27.7431417
  83.7895298  81.8782425  67.2658300  83.0727100  82.1495056  67.8392601
  84.4269848  81.4737129  67.8542471   9.0485650  44.7264147   9.9437976
   8.2696486  44.2387867   9.6759480   9.6446753  44.6538067   9.1984028
   0.3840130  24.6151805  56.7318630   1.0966183  25.0575137  57.1931267
  -0.3238982  24.5673370  57.3743629  14.3296754   5.3621465  15.3761363
  13.9846981   4.4952321  15.5898678  15.2080703   5.3708017  15.7563710
  76.3260984  32.1650171  43.6934710  77.2428417  32.3733330  43.8735247
  76.1888075  32.4496150  42.7899265  86.1843014  49.6240187  27.8195405
  86.3900948  49.9758339  26.9534516  86.5138245  50.2832460  28.4303308
  55.5860233  76.6373491  38.3678436  54.9588823  75.9669590  38.0967259
  55.7461596  76.4550591  39.2937803  40.3667641  16.2848890  19.9574399
  40.6746531  15.8474386  20.7512116  39.6479130  16.8426120  20.2548099
  85.7098675  21.5539265  33.4922028  85.7113552  21.9341087  34.3706608
  84.8273182  21.7199159  33.1608725   1.0295381  11.5758371   3.6979428
   0.5027642  10.7849133   3.8127509   1.8070617  11.4259160   4.2357278
  33.1839061  45.3909922  26.8157196  32.5956750  45.0900412  27.5082874
  33.9409399  45.7457638  27.2818375  67.4726486  81.0564804  63.1765366
  67.6104450  81.9974422  63.0677128  67.6353788  80.6885529  62.3079872
  31.9799781  75.6067419  63.7676334  31.5850711  74.7612619  63.9808083
  32.2372651  75.5261564  62.8491879  47.0128298  25.2737236  10.2360857
  46.6004944  25.3410625   9.3748784  46.3239145  25.5240011  10.8517063
   2.5195441  59.9582863  65.2827597   2.9956919  59.3710709  64.6956539
   3.1509829  60.1748133  65.9687901  46.0567808  24.4448376  49.0226555
  46.5704441  24.8428535  49.7254801  46.7077017  24.1660810  48.3785820
  64.4972277  10.7916117  48.0065489  64.8295832  11.4524746  48.6140299
  64.0310860  10.1676476  48.5629749  63.7273216  21.0734653  20.2425981
  64.3118858  21.0377741  19.4854689  63.8146782  21.9684410  20.5706525
  91.4428425  67.7284288  27.7008557  90.8921909  67.6852179  28.4826159
  92.1382046  67.0907068  27.8621459   3.9351964  10.8223546  57.8862953
   4.5045263  10.1014555  58.1553650   4.4817615  11.6035986  57.9708910
  41.4648867  82.3656559  59.5647621  42.1663523  82.2823048  60.2106953
  40.6611347  82.3789978  60.0844097  62.5207472  73.5808372  41.3942242
  62.4216795  74.4324827  40.9686375  62.5860357  73.7853813  42.3270321
  31.8912005  82.0564938  67.9748917  31.7331815  81.2405205  67.5000811
  31.1651039  82.1168423  68.5956764   1.6715427  18.2674503  45.6189251
   1.9446476  17.5739086  45.0183868   0.7154962  18.2204854  45.6201410
  51.5812826  27.8245497  70.2780104  52.5102758  28.0367494  70.1875687
  51.5624189  27.0862699  70.8869600  68.9771128  70.5537128  16.9229507
  68.0492830  70.6565619  17.1345890  69.2059231  69.6887541  17.2631335
  71.9254065  48.9203978   8.3093393  70.9979725  49.0527821   8.5057318
  72.0816231  49.4464731   7.5250757  59.4413948  28.8394713  15.3558886
  59.8868990  28.1672406  15.8715081  59.9853992  28.9420915  14.5750165
  39.0841269  45.9323692  12.0921052  39.0546966  46.4960241  12.8651893
  39.9976063  45.6522322  12.0345724   4.0623021   3.4680411  62.0816231
   4.9380097   3.1499425  62.3011255   3.6700818   3.6914590  62.9257059
   9.0510577  53.7234735  19.4959891   9.0927142  54.0471363  20.3958440
   9.7415721  54.2019129  19.0371633  35.3934455  21.4958715  63.1180048
  35.3451729  22.2246814  62.4993467  34.6802759  21.6582108  63.7354708
  77.2949791  66.6571283  54.3275595  76.5914345  67.2938681  54.2017889
  77.4568176  66.6622353  55.2709627  61.4691257  19.5257938  11.5908360
  60.6963730  19.2220140  11.1145926  61.4399815  19.0517414  12.4218941
  52.5609255  19.3652642  19.2551541  52.0588255  20.1194715  18.9464462
  52.0097351  18.6101842  19.0495455  75.6921291  81.4506054   1.8083595
  76.2659693  81.5251160   1.0458712  76.1871910  81.8545628   2.5210816
   9.2249787  28.3144259  19.8814189   8.8246179  27.7271461  20.5225468
   8.5195005  28.9100361  19.6288705   9.8527133   2.1778126  71.9175386
   9.5009279   2.9654264  72.3324394  10.1970351   1.6579516  72.6437759
  40.8599234   1.0722867  57.0863056  41.3349009   1.8594588  56.8198681
  40.3100252   1.3595645  57.8152180  52.9654026  73.1889009  74.2180681
  52.4320173  73.7808466  74.7484684  52.4311876  72.3995972  74.1294956
  29.9882436  19.5759070  17.8417790  30.2137756  20.5061030  17.8519201
  29.1372371  19.5310235  18.2776737  61.6959810  48.0749083  21.2730694
  60.8281565  47.8175640  20.9618115  62.2163582  47.2731638  21.2216306
  17.7715290  40.0346088  21.8131423  17.2826457  40.5574369  21.1776304
  18.6314595  39.9115586  21.4111352  -0.0553262  20.8749795  47.9099226
  -0.2732388  21.1359930  47.0151520   0.8755661  20.6548285  47.8752184
  68.3537674  61.7707300  21.3691211  67.9289055  61.7186260  22.2252798
  68.7225914  60.8982611  21.2312722  15.8487380  53.9583302  51.1664200
  16.7999387  53.9881659  51.2691736  15.5972934  54.8666430  50.9991598
  80.3242970  65.4160833  25.5880094  81.1223221  64.8877096  25.5738997
  80.4095173  65.9577417  26.3725924  34.4236326  69.9100685  14.2126465
  33.6085701  69.9006367  14.7144592  34.1512752  69.7434139  13.3102739
  15.6457627  65.8538485  47.0146608  14.8925507  65.6001472  47.5480843
  15.4220128  65.5629969  46.1305952  27.4478602  57.3215485  26.6690326
  27.2596765  56.8966198  25.8322215  27.3729229  56.6201210  27.3160386
  59.8035479  32.3676801  21.0263681  59.6069908  31.4513159  21.2209845
  58.9551735  32.7534699  20.8080554  18.3722889  79.8783779  54.3289518
  17.7313399  79.1695356  54.2745161  17.9365420  80.6270885  53.9217854
  86.7367363  28.4537244  55.6005096  86.0579014  27.8640199  55.9286213
  87.4848652  27.8832197  55.4242468  71.5938616  69.6310425  46.8406820
  72.1366024  68.8789606  46.6039562  72.0675087  70.3869438  46.4935493
   0.6017091  71.4979076  33.0551291   0.4193666  72.4096584  33.2824969
   0.0135877  70.9895611  33.6136389  67.0959425  74.3533087  35.8102560
  66.5968466  74.2093611  36.6142559  67.6232195  75.1313114  35.9917116
   4.4736344  39.8367429  42.3021746   4.2259699  40.7158327  42.5887012
   3.7973046  39.2663407  42.6674843  79.6254492  65.4404116  67.5197983
  79.9533796  65.0146627  66.7276907  78.9062738  65.9933138  67.2143173
   9.6979213  17.1586180  15.2568352   9.9425507  17.8820169  14.6797013
   9.6148229  16.4043355  14.6734095  69.2834902  60.8531713  40.5597448
  69.3283033  60.6860113  41.5011692  69.4026995  61.7994404  40.4785633
  79.0558004  81.8138981  70.5463409  79.6875334  82.0412636  71.2285757
  79.5001650  81.1489105  70.0204468  15.8507609  25.1954079  55.2691126
  16.2011707  26.0375762  54.9789429  16.5357995  24.5632219  55.0516415
  54.4695902   4.8734426  44.5345879  53.7090874   4.7213984  43.9735651
  54.2142344   4.5177931  45.3857851   8.8035202  67.8293371  44.9958467
   7.8841788  68.0663443  44.8739004   9.2328203  68.1117344  44.1882658
  10.4418147  50.5480719   7.5400460  10.8643770  51.2409639   8.0475646
   9.8851967  51.0137892   6.9159353  40.1212645  54.5420933  56.1651182
  40.1385355  55.4975843  56.2195730  40.6774044  54.3349028  55.4141092
  11.1111653  37.6259112  24.7726703  10.9847724  38.4256434  25.2832413
  12.0413792  37.4230790  24.8716235  15.1412594  64.2162752   7.6842564
  15.0718522  65.0881577   7.2953629  15.8170152  63.7768602   7.1680212
   1.0424712  84.3295479  46.3853407   0.9709998  83.6955166  47.0988703
   1.9292127  84.2089272  46.0456753  83.2866859  31.9587469  68.7734747
  83.1726933  32.8779435  68.5319948  83.5566998  31.5295386  67.9616213
  33.9503360  26.3033915  51.7498159  34.4755816  25.5147028  51.8851662
  33.0684137  26.0541511  52.0260811  11.5248561  62.9980326  33.3211637
  11.1297619  63.8057470  32.9929471  11.6942263  63.1731844  34.2468333
  81.2205601  69.4829798  19.0528214  81.0068798  68.9073944  18.3184683
  81.6308689  68.9065123  19.6974623   3.5140368  51.2175179  44.3089914
   4.2749232  51.7766476  44.1519737   3.5025623  50.6143951  43.5657883
  87.3304749  20.6823349  53.4477806  88.2853699  20.6812978  53.5142326
  87.1189213  21.5273118  53.0509281  17.3112643  12.7436960  47.2709703
  18.1268454  12.8409886  47.7624893  17.2841918  11.8169713  47.0328951
   5.4221678  85.9167480  31.7640972   4.9548075  85.3651428  32.3914194
   6.2834805  85.5076122  31.6805649  17.3464417  58.7636185  17.6580930
  16.7916346  58.1870651  18.1834579  16.8905592  58.8358307  16.8195307
   1.5337032  68.7773466  16.2330770   1.2797339  69.2038965  15.4146719
   2.0857903  69.4208622  16.6772819  66.3840294   0.6241068  72.4150848
  65.6141758   0.9944967  72.8467894  66.2752771  -0.3228635  72.5025558
  83.2642174  57.2821808  36.1279845  83.9033985  57.9777765  36.2823319
  82.7110672  57.2875452  36.9091582  23.9753675  66.2531900  27.7292848
  23.6736631  66.6376114  28.5523462  24.6063995  65.5841160  27.9945540
  15.2223003  75.0799847  26.6562653  14.6720719  75.3491688  25.9207225
  15.9829473  74.6667767  26.2477255  74.8361540  59.3758440  24.7145605
  75.2772331  60.1726866  25.0090551  75.5255032  58.8620710  24.2937684
  17.1225870  72.6172304  37.0616770  17.9524243  73.0890656  36.9911528
  17.3401535  71.8211889  37.5466609   5.5270898  57.9220057  29.2548370
   6.0623258  57.3898029  28.6661816   5.8828139  58.8064098  29.1681552
  85.1095867  39.5148373  42.9111719  85.0284004  39.9855375  43.7406778
  86.0353661  39.2769480  42.8603888  91.7877405  37.3253059  42.1375084
  91.5161280  36.9878888  41.2839222  91.0813822  37.9168677  42.3970175
  34.1404319  20.8363223  20.1441598  34.5336509  20.8571172  19.2717052
  33.3121991  20.3721237  20.0225854  86.2452316  67.1920252  36.4938903
  86.6608047  66.9930315  37.3328972  85.5054283  66.5867233  36.4435101
  25.7251096  14.8638546  44.4834328  26.0226440  15.6871915  44.8705006
  25.3217578  15.1209497  43.6543131  45.9456301  28.2621932  37.4986339
  45.3446770  27.5326800  37.3473167  46.7692566  27.9805756  37.1004295
  38.7434649  49.1776991  55.9220505  39.1819787  48.9292765  56.7358208
  38.2421708  49.9607706  56.1495018  52.3872375  38.5767579  37.2259593
  51.5234232  38.7190485  37.6130056  52.9924679  38.6273026  37.9658055
  91.1975765  48.4885740  37.6955056  91.8084145  47.8158045  37.9963255
  90.7639790  48.7922573  38.4930038  55.2689791  19.5375574  53.9472532
  55.7907152  19.6490514  54.7419834  54.7639275  18.7393665  54.1023254
  36.3029027  14.6761489  45.9243155  35.7633519  15.4506779  45.7655096
  37.0898557  14.8206246  45.3988981  71.4793396  61.9614077  48.6149216
  71.6636276  61.3686848  49.3435860  72.2229481  61.8509817  48.0223989
  82.7546406  58.8228464  46.2866879  82.3121357  59.2795610  45.5712652
  82.4767494  59.2878294  47.0758677   5.7745856  21.5308714  62.8368330
   5.8185595  22.3795915  62.3964071   4.9500984  21.5554762  63.3224726
  58.6144400  72.3255873  20.8914304  59.5491314  72.5307894  20.9132648
  58.2041216  73.0229330  21.4028835  26.6042590   0.4604908  62.6144266
  27.0581722   1.1452482  63.1056547  26.7004585   0.7193822  61.6979361
   6.7852205  41.8441391  24.8611426   6.1866397  41.1869764  24.5060778
   6.2857139  42.2723436  25.5563903  77.3331499  52.1482563  23.4366775
  78.1122351  51.5939140  23.4810209  77.0832205  52.1366739  22.5127554
  91.3631821  75.9530783  51.5492916  91.8277740  75.3030634  51.0221624
  90.7764149  75.4376268  52.1026802  24.5333743  57.2430992  40.6838036
  24.7101760  56.3495636  40.3895903  23.7703776  57.1603537  41.2558365
  28.7718511  72.2948360  10.9104955  28.5386848  71.3668966  10.8823431
  29.7177267  72.2997761  11.0572028  13.3943129  21.2126946  53.6869335
  13.3843005  21.9927716  53.1323099  12.6213622  21.3049173  54.2439604
  64.8562813   5.8508593  27.0123625  64.4283009   6.7047966  27.0744610
  64.8551321   5.6498647  26.0765028   1.5050063  78.6217165  62.4522114
   1.6144818  77.6943254  62.2419786   1.5394069  78.6562777  63.4081697
  31.1098909  72.6681805  38.3090854  30.2167130  72.7048349  37.9668522
  31.0427833  73.0297041  39.1928434  21.6328526  56.4524651  28.9578867
  22.0295072  56.6328478  29.8101521  22.0809889  57.0455027  28.3547997
  62.9096603  70.7550335  61.0257912  63.8217402  70.9166193  60.7844830
  62.4973440  70.4542351  60.2160072   7.7044821  77.0834684  24.2001748
   7.6667851  77.8229952  24.8067307   7.0619243  77.2959089  23.5232568
  17.4413371  49.7352743  43.8187218  18.0240464  49.3512583  43.1635809
  18.0089223  49.9147415  44.5683050  18.5645723  85.2171040   4.9863708
  18.5704207  84.7815418   4.1340303  19.4622171  85.5285740   5.1023376
  26.7478776  68.0371857  16.8699586  26.5842485  67.7876997  17.7794731
  25.8831501  68.2550240  16.5220726  68.5205126  15.0472569   8.3367229
  69.1973352  15.7104862   8.4718901  68.7203598  14.6724629   7.4789214
  63.4659958  61.6612101   2.4137674  64.0440702  61.0363102   2.8514484
  63.5947371  62.4811459   2.8905934  11.5659988   6.0296255  21.3453650
  12.3796237   6.4470339  21.0624933  11.8505979   5.2710295  21.8550396
  11.2363553  76.8135977  10.4216969  11.4940763  77.0803308   9.5392787
  11.3754666  75.8666658  10.4358983   5.6835145  73.5802984  10.8775187
   6.4206356  73.4106922  11.4641333   5.2428341  72.7345037  10.7958961
  89.2327404   3.9831692  11.1728489  89.8087120   3.4726709  11.7419517
  89.6199417   4.8585069  11.1633253  49.3193007  14.6122742  44.0801954
  49.0369081  14.0951240  44.8345423  49.9944019  15.1947522  44.4283247
  74.6751976  73.0558109   7.6753342  75.0085878  73.6480427   8.3493859
  75.0861931  73.3588171   6.8657041  46.5578842  11.3209641  35.0137949
  47.0840645  10.9895134  35.7414675  45.8054924  10.7305884  34.9738765
  32.6650306   0.0108320  31.0240793  33.4844799  -0.2855986  31.4201403
  32.8755165   0.8664495  30.6501150  17.3337293  40.2210426  64.5071840
  17.2193301  40.4838657  63.5939121  17.3165154  39.2642546  64.4850254
  84.2531013  67.9666233   1.4885738  84.7210598  68.4404612   2.1761239
  84.1053963  67.0952559   1.8561770  10.4594147  84.3211079   8.7498182
  10.8994305  84.0061665   7.9602408   9.5375413  84.3861103   8.5005087
   8.2677937  58.1120110  37.4769807   8.9286530  57.4334192  37.6148415
   8.2506371  58.2404804  36.5285945  25.8859873  67.8437710  32.1330953
  25.1676059  67.2539663  32.3617625  26.6395164  67.2666454  32.0091963
  85.4036999  58.6832380  34.0636277  85.4961681  58.6716557  35.0162816
  85.6769276  59.5640373  33.8071609  73.3553267  12.3976266  52.1599007
  72.9108143  13.1846321  51.8448353  73.1070566  11.7160642  51.5353441
  24.1139364  61.6264105  60.9549713  24.4026971  62.5386000  60.9824896
  23.9641809  61.3948298  61.8715811  18.4789789  64.3127728  43.6568308
  18.5125971  65.0594282  43.0588293  18.4839106  64.7048473  44.5300341
   0.9123632  77.8996706  57.8201866   0.1302917  77.8031492  57.2767925
   0.9040269  77.1310568  58.3906221   5.9543788  80.8224297  15.4086256
   6.4069879  80.1792812  14.8629785   5.0302500  80.5806828  15.3471804
  14.7101712  67.7936792  33.2026911  14.4722998  68.6456919  32.8370023
  14.2782414  67.1587467  32.6312637  58.6994219  56.9287586  66.5789366
  57.8284359  56.7738581  66.2133980  59.0218782  56.0569048  66.8072510
   1.0584488  52.2818232  28.7419200   1.2247393  51.3669634  28.9690948
   0.3198616  52.2472191  28.1340337  73.9642906  11.4869905  68.7118673
  74.2980909  10.8147395  69.3059111  73.9384127  11.0589576  67.8560925
  36.3016295  52.6081324   7.1842128  36.7438531  53.4539890   7.1121311
  36.8766403  51.9971991   6.7233884  31.6964364  79.1054058  70.0848627
  31.3113880  79.7923231  70.6290293  31.7025900  78.3302546  70.6464100
  13.9465964  24.4218588  51.9651175  14.4062281  23.6205363  51.7144156
  13.9702821  24.9674892  51.1790133  34.4256182   0.0958807  17.3059797
  33.9113636   0.7621939  17.7618265  34.2830662  -0.7042044  17.8117216
  64.6803093  66.1911631  45.3355026  64.5915365  65.8079243  44.4628763
  65.3141928  65.6288290  45.7807064  35.2899504   8.5965103  26.7086411
  34.8054934   9.1960931  26.1411595  34.8678207   8.6821169  27.5634551
   0.5509603  78.7677622  36.7790937   1.2662792  79.2550230  37.1879077
  -0.0491179  78.5739994  37.4992275  69.3586731  80.1781940  57.8744411
  69.6395731  81.0845470  58.0003309  70.0148964  79.6575308  58.3375931
   4.6441767  19.7456765  11.1660993   5.0875843  20.3844190  11.7243361
   4.4104362  19.0311718  11.7586195  38.9619136  17.0120800  48.7760878
  38.3517456  16.8493843  49.4954300  38.6896801  17.8567970  48.4175158
  70.0853586   3.4147644  41.0610867  69.5012188   3.0813494  40.3800249
  70.4122734   4.2437112  40.7115078  38.2233095  67.5261116  16.4568853
  37.5885892  68.0561256  16.9390166  38.7305522  67.0825672  17.1367419
  21.7299533  85.9963512  36.8189788  21.4797425  85.9989643  37.7428937
  21.0472059  85.4827118  36.3873911  54.0006971  82.3444080  20.8856583
  54.2966747  83.2498741  20.7920456  54.0562820  82.1701813  21.8252254
   3.0033603  57.5803566  28.9489126   3.9578933  57.5521135  29.0144920
   2.7193901  57.9936504  29.7642517  14.1208470  37.6196861  28.1170273
  14.5619750  38.4556985  27.9662967  13.8327599  37.3407578  27.2478676
  16.4677691  14.6469069  60.1853275  16.7731667  14.0623796  59.4915771
  15.5303597  14.7464693  60.0192451  82.2360325  63.1376553  30.0545025
  81.4363384  63.5576534  30.3712511  82.4101925  63.5583878  29.2125511
  67.9155827  56.5017223  38.4670615  68.4690428  57.2810650  38.5174632
  67.6326895  56.4675426  37.5532579  79.2438507  49.4756317  67.5549078
  78.5543299  49.8976088  68.0674744  79.5877886  50.1727581  66.9963789
  26.5039587  32.5597715  27.4583197  27.2139621  32.1300769  27.9352808
  26.8085837  33.4586453  27.3339820  82.0215511  67.8596544  41.9070244
  82.7241135  68.3102226  42.3756695  82.3421574  66.9643641  41.7979574
   3.6903778  44.2675877  20.0323892   3.6690778  44.7327042  19.1960597
   4.6141705  44.0545559  20.1645136  89.9371624  70.0281715  19.5873976
  90.6859016  70.1072550  20.1784754  90.2731609  69.5332670  18.8401294
  65.7589293  18.4969306  72.0673466  65.6290007  17.7110910  71.5364933
  66.5965366  18.8515711  71.7692280  21.3582897  32.3172474  25.6716800
  22.1326900  32.7935505  25.3722286  20.8470845  32.1671104  24.8764682
  91.5399725  85.5659580   6.6972786  92.0027345  86.3602829   6.4305699
  90.6298186  85.8429813   6.8027008  48.6569405  14.2245281  52.6955271
  48.2135057  14.2258489  51.8472385  49.0974426  15.0733411  52.7368450
  74.5725965  32.3944163  29.6404004  75.0254202  31.5518379  29.6756721
  74.9089909  32.8788543  30.3943181  84.9797440  16.4978647  25.3325701
  85.3430080  16.1570668  26.1499596  85.0727654  17.4476421  25.4067445
  49.1222906  77.7682114  18.0233371  49.1220522  77.0112038  18.6091459
  48.8127613  78.4922838  18.5675287  14.6596348  79.5498180  55.4813242
  15.2465153  78.9945316  54.9680424  14.7277999  79.2099857  56.3735676
  10.0456154  74.2243242  35.1386666  10.6780994  74.0748024  35.8414030
   9.2470771  73.7901402  35.4387522  24.4631243  18.6690581   6.6436768
  24.2140675  17.8055835   6.9732410  24.7184038  19.1592264   7.4252141
  48.1437969  14.3142247  55.3016281  48.3713961  14.2788815  54.3725538
  48.9249420  13.9929247  55.7519722   7.9446447  33.6152792  16.1286521
   7.0920724  33.3230662  16.4510846   8.2103586  32.9381037  15.5065084
  83.7241554  62.8573132   7.4290210  84.6400166  62.5810003   7.3962951
  83.2683182  62.1266270   7.8468132  34.9022603  62.9808617  13.6339629
  34.2517090  63.6452818  13.4068871  35.7404304  63.4408808  13.5882914
  29.8696804  52.8577089  53.8793850  30.1694846  52.8784895  52.9705858
  30.3006029  53.6068106  54.2909431  40.4676533   3.2054058  30.0005174
  40.1423168   2.4933791  30.5513406  40.2069092   4.0029114  30.4611993
  41.3078833  81.3430214  29.2458797  40.4297495  81.6385937  29.4862056
  41.8810034  81.7337894  29.9054790  21.3197017  78.2948637  10.2162504
  20.8391047  77.5516319   9.8517466  20.9374785  79.0606689   9.7876716
  19.7922289  73.9286661  12.7275586  20.6925464  74.1848087  12.9276955
  19.4312131  73.6460257  13.5678041  90.4866028  85.0266266  53.2173634
  90.8637333  85.6832314  52.6318121  89.6252823  85.3760338  53.4459782
  20.4613376  57.9664230  38.5803509  19.6904039  57.4050426  38.4982252
  20.3694010  58.3751583  39.4409990  69.6751976  85.6387901  36.1339211
  69.6042109  86.5827751  36.2756920  69.3095589  85.2491570  36.9281030
   2.2886391  52.0321417  25.7174516   2.1417424  51.1468506  26.0504961
   2.2971478  51.9316053  24.7655845  59.5708036  63.8889170  43.1640196
  59.4881296  64.6893597  43.6823702  58.8384485  63.9253044  42.5487423
  85.7081699  76.6374350  48.5597849  86.3997841  77.1816206  48.9363003
  84.8968601  77.0039511  48.9114475  14.1232610  68.9326954  38.2962441
  13.5126114  68.2184458  38.1140804  14.7677648  68.5507154  38.8920093
   3.5834587  37.6008940   0.3652562   4.3573523  37.7415991   0.9107119
   3.1544074  36.8369913   0.7507423  90.8919811  51.4919567  31.4589930
  91.7375374  51.5771770  31.0185409  90.3846645  52.2429132  31.1508870
  24.6474147  55.4111481  26.2285280  24.8517799  55.8167315  25.3859329
  24.2487597  56.1136818  26.7420936  45.5286884  68.3499765  24.7819948
  44.6362686  68.6680460  24.9185634  45.6731415  67.7282190  25.4952812
   4.4477397  65.9608269  18.5588956   5.3949481  65.8416748  18.6283934
   4.3419078  66.8563700  18.2379055   1.5500338  52.8401661  61.8751240
   1.7997843  53.4485483  62.5706339   1.5360184  51.9827938  62.3005009
  88.3346176  38.3021164  48.2572699  88.7940311  37.5590396  48.6484241
  87.5594807  38.4204078  48.8062763   3.6078730  41.9618702  43.8926077
   4.1653100  42.4368668  44.5089483   3.0399939  41.4265251  44.4468164
  87.7043438  70.7509375  41.2785912  88.5959530  70.5785084  40.9760475
  87.1721745  70.7239676  40.4834175  47.2354698  39.7478819   3.4580901
  47.9780102  39.2057347   3.1917444  47.4616861  40.6281424   3.1577513
  73.4721661  40.7000303  26.3022113  74.3179321  40.3139544  26.0744834
  73.0243254  40.0177622  26.8023849  33.3773351  27.5221491   7.8631461
  32.8534436  28.3022952   8.0451971  33.8775301  27.3767781   8.6662054
  12.2871268  42.6212311  19.0708423  11.4675558  43.1141806  19.1099763
  12.2989428  42.2456884  18.1904674  87.5884914  24.6759343  47.9918098
  88.3345509  24.1245174  47.7560806  87.9694080  25.3865123  48.5077620
  88.1272888  22.4007154   5.1373059  87.9414749  22.8993464   4.3416494
  88.2875729  21.5087938   4.8290539   3.8823861  83.2227802  61.5995550
   4.5608082  83.0411720  62.2499371   4.3640980  83.3692646  60.7854748
  41.9453430  57.0320415   4.7978771  41.8968058  56.8175077   3.8662916
  42.5977182  56.4262342   5.1494962  90.4058552  18.3189797  53.1404781
  91.2561703  17.9070115  52.9872656  90.3255272  18.3552003  54.0936136
  11.8618619  10.3013361  61.6743946  11.5037751  10.9797633  62.2468805
  12.0700371  10.7600915  60.8604908  35.7642770  67.5300837  56.4025545
  35.2984166  68.2829571  56.7664051  35.1538491  66.7995787  56.5024424
  19.5066893  49.7447395  16.7328954  20.2160096  50.1487017  16.2329865
  18.7227762  50.2259731  16.4680851  43.2152796  10.0673556  69.9790573
  42.7459860   9.2553639  70.1705408  42.6793098  10.7533240  70.3770781
   5.8604002  15.6047404  13.4069049   6.0911000  14.6887922  13.2518280
   6.5330511  16.1030495  12.9427266  79.8343611  11.8207002  74.6409512
  79.9601507  12.0333505  73.7161875  79.1921186  12.4603236  74.9485826
  22.1221375  63.5485458  19.9835277  21.9189644  62.9788494  20.7254171
  22.2733879  62.9473066  19.2542350  83.6622810  29.2478180  17.7226353
  83.0822754  29.8432279  18.1973004  83.8732052  29.7134137  16.9133389
  19.4454134  60.1487160  25.5384803  20.2240419  60.6786680  25.3678417
  19.5719695  59.8163080  26.4271426  70.2025032  24.5169258  24.6229172
  70.3178453  25.4651380  24.6847081  69.3822145  24.4062519  24.1421819
  80.3228760  16.7169261  10.7957792  80.3100109  17.2389519  11.5979981
  80.1092625  15.8295095  11.0840368  82.2292233  49.3671179  14.1948855
  82.0311737  48.8333607  13.4253979  82.1868801  50.2693176  13.8779092
   3.3783209  36.7595363  60.7106066   2.8960690  37.4858117  61.1058187
   3.6673662  37.0971227  59.8628330   1.8625925   3.6562839  60.4215288
   2.5419000   3.6100009  61.0943079   1.5980037   2.7465174  60.2853298
  91.1487198  48.4597826   8.4434837  90.4786873  47.8718805   8.0946964
  91.3467121  49.0536880   7.7193910  34.5747304  51.9823313  20.8136797
  34.9065328  51.4407635  21.5298104  34.2236805  52.7612686  21.2452555
   8.5538733   9.0431660  29.3096972   7.6127243   8.8734621  29.2688346
   8.6290216   9.8576188  29.8069406  19.6523440  55.8789682   4.9439067
  20.0115919  56.7630911   5.0180924  18.8595259  55.9859085   4.4183260
  18.2315207  56.2007093  21.4432025  18.6242747  56.6988468  22.1600246
  18.5233307  55.3007841  21.5888691  85.8231544  10.7965147   3.2207471
  85.1554298  10.4643834   2.6206976  85.6171989  10.3847146   4.0599343
  18.0398035  45.0554848  23.8194513  18.4174168  45.9347439  23.7961006
  18.7765908  44.4840622  24.0359020  59.3612051  21.4613605  38.7099147
  58.9093256  22.2940946  38.5735655  60.2907944  21.6895318  38.7040639
  13.3910656  46.6910172  36.6777468  14.2612362  46.6860437  37.0765090
  13.4043419  45.9560299  36.0646796  13.9222217  78.8485050  32.9898691
  13.6160374  78.0080891  33.3307362  13.1393576  79.3989658  32.9712486
  55.6180954  37.4759817   2.1973725  55.5750561  37.8875470   1.3342422
  56.5544271  37.4105549   2.3850980  80.9870625  24.0135241  29.6638513
  80.5948353  24.8404670  29.3835688  80.9977627  24.0652990  30.6195903
  84.6846199  14.8815799  52.2881460  84.4462967  14.3671167  51.5169382
  84.5505047  15.7907271  52.0203876  86.8783855  26.4515662   1.8816370
  86.7936230  25.9164596   1.0925173  86.1497593  26.1754918   2.4376288
  12.4971390  71.0606861  36.6033292  12.8940034  70.4996109  37.2696066
  11.7962444  70.5277252  36.2279177  50.4184246  40.9418440  72.7860451
  50.1809692  41.8369389  72.5438690  49.8780298  40.3895140  72.2211218
   8.4941381  59.3935156   7.6575983   8.4574860  59.9110699   8.4619772
   7.6348239  58.9754677   7.6024079   8.8964778  48.2467794  35.0523138
   9.8515624  48.2199383  34.9946570   8.5959774  47.8266287  34.2464590
  26.9424462   7.6621348  69.4727516  26.1530209   7.2018981  69.1877604
  26.6424894   8.5476255  69.6780920   1.0896256  46.5753222  39.0287280
   0.5975072  45.7913113  38.7850523   1.9007771  46.2399197  39.4105291
   2.2081018  48.4371130   0.1854144   1.9152952  48.3678637   1.0940944
   1.4046598  48.5799412  -0.3148975  10.7052124  68.7975979  13.3549452
  11.4912343  68.3859110  13.7139940  10.0730836  68.7741184  14.0733421
  90.1868439  21.4216542  17.4196494  89.9709892  21.6796088  16.5234923
  89.8356342  22.1270204  17.9631066  14.2940581  57.0011377   7.1610129
  14.9633777  56.6562366   6.5700078  13.7034726  56.2629128   7.3108995
  10.3346813  67.8058624  32.7276373  10.3563738  67.9722977  33.6700082
  10.9333968  68.4537554  32.3561478  88.1933498  65.2906084  49.0546989
  88.9115620  64.8813581  49.5373058  88.4370613  66.2146807  49.0005779
  75.0484896  44.6903276  31.1965013  75.5977631  44.2183161  30.5706143
  75.6515408  45.2831650  31.6449475  54.3826818  56.4389372   1.5110049
  54.9083519  55.8956957   2.0981918  55.0132942  57.0359707   1.1083706
   1.7180726  62.9125309  15.2580285   2.0913196  63.6654234  15.7163620
   1.0310981  63.2850695  14.7052991  74.0613174  31.0517478  69.6468210
  73.6565781  30.4522872  70.2737713  73.3871126  31.7089558  69.4742966
  72.8564787   5.9678274  27.6377201  73.4654760   5.3752714  27.1970034
  73.3539438   6.3154578  28.3779335  75.3686810  48.3498716   9.5560110
  75.0948381  47.4330711   9.5292950  76.0727978  48.4084415   8.9102417
  19.1954613  25.8935332  45.1411152  18.2406867  25.9572411  45.1170349
  19.4238150  26.0627055  46.0551548  15.0514603  65.9483051  13.3766413
  15.4110324  65.3478813  14.0296590  15.7817590  66.5258169  13.1544363
   6.8864340  55.0522327  16.6249645   7.5991380  55.5574083  16.2337077
   6.3431889  54.7893810  15.8819807  55.7905531   3.3308476  71.5818834
  55.7092857   3.2871386  70.6291437  55.2138662   4.0503699  71.8386984
   6.7747408  54.7439766  25.0211287   7.2287607  53.9019299  25.0537109
   6.8351734  55.0133610  24.1046071   2.6325595  69.7484636  32.8428578
   2.2376066  68.9993954  33.2891107   1.8898036  70.3006029  32.5985456
  37.3316002  18.4537518  55.0284052  36.5156603  18.1818783  54.6082163
  38.0063248  18.2906878  54.3693256   8.0717444  59.8543787  22.1226120
   7.7578110  59.7013378  23.0138230   8.8619065  60.3829288  22.2344685
  84.2176628  53.7164259  19.1262472  85.0837994  53.9321899  18.7805915
  84.1568375  52.7647877  19.0430701  67.7710819   2.0467761  53.4066486
  68.4252357   1.9160743  54.0931129  67.8530598   1.2742311  52.8474617
  84.7060871  49.8562241  10.8148634  84.0938091  50.5910254  10.7771695
  85.5363655  50.2202988  10.5077434  86.4944839  25.8364463  72.2336292
  85.7925701  25.6769395  72.8645849  86.0516453  26.2117076  71.4725065
  50.6092739  12.7255106  68.0881119  50.1592255  12.9019296  67.2619343
  50.1919222  13.3127463  68.7183523  66.1912346  42.5582695  32.8918672
  66.2676048  41.8353558  33.5145950  65.4105616  42.3506212  32.3783898
  11.3860476  41.7314339   9.8822331  12.3106396  41.5036011   9.7850090
  11.3061547  42.0263863  10.7893443  80.5473900  58.3292866  22.6473260
  80.7243347  57.4071741  22.4612331  80.0473022  58.3172560  23.4634161
  27.0590472  70.6858397  53.4648085  26.5402412  71.3733101  53.0471277
  27.9660439  70.9733963  53.3603954  80.1971626  78.3704853  70.7073593
  79.4278765  77.8022385  70.6683683  80.1617908  78.8774824  69.8962259
  79.4499540  49.2873144  15.2211595  79.3465805  48.8709450  16.0768366
  80.3810978  49.1936111  15.0201225  86.8008423  84.3958855  58.6474037
  86.3153267  83.6654854  59.0308332  87.6893997  84.0589237  58.5327244
  77.5080013   2.0550145  13.1001496  76.6971207   1.7455082  13.5037792
  77.6473475   1.4648327  12.3595428  35.6111908  46.2123251  17.6224041
  35.9576225  47.1033144  17.5738525  36.0896206  45.8084488  18.3464336
  59.3370914  35.4265332  71.7714405  60.0315189  35.4381180  71.1127567
  58.7554550  36.1435843  71.5189171  89.3807030  68.5702896  14.6404755
  89.1696930  69.1395378  15.3805208  90.1351929  68.0614471  14.9372160
  52.2694683  16.1510825  60.9103012  52.9140759  16.1447203  61.6178846
  52.1676731  15.2299500  60.6707525  83.1632137  82.8654289  22.3903370
  83.1875420  83.3187294  23.2330489  83.0922985  81.9386196  22.6188660
  25.5065942  64.5460320  22.4963641  24.5762444  64.7446346  22.3903608
  25.7878208  64.2474461  21.6314983  21.1563253  50.2328491   8.7846363
  20.4942131  50.0574875   9.4532818  21.9307590  50.5012798   9.2790312
   9.6129137  37.7863693  34.2428541   8.7688673  37.3592496  34.3890905
  10.1436555  37.5328612  34.9980211  83.3682823  76.2287378  38.3698082
  82.9743767  77.0675325  38.1300211  83.4181976  76.2520361  39.3254209
  32.2744918  31.2839627  44.7537756  32.4536157  31.4279366  45.6829786
  32.0238185  32.1460462  44.4217968   6.4096391  48.0971813  26.7492843
   6.3303077  49.0504074  26.7853975   7.1089047  47.8913641  27.3696876
  34.5176888  13.9301646  25.3370190  35.1115513  13.8779569  24.5881295
  34.6566057  14.8081434  25.6921053  74.9331856  59.2193651  50.4454994
  74.6058846  59.3201542  49.5516586  74.6750498  58.3324623  50.6965017
   0.1580599  60.3390646  13.1891680  -0.4600029  61.0635948  13.0928135
   0.8448020  60.6843281  13.7596154  87.1478653  64.3021250  73.1261206
  87.7607250  63.6726236  72.7461720  86.7573071  64.7418880  72.3709393
  89.0856266  77.1292686   8.1706393  88.9451694  77.9291821   7.6640409
  88.7203693  76.4328814   7.6248717  72.6982689  29.6148443  71.3328600
  73.3458567  29.3517375  71.9868040  72.1037245  28.8672948  71.2702751
  83.6916161  34.5754480  29.0344596  84.3887043  35.1477051  28.7137985
  82.8838158  34.9859715  28.7259674  38.8271976  48.9339256   7.9375178
  39.6051645  48.6460447   7.4598932  38.2330894  48.1842709   7.9016590
  43.7036085  53.8041449  11.7546713  43.4737587  54.2599344  12.5643969
  42.8892422  53.3852482  11.4761674  70.7562780  80.5023193  32.1089149
  71.0645485  80.6454563  31.2140894  69.8323917  80.7516670  32.0867276
  12.3938799  78.8021660  26.4802623  12.2819483  79.4253683  25.7624006
  13.2744944  78.9756393  26.8129158  82.3107003   0.3002817  18.6694503
  81.6719673   0.7575113  18.1224728  82.8995989   0.9893877  18.9769578
   4.4808120  48.4372807   3.3634189   4.6718046  48.1074190   2.4853849
   4.9421671  47.8379154   3.9500546  13.6591339  40.4212332  20.0450706
  14.4035757  40.3800344  19.4447875  13.0393910  41.0125208  19.6178365
  82.8375626  63.4830570   2.6225081  82.8029537  62.7505922   3.2377598
  82.1346760  63.3044910   1.9977632  50.9944105  56.2752295  74.6749163
  50.6456375  57.1641254  74.6081638  51.9431686  56.3847733  74.6109724
  18.6612904  62.7865648  25.6683159  18.9648581  61.8809795  25.7314754
  19.1970289  63.2635212  26.3021374  79.2701578  40.5039358  28.6695170
  78.7600136  39.7162437  28.4810185  79.0464926  41.1090612  27.9623890
   2.3547471  38.0019021  43.0505562   2.2833987  37.6708364  43.9458418
   1.5776756  37.6620078  42.6068640  18.2686436  28.4174776  59.1335583
  17.4250221  28.0121684  59.3342066  18.8631213  28.0766034  59.8018646
  13.9275050  51.9662952  21.4138103  14.6472049  51.6000700  20.8998609
  14.3480790  52.5937605  22.0017171  63.7379646  15.9909356  26.0329247
  63.7842703  15.2440226  26.6297579  63.9449692  16.7482615  26.5804982
  50.9873438   0.8879628  31.8361568  51.1644793   1.7976308  31.5966606
  50.6951046   0.4784476  31.0218334  62.5962400  62.9250431  11.1927688
  63.2521677  63.4877348  10.7812274  62.1575499  63.4925461  11.8265867
  38.8999820   5.8641386  47.3123407  38.4304571   5.2591950  47.8866434
  39.0917253   6.6205579  47.8666830  85.0919437  37.0468640  43.9601564
  85.2010822  37.9157782  43.5737514  85.2030849  37.1872115  44.9004698
  47.7565908   6.4040893  26.1069179  47.0015812   6.1574614  25.5727243
  48.4712029   6.5071881  25.4784846  73.4880495  40.9190845  37.9645205
  72.9149437  41.6814947  37.8838372  74.1330338  41.0292816  37.2658896
   9.6455693  67.0161819  27.8596592   8.9029062  67.5514364  28.1392741
  10.1338959  67.5791883  27.2590017  26.2510371  72.4052048  21.8294287
  26.1469197  73.2863855  21.4703870  25.4953194  71.9204950  21.4975023
  31.8984413  14.7393012  74.0920353  32.3554468  15.2160418  73.3991432
  31.0103774  14.6202719  73.7552738  85.4991436  84.5251465  33.0597568
  85.5927563  83.7330437  33.5889411  85.9855366  84.3359852  32.2573423
  89.9802589  79.7034454  45.9953117  89.8090172  80.6354904  45.8604288
  89.7369099  79.2927027  45.1656675  17.2684479  21.7176437   9.2797989
  17.8895295  22.3354506   8.8940454  17.1425581  22.0321083  10.1750612
  48.6450291  80.9764004  64.0075111  48.4208012  80.9208107  64.9364138
  49.5668888  81.2339401  63.9986420  68.6008358  69.4787073  63.3662033
  68.9772749  68.6772490  63.0026150  69.3276644  69.8966217  63.8280487
  58.0139589  50.8376551   4.0649888  57.1024466  50.7311296   3.7929049
  58.0062437  50.6556559   5.0046957  36.3203096  68.6859417  17.8624153
  35.5620670  68.1531858  18.1021535  36.4171147  69.3043661  18.5865760
  78.0691242  61.1746073  50.7750702  78.2690191  62.1077967  50.7013416
  77.1727848  61.1473846  51.1098289  46.5313053  67.3046923  10.7614756
  46.1516142  66.6228104  10.2073085  47.4768639  67.2018242  10.6539011
  47.5742579  83.7939453  60.4958439  47.7465487  84.6060944  60.9722471
  48.2560539  83.7606430  59.8248196   6.3949406  69.2635441  11.9117165
   6.1064923  70.1209307  12.2246361   6.2961447  68.6865187  12.6690221
  54.7641420   0.2665679   4.5915022  54.3540001   0.8133510   3.9213976
  55.6557512   0.1257480   4.2730057  61.8742752   8.8468951  53.3747959
  61.1621571   8.9411372  54.0074396  61.8096924   7.9402244  53.0747795
  25.8944678  13.0082011  16.0924757  26.2169099  13.3956265  15.2787399
  24.9433994  12.9857600  15.9866691  16.9040966  42.2792673  14.2526984
  16.6249478  42.7386522  13.4606946  17.7584445  42.6576090  14.4604957
  60.6724644  75.5017185  11.5346050  59.9688530  76.0691547  11.2196803
  61.0994768  75.1853371  10.7384920  22.2388434  77.5411224  27.8208280
  23.1795764  77.7089548  27.8763700  21.9909263  77.2720051  28.7053299
  63.1836271  47.9580069  14.4920456  62.2886229  48.2365847  14.6859396
  63.1227970  47.5361395  13.6349821   6.0675198  78.9317608  18.2321441
   6.0591364  78.0110550  17.9704857   6.1095887  79.4149113  17.4069011
  23.3781171  57.9315710  27.2475195  22.7913642  57.6814747  26.5337920
  23.9143181  58.6349344  26.8814635  23.8081622  60.5519295  13.6269391
  24.4300270  61.2790585  13.5985851  23.4444070  60.5132389  12.7423954
  52.1970987  37.4202752  30.5977368  51.6715479  37.1650052  29.8395371
  51.5952158  37.9204559  31.1489081  22.0457649  75.2591705  68.2779503
  21.5129733  75.4613018  67.5088549  22.4467015  74.4137478  68.0761003
  61.0161877  48.7954617  28.9970517  61.5438843  48.0437946  29.2668056
  61.5506744  49.2394161  28.3386731  60.2591228   8.3773893  10.5037618
  60.9840298   9.0024829  10.5044258  59.6592712   8.7055516  11.1736238
  22.4750733  11.6465008  10.9910190  22.9369926  12.2090483  10.3694069
  21.8051362  11.2087584  10.4658556  59.0805960  68.9450312  18.6776793
  60.0349808  68.9276791  18.6063981  58.7709379  68.7951469  17.7844381
  77.6491499  81.1485577  20.3383589  77.7246904  80.5601406  19.5871675
  77.1835232  80.6353760  20.9987140  20.2861786  50.0406265   2.2163898
  19.7132230  50.3969240   1.5374172  21.1309266  50.4639578   2.0633516
  86.7855453  44.4728851  16.4658666  87.6638031  44.5494843  16.8387485
  86.2081337  44.8389292  17.1358204  44.6087646  58.5437775  24.1836476
  45.0574827  59.2894125  23.7850094  43.8730621  58.3658028  23.5977316
  59.3285942  25.4523182  72.9393864  59.8574781  24.9915528  72.2880697
  59.8004389  25.3275299  73.7628078  12.8526473  78.5056686  39.0498137
  12.3146236  78.1413507  39.7526884  13.7437892  78.4925985  39.3989968
   5.3734702  78.7847662  32.0168614   4.6507031  78.5942698  31.4189053
   5.1925933  78.2494116  32.7894592  13.8983834  43.0867767   9.5468915
  14.2005980  43.9531517   9.8194575  14.6929371  42.6338530   9.2644429
   3.5486740  57.8660202  10.6690741   3.7037736  57.0099020  11.0681224
   3.5680959  57.6981688   9.7269052  76.0887194  24.3361902  68.0582380
  75.7344532  25.2068377  67.8773928  75.7509756  23.7882781  67.3497534
  26.5841556  74.3853188  41.4475822  25.8152676  74.3623400  40.8779192
  26.2715578  74.0446186  42.2856998  34.2883039  43.3598137  22.0307755
  34.4883490  44.2809963  21.8645406  34.2281318  43.2960081  22.9839492
  10.0387955  66.1278343  16.1099160   9.3292898  66.7510223  15.9534776
  10.6087112  66.5672445  16.7410648  18.5656726  65.4417992  46.0176086
  18.6799860  64.8448896  46.7571115  19.3521726  65.9873009  46.0263252
   9.8217523  74.4806480  55.1644993   9.1599292  74.0903902  54.5936060
  10.1444614  75.2371597  54.6748209  12.8438413  79.2311668  15.0582981
  12.2876441  79.9180841  15.4257500  13.4391558  79.6945858  14.4691646
  38.5986352  30.0290108  24.6530890  38.2371736  30.4984164  25.4049110
  37.8309727  29.7200108  24.1719985  55.2928638  22.1706104  39.2911315
  54.4646263  21.7635727  39.0370154  55.4443169  21.8669057  40.1861525
  84.3373871  73.6140108  11.7595887  84.2222118  73.2629204  12.6425958
  83.4461975  73.7454891  11.4359808  50.2978373  33.8052130  73.1427240
  50.5396843  32.8959012  72.9669619  49.4719791  33.9281607  72.6746750
   9.4763136  79.8825169   7.4033821   9.7221899  80.2303314   8.2605875
   9.8423541  78.9981747   7.3897648  45.1317501  74.7743559   0.6601049
  45.4683256  74.9875641  -0.2102356  44.4845152  74.0864849   0.5047156
  68.6479139   1.4847729  16.3031459  68.1518888   1.6377048  17.1073866
  69.4512510   1.9926375  16.4169729  87.4030209   6.8047148  62.4182177
  87.0359898   6.4654094  63.2345486  88.2526684   7.1666878  62.6698351
  69.4036722  30.2369595  74.5237732  70.0076151  30.9751248  74.4425535
  68.9511013  30.2039242  73.6809683  90.8112526  22.9640889  58.9233971
  90.9389114  22.8093338  59.8593426  89.8761463  22.8167844  58.7816286
   1.5965427  38.0777836  13.4160399   1.4864933  37.3407555  14.0167999
   0.7398371  38.1785917  13.0011606  82.1189976  38.4112453  14.1486990
  81.3133240  38.8444281  13.8667738  82.1401024  38.5385370  15.0971627
  55.3575897  83.8368130  48.6156511  56.1492538  84.1689396  49.0389681
  54.8365974  83.4748173  49.3324184  23.9942336  59.7733307  44.0414095
  23.7013888  59.7353840  44.9519253  23.2589340  60.1642132  43.5694170
  51.1458969  65.1461411  68.5668707  50.3329754  65.5831861  68.8206005
  51.5280914  64.8523664  69.3938303  25.4590154  59.9775219  22.6407766
  26.1491537  60.2408075  22.0319939  25.9264207  59.7157431  23.4340215
   0.9921935  57.1101570  15.8152187   1.6592351  56.5903807  15.3667521
   1.4887212  57.7650881  16.3058853  27.5379705  57.1281576  62.2482920
  28.3829975  57.2822618  62.6706791  27.2345591  57.9998016  61.9945145
  60.5083799  49.9797440  37.8230309  61.1900043  50.3390312  37.2551155
  60.6922293  49.0408564  37.8533959  68.2435894  24.9602246  57.0341825
  68.9957619  24.9301577  56.4429426  68.1396294  25.8886838  57.2424698
  23.0822635  46.1260366  15.3037190  23.3658004  45.2468777  15.0528836
  23.7948060  46.4613628  15.8478427  69.4760990  65.3806448  54.6696568
  70.3759098  65.1244545  54.8719931  69.1234303  64.6433592  54.1714001
  56.6899252  83.1256390  33.2518435  56.6773748  83.2635403  32.3047137
  57.4627638  82.5819016  33.4044957  71.7850018  54.1532135  16.8185413
  71.8197584  54.8213243  17.5031221  71.0497665  53.5931635  17.0675564
  34.1330004  68.5165024  38.5018754  34.7530293  69.2068005  38.2667637
  33.2775974  68.8691902  38.2566643  14.0223145  67.1756124  19.8786652
  13.9258492  67.4904776  20.7774353  14.8713708  66.7337418  19.8695135
  83.5724449  61.2597704  10.1080239  82.6342201  61.3096333   9.9250615
  83.7039471  60.3736401  10.4452395  89.9490738  55.9314346  29.1961336
  90.6103516  56.5557671  28.8975525  89.1139984  56.3668633  29.0249777
  60.1498318  40.5126238  71.2229586  60.0565863  39.8555851  70.5331516
  59.7723055  40.0997257  71.9996357   5.8059669  75.0514603  24.3754196
   5.8231252  75.0979948  25.3313351   6.5675777  75.5601311  24.0971541
  11.1515498  34.6319389  24.0097880  10.3798234  34.1655684  23.6885905
  10.8826721  35.5502176  24.0362620  62.5238276  69.2294025  58.3581018
  63.1106901  69.2271519  57.6019144  62.3563242  68.3035421  58.5340405
  55.3384018   6.7899311  33.4966469  55.2304077   5.8393246  33.4663916
  55.5121994   7.0402396  32.5892472  45.7782507  79.5088768  56.5425587
  44.9171543  79.8419046  56.7952108  45.8029604  78.6184788  56.8930101
  32.8234220  78.6566925  36.9002604  31.8892050  78.4821796  36.7861819
  33.1928515  78.5669994  36.0217905  17.8697288  59.2875624  41.9742155
  18.7956250  59.3003654  41.7317677  17.4314308  58.8846016  41.2247133
  78.7277031  28.4554768  74.0851307  78.3456945  29.2342138  73.6803198
  77.9909468  27.8531003  74.1879272  13.8266647  47.1358204  29.1281438
  14.4246018  47.3079395  29.8555231  14.1586661  46.3309097  28.7304997
  47.0343876  44.0584707  16.3488114  46.3383341  43.7018538  15.7969403
  47.7555132  43.4357262  16.2571251  10.5301464  46.2818289  29.9691129
  10.9612644  45.8414507  30.7015300  11.2151694  46.8251896  29.5795774
   8.8846546  28.0072737  23.1414557   9.3375760  27.5536108  23.8522911
   9.4725013  28.7235880  22.9015350  21.2272096  45.9925842  29.1312623
  21.1778355  45.4961157  29.9481535  20.7639790  45.4501677  28.4929585
  43.6715412  45.5649471  18.1872118  43.2235050  46.3423872  18.5204983
  43.0632925  44.8460150  18.3586860  87.4412441  85.3462029  71.8699360
  87.7232552  84.6651554  71.2593079  87.5635719  86.1647129  71.3889790
  31.6664672  80.8449459  29.6757841  31.3087296  80.0080490  29.3793654
  31.1872196  81.0383797  30.4814720  55.4930973  24.7834134  10.7674730
  54.8294735  24.7861600  10.0776720  55.8876324  25.6544256  10.7237363
  73.2912111   8.8552499  63.8393641  74.0766287   8.7506121  63.3023357
  72.5759935   8.9237362  63.2069016   1.3189171  15.7193649  74.4722462
   0.9571479  16.0614431  73.6547279   2.2673717  15.7573771  74.3488741
  12.9426086  46.2187958  58.6687326  12.5400555  46.8353558  58.0571461
  13.7994111  46.0278082  58.2870960  77.6080608  55.1078367  29.3870044
  76.6669226  55.0229454  29.5395803  77.9419231  54.2126703  29.4457364
  48.0409670  72.3760557   4.7021726  47.8068161  73.1710482   4.2232242
  48.8112307  72.0389414   4.2447045  31.9081712  27.1554089  29.1355419
  31.0870838  26.8223619  29.4976544  32.3389077  26.3832211  28.7689018
  15.7571518  45.6869888  25.0585365  16.6024542  45.4199553  24.6974421
  15.4106498  46.3110495  24.4207931  82.9490185  48.5928822  16.5333188
  82.8271675  48.8039637  15.6076694  82.7614975  49.4116163  16.9923818
   7.3808467  72.4213314  24.9607658   6.8869793  72.9675388  25.5723071
   8.1007761  72.9801702  24.6681380  17.0231378  58.5025454  72.2144365
  16.0862255  58.6366749  72.3573971  17.3918426  59.3857431  72.1984959
  58.9173365  55.3643894  18.0593455  58.6640310  55.1007938  18.9439845
  58.1024313  55.3348589  17.5580549  35.0305390  43.2228088  19.0520763
  34.6953440  42.5108528  19.5970559  34.5161176  43.9867115  19.3129504
   9.1812497  44.6113873  24.2377138   9.8965144  45.0667429  23.7935567
   8.8338912  44.0105391  23.5785031  21.7485262  -0.1477736  54.0091848
  20.9956957  -0.2108877  53.4214020  21.7646051   0.7701475  54.2800856
  16.4896512  83.4940624  21.4228106  17.2878087  83.7077045  21.9060636
  15.7784915  83.7346077  22.0166302  39.3583894  46.8443108   5.8288807
  39.9395847  46.0994101   5.6753618  38.4778643  46.4914751   5.7007754
  82.5600719  59.6271658  14.0866017  82.1931171  60.1519346  13.3751249
  82.4484253  58.7212849  13.7982631  74.9135876   4.6209463  63.2673168
  75.3678703   3.8252008  62.9904652  75.1762533   5.2818906  62.6267004
  34.8402619  37.0604348  17.9814196  35.2282977  37.9149127  18.1699157
  35.0987840  36.5114284  18.7216830   9.9879140  80.1495266  39.1193700
  10.3617382  79.5015812  39.7165775  10.2854443  80.9918594  39.4631410
  17.2969508  11.9263363  60.4581261  16.9787371  11.1774325  60.9622240
  16.8811393  12.6849306  60.8678389  14.2714918  85.8424568  47.4549723
  13.9601421  86.6840839  47.1218538  15.0277364  85.6328869  46.9068813
  54.9057055   3.4250304  26.6871691  55.5241585   4.0393770  27.0825505
  54.7150326   2.7959803  27.3829913  62.5171661  36.4874291  46.4538956
  63.1760359  37.1659613  46.3065338  61.7822790  36.7419529  45.8958721
  35.8177209  74.2928982  16.3794518  35.5474448  74.7561646  15.5866313
  36.7588711  74.1578388  16.2688625  10.6754994  55.7861519   9.5472473
  10.2707291  56.5436840   9.9697804  10.2086592  55.6975317   8.7163210
   2.9576889  63.7196112  63.6161566   3.8321394  63.4392118  63.3460712
   3.1104815  64.2831326  64.3746614  20.7188249  76.9155073  48.5379648
  19.8506105  76.5401554  48.3911705  20.7842755  77.6249170  47.8986788
  84.3033123  67.1455336  33.1072450  83.8708878  66.3043594  33.2544398
  85.0884724  66.9266367  32.6054001  14.9138272  41.1021614  61.2918186
  14.5690298  41.8653345  61.7554045  14.1397607  40.6746054  60.9254169
  14.2946291  24.9263525  13.4327316  14.4029272  25.7399344  12.9401958
  15.1540148  24.5066214  13.3938408  49.4672775  30.0748515  33.3551669
  49.8595476  30.8358765  32.9271507  50.1989412  29.6461701  33.7991595
   6.9909161   9.0186346  48.5307932   6.7327702   8.5827070  49.3429232
   6.4133370   9.7797835  48.4734678  20.7268715  82.2391987  15.1114893
  20.4351473  81.4867592  15.6262338  20.2652407  82.1523190  14.2774749
  86.7504501  72.7830696  10.4984820  86.6490364  71.8410254  10.6344891
  85.9229374  73.1588840  10.7988572  26.9300127  45.3655720  29.0838790
  27.1885872  45.1808119  29.9867821  25.9803057  45.2462053  29.0775156
  20.5595541  51.6706800  31.5548277  20.0289083  52.1371984  30.9090638
  21.4528751  51.7255449  31.2154126  91.7148495  37.7527666  72.2057104
  91.5153599  37.0439553  71.5941334  91.2121105  37.5394344  72.9918194
   8.9109015  40.4928827  33.2818699   8.7035197  40.1977825  32.3952246
   9.5444083  39.8524094  33.6054349  47.7027178   3.7998652  48.4815264
  46.7972040   3.4896281  48.4867859  47.6410675   4.7140902  48.2047129
  19.7264922  28.7225461   2.4569960  20.3747487  29.3523574   2.7721679
  20.2389932  28.0694985   1.9804397  31.1228466  42.3744345  64.2421341
  30.7218957  42.8505135  64.9693298  30.5394220  42.5345373  63.5003662
  20.5112767  67.0082855  10.7689989  19.6815765  67.2990561  11.1475277
  20.5095196  66.0586357  10.8889687  26.9783616  55.2271271  20.8165002
  27.2119951  54.4385099  21.3061166  26.2899637  55.6384039  21.3391781
  83.7996006  20.0683808  61.0603285  84.7106552  19.7889948  61.1506414
  83.3412552  19.6251166  61.7742348  53.9479828  15.8992982  25.0509548
  53.3363152  15.3592098  24.5505571  54.3861341  16.4379847  24.3921137
  90.9257221  68.2098436  17.7142930  90.6317806  67.2991657  17.6921082
  91.5516663  68.2771206  16.9932544  72.6192570  49.6319532  53.0612707
  72.3752737  48.7160683  52.9276323  72.1440601  50.1082087  52.3803902
  23.4182835  65.7324123  47.6521111  23.2633495  64.8829269  47.2390747
  24.0704560  65.5539227  48.3296394  29.1651797  31.4385796  74.7875500
  28.9642334  32.0792365  74.1053438  29.0663886  30.5900049  74.3558168
  81.7768478  12.1472192  51.0856152  80.8309174  12.2600651  50.9923363
  81.9830132  11.3903284  50.5371189  75.8663654  82.7785683   4.2669076
  75.3876829  82.5903130   5.0741595  76.6935158  83.1592083   4.5621532
   4.5672697  56.0332870  36.0111666   5.4182035  55.6110430  36.1288762
   4.1962412  56.0742378  36.8925810  21.1501002  69.1403913  22.2521925
  21.3959980  69.8324823  21.6383719  20.8803272  69.6067095  23.0433965
  32.8454971  69.5489407  11.7392159  33.0592394  68.9495564  11.0241747
  31.9708753  69.2820454  12.0221233  65.6532288  24.3849254  69.4103861
  65.1246738  24.3701839  70.2082872  66.4361382  24.8803759  69.6508312
  10.0837266  40.9345865  61.2194824  10.1505029  41.3421440  60.3559589
   9.1426605  40.8745289  61.3838577  31.1742640  71.6147089   7.8686100
  32.0441437  71.2174177   7.9098696  31.3271904  72.5442362   8.0383635
  20.1008987  14.4531858  39.4771147  19.8706686  14.7062719  40.3710794
  19.4765651  14.9253428  38.9262009  12.8986681  48.5528088  24.6784544
  12.5392854  49.1480541  25.3363013  12.1428847  48.0538034  24.3685842
   8.5582483  43.7542486  14.3456447   7.7822012  43.9093590  14.8840904
   9.2935175  43.9875174  14.9123883   0.4176285  27.5445771  71.8740225
   0.5895860  28.4412456  72.1615028   0.9038573  27.4585533  71.0540152
  29.8075032  62.3579884  21.8540072  30.2348208  63.2082987  21.7510271
  30.4387522  61.7288446  21.5048146  67.1350002  25.0926328  72.2503471
  66.6843319  25.8843851  71.9566488  66.6802359  24.8425722  73.0546474
  59.8958445   6.7577726  44.2410231  59.7427082   5.8256572  44.0862846
  60.7298803   6.9386655  43.8075590  66.2219763  32.5255084  68.4714937
  65.8125639  32.8585744  69.2700434  65.5241442  32.5491858  67.8167439
  29.5550752   3.3769372  24.5428467  28.8937354   3.7187499  23.9411592
  29.0594578   3.1101489  25.3170681  22.7877998  59.8576975  46.5745735
  23.2246161  59.1780758  47.0879364  22.1188903  60.2090120  47.1622515
  68.4266615  13.1908143  65.4561090  68.6373425  13.8518119  66.1155987
  69.1475821  12.5632060  65.5072165  48.4142256  86.0929775  20.0862098
  47.4765635  86.2748718  20.1489687  48.4669399  85.2747345  19.5923233
  76.7755222  10.8375633  59.8933077  77.0315599  11.2438786  59.0653038
  76.2412691  11.5007007  60.3304005   3.7380764  36.9669771  23.0456948
   3.7037498  37.5696421  22.3028302   4.6202469  36.5968990  23.0133152
  74.0017033  27.5744271  73.0782270  73.4733629  26.8470502  73.4068823
  74.3805361  27.9692984  73.8635921  26.7987943  61.9711065  27.6279712
  26.6612053  61.0254812  27.6836491  27.7503014  62.0741940  27.6124930
  91.2074947  36.3832402  70.0608635  90.3845692  35.9529471  69.8287535
  91.7541218  36.2915969  69.2804575  88.6538696  35.6808329  69.1501665
  88.7317467  36.3477015  68.4679222  88.4024811  36.1687136  69.9343920
  20.7052898  84.6708107  47.6488638  20.8629465  84.6663475  46.7047453
  20.7316351  83.7476444  47.9004574  46.8466902  62.6757574   9.1033596
  46.6009283  61.8431330   9.5065594  47.5980282  62.9767799   9.6143478
  10.6779456  84.5214272  18.6475754  11.0369098  85.4047203  18.5628450
  11.1276639  84.0142822  17.9717171  43.5504866   9.2535752  27.7775359
  43.5498905   8.9563829  28.6874294  42.7566385   9.7824192  27.6977825
   1.9545901  67.5331068  19.8152208   1.4600527  68.0409908  19.1720116
   2.0729268  66.6766739  19.4044220  48.6476994  80.0097942  10.5435467
  48.6896896  79.4496202  11.3185811  49.4127846  79.7597027  10.0255358
  32.2170806   1.7589399   7.2065520  32.7199602   1.6114095   6.4055657
  32.7612543   2.3514006   7.7252978  32.7682090  20.1686907  28.0566621
  31.9427490  19.7386754  28.2801270  32.5809598  20.6391525  27.2443604
   7.5626189  52.4071074  28.0537724   7.4691516  52.1630955  28.9746165
   7.0284319  51.7685747  27.5813818  22.9096794  41.5384150  38.7804890
  22.5805759  41.7480469  39.6545458  22.5593710  40.6670904  38.5952711
  48.4717703   3.1075472  25.2436399  48.5158539   4.0577006  25.3508639
  49.1419935   2.7682197  25.8368421  33.6383581  38.8632941   5.6195146
  33.2940841  38.2563162   4.9643162  32.9363799  39.5013905   5.7471466
  21.4845562   3.8891014  25.2333069  21.8028975   2.9878542  25.1818895
  20.6353879   3.8186568  25.6694055   7.4567103  72.7631998  62.6054907
   6.6900587  73.1936169  62.9839373   7.5249064  73.1278563  61.7231083
  62.1640158  29.3954945  73.1628847  61.3367462  29.3484998  73.6421061
  61.9249916  29.2135930  72.2540283  47.2198534   3.8780385  35.4116344
  48.0017996   3.3350611  35.5114603  47.1761608   4.3862519  36.2215996
  44.7464609  20.0119948  24.6069384  45.4157782  19.8998117  23.9319134
  44.0297985  20.4633570  24.1609573  42.3138046   6.3847435  39.2989874
  42.4414206   5.8778495  38.4971118  41.4095736   6.2036151  39.5554852
   3.8249597  68.3629656  11.8672442   4.4127342  67.8816223  11.2849545
   3.6208734  69.1672707  11.3900900   6.6219366  78.3569050  40.1782513
   6.5290016  79.0006924  40.8804893   7.1142972  77.6385641  40.5754948
  75.2380920  48.7948783  74.9935051  74.7791124  49.4034315  74.4145132
  74.7167564  47.9928188  74.9597375  19.4190323  58.0254078  12.9239357
  19.5082462  57.4124718  12.1941507  18.5431886  57.8577566  13.2718217
  14.1954386  69.2024899  28.3008146  13.2610846  69.3853951  28.3996105
  14.2394984  68.2594490  28.1428194   9.3596029  66.2804985   8.1901497
   8.9661270  66.4885855   7.3427373  10.2251303  65.9337616   7.9736608
   2.4921119  37.6717138   6.5976691   2.0430174  36.8857503   6.2865353
   1.9800059  37.9563808   7.3546004  38.1395745  81.8777561  30.1868582
  37.9161048  81.3407707  30.9470797  37.9872870  81.3044930  29.4355893
  66.9310188  23.3515859  12.6239860  67.5781345  24.0468836  12.7424467
  66.4143562  23.6314559  11.8683648  58.4604645  42.9355907   4.7541782
  57.7530241  42.9256105   5.3988963  58.5890961  42.0150566   4.5254791
  37.1879816  81.0081673  19.5675027  36.2341166  81.0876369  19.5750380
  37.3642421  80.2973461  18.9511502  16.7022455  16.8354404  34.2547154
  17.0215058  17.7047455  34.4968128  16.3789618  16.9396675  33.3598113
  44.1120052   7.1500903  41.0142326  43.5248280   7.0460320  40.2654791
  43.8232231   6.4851624  41.6392946  85.1532173   8.1293184  66.8061876
  85.4623413   7.2826242  67.1283340  85.8342838   8.7485987  67.0686150
  31.6264033  64.6216869  22.6988244  31.8564272  65.3200912  22.0860004
  31.2313414  65.0763226  23.4427738  33.8000250  11.6275120  26.3995910
  34.1705728  12.4211752  26.0135531  33.5525727  11.0886800  25.6481528
  23.2647610  75.2805901  16.2174189  22.4520326  74.9580622  16.6068780
  23.8793111  75.3271961  16.9498050  82.9289818  85.8957100  31.0519576
  82.2522068  86.3528919  31.5511465  82.6468468  84.9810505  31.0478783
  14.6342003  73.1158113   0.3541652  15.1374876  73.5128975   1.0649793
  14.4107854  73.8486958  -0.2195942  29.4698572  62.2241974  27.6609707
  30.2938390  61.8506289  27.9735947  29.6349216  62.4324322  26.7413926
  30.3227019  66.4636612  28.7883592  29.3959618  66.3639307  28.5705471
  30.5292344  65.6918669  29.3155360   0.0180553  28.5751343  35.6973863
   0.1506265  27.9775238  34.9615049   0.7375769  28.3793592  36.2975454
  87.5211048  44.3711615  60.9806108  87.5729847  43.4300232  60.8138800
  86.8865108  44.4536686  61.6924572   7.5961322  35.6179166  73.3735275
   7.3969519  35.9867358  72.5129843   6.9158888  34.9595690  73.5152292
  26.6519117  49.5247889   6.9312972  25.9483290  50.0610971   6.5658158
  26.6914392  49.7777128   7.8536308  68.0539942   0.7657646  46.4970112
  68.4935999   1.0434894  45.6933641  68.5475206   1.1900713  47.1988869
  32.1019268  19.7758210  70.3636503  32.3038816  20.3444815  69.6206379
  32.8891778  19.2436743  70.4789114  16.0644948  49.6131611  10.9946716
  16.0215187  50.5657959  11.0775387  15.5950296  49.2846251  11.7614174
  33.1476140  71.9820261  21.9919634  33.6092734  72.0053101  22.8301525
  32.2482729  71.7469311  22.2203159  50.5369186   3.3643311  31.0633492
  49.8978424   4.0355009  30.8238840  51.3759851   3.7151945  30.7648587
  14.3899715  41.5719938  11.9969475  13.8206863  41.4756727  11.2334895
  15.1938236  41.9580889  11.6491222  21.6063857  59.6811628  33.3498573
  20.9798074  59.9701977  34.0132546  21.4817548  60.2895737  32.6214814
  22.7431417  73.4879923  20.8311653  22.9402256  73.5524797  21.7656326
  22.5528431  74.3872118  20.5639052   5.6726080  44.2221928  50.2486849
   6.3188982  44.8174906  50.6283665   5.2072215  43.8611078  51.0031796
  73.4563208  64.0157843  50.8114672  74.3017340  63.6769485  51.1059046
  73.0862808  63.3092403  50.2822256  46.3193846  48.1524849  71.2043715
  46.8231821  47.5140238  71.7091417  46.9623804  48.5603905  70.6243706
  66.4327908  43.4297991  14.4598353  66.7226553  44.2102337  14.9322104
  67.0505905  43.3462143  13.7334955  49.5593548  53.0834818  70.8874559
  49.2114592  53.9586687  71.0584641  49.3421650  52.9143190  69.9706936
  84.1183376  78.7056875  28.4931493  83.5887623  79.2341852  29.0902090
  84.7611618  79.3187952  28.1366301  17.2707629   6.7602932   2.7972934
  16.7752862   7.0088291   3.5776559  16.7293787   7.0562810   2.0654964
  38.4537697  85.6993389  22.5438404  39.2752695  85.4054070  22.1501732
  37.8854465  84.9296570  22.5149179  52.2805262  14.1876817  23.3992243
  52.5598431  13.3183825  23.6865091  51.3817739  14.2681789  23.7185979
  10.4960215  27.9339981   3.4014711  10.8645403  27.7383041   2.5400019
   9.7038996  27.3988438   3.4503123  81.4891434   3.0588153  12.2592759
  82.4239635   3.0561253  12.0535374  81.0591221   2.8848532  11.4219880
  55.6278515  41.4334393  28.6931443  55.1154089  40.6374359  28.8346195
  56.0798025  41.5782452  29.5244098  44.8389149  27.0503402  25.5006337
  45.2966881  27.0554423  26.3412571  45.4859686  27.3733926  24.8735833
  33.8886070   8.0744034  37.3138523  33.5220337   7.9633951  36.4366221
  34.4507670   7.3095345  37.4370766  87.4245834  39.2931151  71.0299397
  86.5532207  39.6888804  71.0482740  87.9936600  39.9826241  70.6879473
  30.1542163  74.1687250  40.4597855  30.6139803  74.9513769  40.1559687
  30.1305103  74.2595053  41.4123726  45.3143263  22.9260182  33.3007956
  45.3767681  22.2851300  34.0090299  44.9636412  23.7121630  33.7193918
  50.9773827  77.2032976  29.1399717  51.1466789  78.1410456  29.0494370
  51.8433046  76.7980099  29.0935755  39.3142271  71.5040731  15.6048489
  39.9136758  70.8591175  15.2294528  38.4446406  71.2077761  15.3360379
  32.9515553  75.2363682  36.3006902  33.3374619  74.5215321  36.8069696
  33.7025762  75.7013273  35.9318900  81.0923862  43.1796265  44.7485924
  80.8587360  43.8168097  45.4236031  80.7274342  42.3525858  45.0633192
   8.1306928  66.3667679  10.8458447   8.7960219  66.1788225  11.5078461
   8.5603803  66.1731482  10.0127113  20.5705714  61.8276310  34.9430561
  20.5851221  62.7833223  34.9947143  19.6664667  61.6139698  34.7124529
  39.0365553  84.8303318  53.6831188  38.6389780  85.5327511  53.1685638
  38.9933991  84.0622616  53.1135225  52.8597641  22.1236134  41.6761971
  52.7980280  21.8490815  40.7612896  52.3675823  22.9437137  41.7139101
  22.2276807  27.8581500  42.6713276  22.5030875  27.5966549  41.7926931
  21.4548397  27.3222399  42.8495073  39.7697496  11.2516141  33.8865423
  40.3947973  11.9672489  34.0023637  39.8781800  10.9842658  32.9738522
   9.5424396  74.1651440  23.8654065   9.9907750  74.9176025  23.4793615
  10.0026524  74.0093756  24.6901321  32.3322439   9.5011181   9.3188858
  31.5959096   8.9063567   9.4613689  32.2228527   9.8062521   8.4182423
   8.7789023  11.5925539  50.7111406   8.3628309  12.4472177  50.5985975
   9.5273191  11.7639232  51.2827492  36.8607593  73.6790371  27.5035501
  36.8518949  73.6428499  26.5470767  37.7593398  73.4527206  27.7434778
   4.2162186  78.6200476  26.9573808   3.6446589  77.9137516  26.6562295
   5.0682080  78.2019854  27.0821548   5.0805975  68.0427293   0.0057517
   4.1848589  68.3200244   0.1980744   5.4247023  67.7437476   0.8474360
  69.5932198  10.2384913  48.0559254  70.1207781   9.9169999  47.3247957
  68.6914349  10.0335550  47.8089094   5.2386117  57.4939203  55.6795263
   4.5524532  57.5248671  55.0128460   4.7924370  57.1857548  56.4683199
  45.0974751  70.5926800  37.2933960  44.6316242  71.1109734  37.9495883
  44.8328304  69.6897697  37.4692965  60.0598860  66.1135530  11.8144560
  59.7624683  66.1153698  10.9046376  60.6026745  66.8982935  11.8905711
  17.7532375  55.5635309  15.9370148  18.0523896  54.7289133  16.2977755
  17.7327895  56.1558056  16.6886985  28.3784342  19.3190598   5.1605916
  28.3482647  19.1705000   6.1057115  27.7826905  18.6644804   4.7961095
  91.8847341  61.0642052  34.5581985  91.0904844  61.5536785  34.7722507
  91.7601963  60.7912397  33.6492372  66.9444799   7.1330488  10.3272736
  67.6583195   7.4618858  10.8736575  67.3305559   7.0458853   9.4557357
  42.7824259  21.2127662  66.6536713  43.5585785  20.7840729  66.2930632
  43.0204535  22.1386886  66.7010069   1.0077044  64.6664667  26.8114781
   1.0664042  64.0882730  26.0508990   0.3156140  64.2835617  27.3505759
  58.8039684  12.3281014  12.8655958  58.3397007  11.5004301  12.9906738
  59.1566515  12.2730470  11.9774413  87.6534367  62.4136686  16.8975365
  87.8519440  61.4857197  16.7720687  87.1991348  62.4497366  17.7392828
  23.4455991  62.5486565  26.6226101  23.2865286  62.8504658  27.5169492
  24.1014504  63.1549168  26.2783217  60.5415678  21.2734675  30.8941960
  60.2757215  20.9404111  31.7513037  60.2677488  22.1906590  30.8981895
  36.5864754   9.8626977  21.6482258  35.7897162  10.3770018  21.5182304
  37.2340727  10.4975843  21.9544435   6.2057626  62.2196293  39.9931097
   5.9493798  61.5400553  39.3696690   6.1350060  63.0366182  39.4993925
  64.0910244  37.0642447  73.7534618  63.6701632  36.6416240  74.5021296
  63.5598946  37.8432822  73.5884285  17.2498250  50.6009197  70.1887989
  17.6120830  50.4214954  69.3211555  17.9783845  50.9828663  70.6782389
  32.3683381  71.7567253  64.1809988  32.6114511  70.8439398  64.0262318
  31.8141913  71.7280483  64.9609566  16.8143845  37.7264905  17.6345062
  16.7439210  38.6808014  17.6109791  16.3078713  37.4302101  16.8782687
  20.4122543  65.4726553  18.8083076  21.0374475  64.9664259  19.3270528
  19.7218466  64.8472786  18.5881448  80.7410812   1.6402923  17.0120871
  81.0071373   2.4556729  17.4370611  80.5922985   1.8838644  16.0984302
  44.7120905  17.2803068  38.7332511  44.2271757  18.0283916  39.0817595
  44.5745373  17.3254740  37.7870655  25.1969504  64.1610003  19.7580361
  24.2984605  64.4519281  19.6021175  25.3773355  63.5480738  19.0452862
  78.3574867  12.1266186  12.5206876  78.9207125  11.7568839  13.2006192
  78.3053493  11.4415777  11.8541801  24.2443871  71.0148811  27.2515559
  24.2431021  70.6465387  28.1350446  25.1088881  70.7976341  26.9027424
  62.2743082  13.7507725  56.9692516  62.9496002  13.3292067  56.4377451
  61.5840101  13.9754438  56.3453579  34.0555811  86.2559319  21.3791919
  34.9184799  85.9079647  21.1543417  33.6835814  86.5332794  20.5419779
  87.1805477  48.5561562  22.5165558  86.9123077  48.1284618  23.3297968
  87.7114773  47.9002142  22.0647931  70.0551414   0.7479601   1.3950296
  70.3671885  -0.1481532   1.2691730  70.8047438   1.2970936   1.1652806
  68.4886026  17.8655648  24.8339868  68.1828690  18.5580003  24.2480779
  69.3265820  17.5900185  24.4623661   5.8904755  59.7010994  38.6789274
   5.0825447  59.3566322  38.2983732   6.5732121  59.4547176  38.0549097
  14.6108496   9.0598798  45.0422001  14.3204427   8.6883777  45.8751965
  15.3347313   8.4967250  44.7681856  88.6268425  61.0556984   4.3061316
  87.8539467  61.1243439   4.8666155  88.9491272  60.1660156   4.4504789
  38.2818031  68.3019114  24.0795517  38.3691740  68.6805391  23.2047725
  38.2355142  69.0582609  24.6643758   0.8453070  50.6285238  36.3087893
   0.3894688  50.0765610  36.9442248   0.3558215  51.4510965  36.3113761
  14.9963033  19.1411364  61.9217825  15.7745934  19.2999649  62.4558878
  15.2798414  19.3219614  61.0256004  44.0413523  17.7805185  33.0803037
  43.8220263  18.6198092  32.6756835  44.9589777  17.6358783  32.8494859
  20.1171637  60.2353907  59.3168592  20.9383845  59.8952675  59.6720266
  19.9429226  59.6887016  58.5507011  16.7555892  78.2899284  29.9263716
  16.3745081  77.5113344  30.3323221  17.4721336  77.9531860  29.3884110
  51.5066910  31.2539220  13.5598350  51.6391420  31.4668751  14.4835997
  50.5864191  31.4601231  13.3960700  41.0863304  64.3265295  23.2124472
  41.0371780  63.4496069  22.8318882  41.2197065  64.9060106  22.4623513
  63.9717674   3.1519002  19.0019631  64.6425486   3.2336727  19.6798956
  63.6587191   2.2509031  19.0822101   7.6339787  81.6282749  28.6770105
   7.7574962  82.5755882  28.7367201   7.2698236  81.3801861  29.5267582
  18.5324991  71.3368368   6.6103560  19.2540216  71.1812353   6.0009086
  18.9506912  71.7097664   7.3864162  83.5093784  76.9055796   4.9531087
  82.5734329  76.8778753   4.7544345  83.9377880  76.7896414   4.1050190
  50.3233194   6.5951937  24.4234610  51.0895824   6.2222201  24.8593116
  50.6861877   7.2079849  23.7838936  24.1081285  57.9131508  35.3785229
  23.6659718  58.6722946  34.9984884  23.6537623  57.7613640  36.2072229
   2.9581618  77.7898788  74.1510344   2.7471659  77.0817471  73.5425425
   3.1885457  77.3444080  74.9663305  41.5484238  73.8525772  56.8909597
  41.6279411  73.3554268  56.0768652  41.1297607  74.6730566  56.6306353
  54.5342779  12.3414147  32.2261453  55.1913500  12.6849985  32.8314877
  54.0338707  13.1106639  31.9539690   9.2086416  13.2556689  61.1245775
   9.4458246  13.1260204  60.2063370   9.9616873  13.7078834  61.5049171
  14.3107152  79.8699903  29.2888761  14.4780862  80.7450962  29.6387506
  15.1179206  79.3850136  29.4604802  19.2641592  40.4312372  25.2552748
  18.7563825  39.6204495  25.2872038  20.1659346  40.1557255  25.4199696
  62.5828266  82.5522327  38.5151672  61.9907904  82.6599407  37.7707720
  62.8420210  83.4442711  38.7460780  65.6084728  33.8434196  70.7921410
  65.4536200  34.7267509  71.1267710  66.2174845  33.4531474  71.4190531
  62.4605799   6.8924057  38.4587169  62.6397943   6.0589576  38.8940072
  62.7350998   6.7531419  37.5523639  30.5879140  82.4761772   9.7695756
  29.8775458  81.9201088   9.4495869  30.7033801  83.1349850   9.0848339
  22.5539136  59.4498301  23.0559611  23.4150481  59.7411680  22.7562952
  22.0100331  59.4603872  22.2683620  58.1274223  66.9077444  13.7382138
  57.6029778  67.4486351  13.1477666  58.8557625  66.6007185  13.1983161
  29.4852948  79.1792727   7.3198140  30.2034760  79.8110819   7.2842461
  28.8612509  79.4888067   6.6633153  12.0129609  65.5390644  23.8067269
  12.2057688  64.9334860  23.0909562  11.0953903  65.3714514  24.0216708
   0.6359565  12.7444494  53.9706850   0.4131210  12.9119468  53.0549765
  -0.0395343  12.1381259  54.2745256  11.7663717  76.6160965  14.9550128
  12.3582804  76.2780285  14.2830110  12.0370722  77.5261068  15.0768054
  82.0070362   2.9202458  50.0311232  82.6199150   2.8997147  50.7661009
  82.5510120   3.1279615  49.2713976  34.7566891  58.0782270   7.6082015
  35.5566144  58.0979919   7.0828837  34.8508215  57.3008585   8.1587172
  74.4014597   4.0991101  60.2319098  73.4547853   4.2121962  60.1467419
  74.7666693   4.5604768  59.4769287   9.4662923  38.0390835  29.0631485
  10.2300966  38.2859325  28.5417056   9.8299706  37.7601671  29.9034905
   4.3165395  61.1951160  33.1525683   4.0774179  60.6330490  32.4155903
   4.7535798  61.9453716  32.7496552   2.3538634  61.0810518   8.3830804
   1.7698550  60.3649759   8.6328804   1.9574544  61.8603897   8.7725943
  84.1942406   9.8782986  43.7476635  83.8708210   9.0104872  43.9896059
  84.3968582  10.2998102  44.5828295  43.8289165  15.7296300  71.7996025
  44.3453693  15.2726233  71.1357832  43.9220285  16.6564739  71.5793228
  51.9046545  80.6388760  33.1990957  52.1665668  79.7300529  33.0518556
  51.2839460  80.5944252  33.9263988  12.0526934  20.3549528  47.0645189
  12.4791944  21.1804628  47.2944355  12.1492589  19.8098516  47.8453970
  44.2851448  20.7661772  31.4943528  44.7397232  21.3334703  32.1170664
  44.8312902  20.7870126  30.7085252  74.7229958   1.7488961  27.8454757
  74.6649075   0.8357090  27.5645018  75.5147982   2.0799971  27.4216175
  67.3719072  16.4762020  38.4749460  67.0840788  16.1878920  37.6087689
  66.6755867  16.1902213  39.0662026  12.8641321  85.7750166   4.3039924
  12.0458843  86.2665672   4.2326954  13.4560587  86.2043595   3.6863214
  67.1721745  16.9765413   6.4566201  67.1402740  17.9162455   6.2772614
  66.7992306  16.8873048   7.3336500  73.6490297  75.0285387  45.7952309
  72.9489994  74.7834063  46.4002943  73.9023447  74.2060661  45.3761864
  11.3157606  62.4404192  61.0322714  11.7142892  61.5836287  61.1849737
  12.0437825  63.0583763  61.0981607  79.4956207   5.2552021  41.3605499
  79.3449688   6.1583567  41.6395617  78.9712477   4.7277457  41.9630957
  72.1818113  77.0522547  53.3385754  71.2333822  76.9234324  53.3275890
  72.4917221  76.4897346  54.0483379  29.7231698  57.5883722  64.1843033
  30.0471878  58.4708977  64.0043163  30.4954624  57.1048641  64.4775820
  84.6074104  27.9045749  70.8361483  85.1677990  28.6669517  70.9809923
  84.5444012  27.4869704  71.6951370  38.1504202  76.5246058  71.2351608
  38.7446165  76.7908049  71.9368029  38.5928273  75.7880974  70.8131838
  41.9846201  72.6966953  49.6403742  41.2465048  73.2462454  49.3769073
  42.5979519  73.3026457  50.0561619  56.4930820  14.0946615   7.8941280
  57.2723007  13.9922559   7.3477191  56.7946291  13.8968885   8.7808001
  67.1960449  13.7778080  33.7255359  67.3436880  14.7227907  33.6875510
  66.5606499  13.6065316  33.0304337  79.3514872  17.9520035  17.4583268
  79.2944717  17.0261073  17.6943254  78.7935209  18.0369174  16.6852200
   9.3178713  43.6402893  50.8261824   8.6638361  44.2690659  51.1313152
   9.2196029  43.6355114  49.8740482  51.1088133  30.7068110  21.8525267
  50.8349466  30.8239508  20.9428549  50.2945423  30.5444193  22.3287868
  54.3125486   3.9597735   3.7116864  54.3967342   3.4734148   4.5318079
  54.9232960   3.5287398   3.1138304  22.4287105  51.8703699   2.4062234
  22.0642543  52.6593113   2.8074405  23.3289099  51.8313503   2.7292562
   0.5269983  78.6357355  47.0973063  -0.1955435  79.0355635  46.6132689
   0.1622465  78.4509230  47.9627752  54.1658497   6.4361560  27.6188946
  54.8995829   6.3628745  27.0085669  54.5582771   6.7678809  28.4264755
  68.9505053  10.0758994   3.0909741  69.4881773  10.5749762   2.4761057
  68.2442045  10.6750762   3.3325514  91.4462662  81.7536259  38.5862565
  91.6016102  82.4602413  39.2129803  90.9630108  82.1689415  37.8719687
  50.3729868  18.1362605  14.3322289  49.8204851  17.6509523  13.7194884
  49.9451351  18.0239940  15.1810932  70.3373814  10.2648735  23.0083132
  70.2111435  10.7516968  23.8227439  69.8668242  10.7749009  22.3490095
  51.6396475  18.1970012   2.0481087  51.2509441  17.9159141   2.8764397
  51.1156797  17.7595818   1.3770236  74.5019388   8.5012966  26.4248872
  75.4409027   8.3164454  26.4046812  74.3737268   9.0022463  27.2303939
  67.1599531  74.0910006   1.4604585  66.9813156  75.0187778   1.6139260
  67.6987934  74.0784931   0.6694297  40.1014090  71.5533876  29.0487027
  40.2863979  71.9333553  29.9075580  40.8377600  71.8273878  28.5019422
  49.8417091   6.3195044  32.5769901  49.6223021   6.4870334  33.4935188
  50.7075262   6.7112863  32.4625039  31.2922430  81.4073086   4.6389410
  30.5242968  81.9281864   4.4040495  31.5044022  80.9207535   3.8423938
  29.0392876  71.5695572  25.9976029  29.8754096  71.8986702  25.6677294
  28.7434006  70.9532022  25.3276873  28.1351447  25.1767707   6.0389602
  28.7559819  24.8301387   5.3981495  27.3041987  25.2239442   5.5661637
  45.5302525  10.0318384  38.4230638  46.3615608  10.2890301  38.0242991
  44.8646402  10.4711187  37.8937030  43.3185863  83.4355164  25.3802562
  42.8519869  82.6894283  25.7569098  43.0629826  83.4369755  24.4578147
  74.8861980  67.8257036  53.3871651  74.5340157  68.3420992  54.1121054
  74.2675591  67.1023703  53.2856369  13.0622041  19.5410812  15.0442278
  12.1996260  19.9558294  15.0310159  13.0648720  18.9694023  14.2764974
  19.4537687  59.4981718  28.3649635  19.1115928  58.9963579  29.1047812
  20.3983498  59.5333576  28.5158229  60.1429176  82.3872662  13.5212970
  59.5731783  82.0259666  14.2003334  60.3437567  81.6417599  12.9555130
  79.1950989  11.6005397  23.2398748  78.6794138  12.0493424  23.9098620
  79.5931101  12.3067963  22.7309346  63.9624453  25.3869629  12.7200282
  63.8297558  26.2324142  12.2912681  64.5564747  24.9136186  12.1375299
  34.4288421  23.0913186  21.8461299  34.3841696  22.3567867  21.2340045
  34.1772747  22.7156448  22.6898217  19.0764225  33.7311721  70.2475977
  18.5426986  34.0505171  70.9751892  18.6030400  34.0088820  69.4633675
   9.6912324   7.5767922  18.5980308   9.8375076   7.8754228  19.4956136
   8.7524617   7.6976120  18.4554005  78.2539988  81.9931030  52.7431059
  79.1890287  82.1921158  52.7915764  77.9314089  82.1402073  53.6322212
  35.9076118  77.1055889  18.6325073  35.0952864  76.6553497  18.8641214
  35.8125854  77.3073769  17.7016568  12.9265487  13.6788380  27.1595669
  13.7731671  13.5013938  26.7497087  12.5393796  14.3686163  26.6205525
  81.3830471  12.7072310  24.7661781  80.6826687  12.6496220  25.4160881
  81.6697216  11.8024290  24.6421504  75.7408142   9.9093908  54.2922783
  76.5410948   9.5047247  54.6269846  75.8898544   9.9915928  53.3503342
  71.1923790  24.5007443  28.7497592  71.6877127  25.2797055  28.4965968
  70.5646992  24.8167825  29.3996572  81.3917065  22.5334883  38.4895372
  81.2352943  22.6304126  39.4288850  81.2354469  23.4064698  38.1293774
  57.4341631  23.0869365  23.2246256  56.8453264  22.6708579  22.5950336
  58.0488873  22.3956966  23.4706569  73.0182457  23.6322045  23.6836004
  72.8558588  24.1588211  22.9009533  72.2977018  23.8522100  24.2740655
  12.0642424  14.1715610  61.3575125  12.5200784  14.3026304  60.5260897
  12.7632999  14.1310143  62.0101309  52.2927952  26.2657928  20.1602769
  52.3728561  26.9600916  20.8143187  52.1493673  26.7293644  19.3351948
  67.4759054  73.1468105  24.8431373  68.0074072  73.1664753  24.0473032
  68.0859423  72.8833961  25.5321217   6.7286450  31.2116742  73.7004757
   5.9587389  30.6981158  73.4560680   6.4201927  32.1177959  73.7061834
  16.8018246  44.6360254  63.0693007  17.2705317  44.5699215  62.2373295
  17.3119581  44.0982962  63.6749792  59.8409319  77.2936344  23.2680726
  59.3557882  77.6373005  24.0182447  60.5244637  77.9439735  23.1065798
  14.1633105  30.4352307  69.8048496  14.8223603  30.9860110  69.3823290
  14.6690464  29.8293090  70.3464413  17.0640326  77.4012804  14.0647578
  17.7538741  77.8361940  14.5659542  17.3401642  77.4876356  13.1523299
  20.8113313  76.9000435   1.6690157  21.6570497  77.0067215   1.2335712
  21.0134363  76.4153385   2.4692935  33.3595443  20.4506636   8.7133867
  33.8404632  20.5139971   7.8881967  32.4562430  20.6661081   8.4813094
  43.1778669  77.1226501  21.3880205  43.4018755  77.1560144  22.3180413
  43.5925341  77.8999567  21.0137463  46.3975000  76.1681128  20.4962826
  45.6627512  75.6985188  20.1014972  47.0358992  76.2528133  19.7881091
  24.3747330  85.1855946  49.3027782  25.2732348  84.8599529  49.2490721
  24.2188120  85.5994225  48.4538555  33.4151840  13.8980424   8.3896154
  33.0185175  13.3441377   7.7172476  32.9612517  13.6568546   9.1970837
  53.4789038  76.3277769  28.9038157  54.2480707  76.8952465  28.8528919
  53.8251638  75.4436016  28.7831163   9.3253779  68.5712433  62.9675674
   8.9639366  67.9371881  63.5868931   9.3025517  68.1210375  62.1231604
  60.1403093  72.4598312  11.7580378  60.5352640  72.3844910  10.8893812
  60.2660751  73.3774805  11.9995594  20.5288315  40.1699829  40.9923649
  20.6618786  40.1966572  40.0448322  21.1390376  40.8212757  41.3383389
  14.3683922  70.2765322  32.4893880  14.4868958  70.7503319  33.3126140
  15.0506055  70.6221724  31.9137597  79.1385221  75.3933954  58.1861925
  78.9223337  74.4838715  58.3917665  79.1910124  75.8256531  59.0386152
  59.3407679   7.6554239  13.7491143  60.2614546   7.4514812  13.5848761
  58.8778448   6.8381196  13.5648596  74.3276167   3.5421029  19.6660924
  73.6734962   3.8603374  20.2882528  75.1289177   4.0102321  19.9006152
  83.1836128  28.9806271  14.7259951  82.3046780  28.7904382  15.0539148
  83.1823635  28.6457539  13.8292837  68.9176273  55.6385756  44.4660854
  69.8712587  55.7019806  44.4132519  68.7350273  54.7023726  44.3860006
  29.3434143  57.5488520   5.9471923  29.8204350  57.0567513   6.6154152
  28.4217978  57.3575068   6.1210996  32.4796176  53.0771875   0.6833342
  32.6589346  53.9736080   0.9670681  33.0333185  52.5333452   1.2435902
  14.7422612  57.5067854  12.9029799  14.6666777  57.4957132  11.9488323
  13.8394380  57.4476528  13.2154620  12.5343025  53.7791109  19.0029085
  12.3510277  53.7609720  19.9422240  12.4436474  54.7002506  18.7589383
  74.2486382  59.3275547  14.7252560  75.1994324  59.4166517  14.7907090
  73.9395952  60.2082825  14.5130110  70.0243378   2.9222509  69.8070097
  70.1803446   2.8621343  68.8645220  69.1911697   2.4705149  69.9411631
  78.5905743  48.2429266  11.3867903  79.0188408  48.4169006  10.5486071
  79.2830610  47.8794861  11.9387007  31.3841224  74.5232582   8.1929421
  30.9037423  75.3449488   8.0914813  32.1035457  74.5872784   7.5648004
  27.9239845  18.7762570  32.9000926  27.0285511  18.7171602  33.2331681
  28.1705761  17.8702879  32.7139640  40.2189922   6.6990334  15.2986860
  40.3833866   5.9410536  15.8596432  39.9591064   7.3932874  15.9042466
  86.5809631  29.8236299   9.4175887  85.8305168  29.2990947   9.6967381
  87.3432255  29.2913508   9.6453434  82.4648666   9.9172831  61.5465355
  81.5275383   9.7335035  61.6087437  82.6367664  10.5300295  62.2615337
  37.4802804  83.7752438  59.6707106  37.5771189  84.7263432  59.6231461
  36.6281533  83.6009693  59.2710304  69.0954638  23.9770126  66.1139870
  69.8912430  23.4455442  66.1365128  68.3965778  23.3535433  65.9163046
  71.8809223  35.5451035   6.5273011  72.5721121  35.5179596   7.1889287
  72.3010063  35.9291077   5.7576907  20.2383518  35.1409364  12.0669603
  19.9750638  35.8263588  12.6810515  20.4036188  34.3760562  12.6182115
   7.4164504  16.1476684  45.2554512   7.3849207  15.6369221  46.0643864
   8.3458167  16.3386881  45.1288700  13.9891958  40.3935814  35.0252056
  13.8345826  40.5555630  34.0945673  14.5237207  39.5997667  35.0445819
  38.8509417  46.5531921  15.9348524  39.5396924  46.6401863  16.5938580
  38.7094784  47.4449587  15.6170917  36.2232208  29.0506005  13.4130418
  36.4903688  29.4704127  14.2307365  36.6728520  29.5483899  12.7302015
  30.3157496  73.2777452  73.2058430  30.7127118  72.6926994  73.8511181
  30.8592606  73.1765509  72.4244452  91.1501312  24.3350077  43.4476471
  90.9632206  25.2736616  43.4325790  91.9094658  24.2327595  42.8738976
  28.2539725  54.5319939  13.4920371  28.7467885  54.0529060  14.1582489
  27.3653984  54.1813612  13.5530663  59.7385979  78.8826752  47.3910952
  60.3966475  79.0782118  48.0581570  60.2413273  78.5412550  46.6515493
  66.6868401  33.4147668   9.7590059  66.5387487  34.2333031  10.2326107
  67.3834753  32.9774475  10.2485824  76.1706257   8.7379658  11.7371750
  76.0024786   8.9505154  12.6552069  77.0269918   9.1247267  11.5547478
   7.7546453  23.9441490  17.1061015   8.6738795  23.7253714  17.2589946
   7.7193618  24.8975968  17.1830654   5.2335256  15.4513848  20.6204200
   5.7729614  14.6790612  20.7900000   5.2574474  15.5560923  19.6692657
  76.1471415  62.7065516  14.5930588  76.9541502  63.2209969  14.5751023
  76.3213730  62.0096779  15.2257025  27.7499270  51.5984297  10.0189853
  27.1570849  52.3212814  10.2245319  27.1793127  50.8330584   9.9494404
  59.6575880  12.8014851  72.7806330  58.7710285  12.9149282  72.4380302
  59.8232889  13.5980964  73.2848024  -0.3144772  44.0080786  45.4933500
   0.0294902  43.5461998  46.2579346   0.4450065  44.1253805  44.9226856
  56.0984182  79.1198540  57.1765184  55.7844162  78.2240438  57.0534039
  56.1516476  79.4788504  56.2907839  24.5342231  70.2075195  46.9439173
  25.3934836  70.6106710  46.8199301  24.3472981  69.7801828  46.1080503
  24.1267228  52.6699924  18.6765397  24.6142888  51.8750381  18.4607732
  23.4995866  52.3925018  19.3443191  39.0305138  79.6869707  39.0357280
  38.1262350  79.5006943  38.7831187  38.9840746  79.8708153  39.9739599
  46.4055538  13.6845791  21.7423654  46.9236755  13.6695743  20.9376574
  45.4967546  13.6933005  21.4419627  57.3905039  45.2297544   8.6372954
  57.4145794  45.2678251   9.5934349  58.2405043  44.8652172   8.3906311
   1.5937786  70.6963634   1.6505557   2.2782643  71.3045835   1.3716587
   1.3447006  71.0000134   2.5234759  14.6764159  31.5143728  21.9574499
  14.3822896  31.1724710  21.1131620  15.5509269  31.1432505  22.0746279
  26.5956569  42.1520615  19.8048067  27.0840240  42.9668999  19.9221706
  26.6464376  41.7176342  20.6562328  61.8477345   0.3059879  72.9276705
  61.6929817  -0.1913361  73.7307596  61.0732937   0.8611554  72.8367615
   3.9307275  56.9170666   3.3900782   3.0455118  57.1317005   3.6842817
   4.5044026  57.4042892   3.9814675   7.4563497  59.1429615  40.9502840
   7.0226079  59.5907402  41.6766405   6.8527114  59.2407894  40.2138853
  91.1425573  43.2318640  21.2363720  92.0816849  43.1748343  21.0602522
  91.0570461  42.9932451  22.1594000  28.3893871  28.1431866  12.5299001
  27.9629207  28.3725214  11.7042112  28.3318162  28.9391899  13.0583858
  76.1235857  40.6584263  27.3453665  76.7007875  41.4204264  27.2961187
  76.6785955  39.9207854  27.0922303  62.5326395  19.1549921  72.7190542
  62.1558094  19.9835110  72.4227667  62.8214884  18.7223172  71.9155693
  18.9906669  38.3842778  11.6959178  19.1053700  37.8904128  12.5078118
  19.2793870  39.2709255  11.9120872   8.7786180  17.9016638  74.0750408
   8.5278237  18.3147812  73.2488060   9.6640408  17.5729716  73.9194155
   9.8494935  20.7500625  63.9386845   8.9778471  20.9770322  64.2626429
  10.2426863  21.5896916  63.7006664   2.7832091  17.0772278  39.4196677
   2.5377077  17.8823435  39.8754644   3.7256235  16.9966483  39.5666170
  87.6068687  34.6187472   1.1696235  87.6107788  34.2673111   2.0599663
  87.0144272  34.0421605   0.6871418  24.7033429  45.7333279  19.5233023
  24.7610378  45.3591728  20.4024577  24.5044923  44.9869680  18.9579391
  21.6801715   0.7006522  10.9570873  21.1111808   0.5178969  10.2093697
  22.2034597  -0.0942408  11.0597801  39.1785502  85.2808094  71.7445993
  38.5390568  85.9910297  71.6911077  39.5007277  85.3159332  72.6452637
  19.6476924  38.6278033   8.8766652  19.3009555  38.5252142   9.7629386
  19.1830397  39.3867469   8.5240513  50.1193857  59.9102354  65.3871679
  50.2978182  59.5506907  64.5181894  50.0073242  60.8493042  65.2394438
  19.6583045  43.2277155  14.8280287  19.7714281  42.7129221  15.6270432
  19.9628246  44.1043043  15.0627577  21.2168980  17.3998988  18.4403706
  21.4047146  16.6695356  17.8508568  20.4631305  17.8384745  18.0457604
  46.6837120  43.7139463  21.1907530  46.7818832  44.4117594  20.5429459
  45.9570026  44.0009642  21.7436981  51.3916159  20.0004339  70.1617861
  51.8330765  19.6904993  69.3710375  51.3326168  20.9488940  70.0470257
  36.4704514  74.6836996  72.7715540  36.4262104  75.0422525  73.6579609
  37.3178530  74.9768829  72.4366140  22.3475075  56.4544344  42.2855806
  21.4045238  56.6045761  42.2187138  22.4264002  55.5331469  42.5330305
  76.1679506  27.2699499   8.7270385  76.0162783  27.4753904   7.8045309
  75.4433537  27.6919508   9.1886711  10.7302845   4.6725911   3.8951561
  10.0594366   3.9975271   3.9975414  11.4930725   4.2030001   3.5577095
  61.2221622  72.6082897  23.8144875  61.5279531  73.4173822  24.2244816
  60.4799843  72.3327875  24.3525410  51.4693117  43.9108181  36.1647868
  51.1399555  44.6168232  36.7209458  51.3652515  44.2406416  35.2722526
  91.1515903  33.7380886   7.0478463  90.5686188  33.9966059   7.7616692
  90.5656338  33.5634327   6.3113809   5.7181329  45.7600832   5.4517323
   6.4391881  45.9483957   4.8510247   5.8707350  44.8582172   5.7338375
  16.7489433  23.9536405   6.8549424  17.4895346  24.4412947   7.2154284
  16.0976052  23.9541769   7.5563633  24.2304158  78.3192110  33.6724401
  23.7625575  79.0240955  33.2246876  23.6505437  77.5613642  33.5973215
  56.9326544  12.1269917  44.0955114  57.8840494  12.0277727  44.1306067
  56.7767477  12.6691556  43.3222151  82.5658703  12.5231278  59.6129894
  83.2023144  12.0826733  59.0498066  81.7363930  12.4483347  59.1411877
  85.0678062  45.0065231  14.1138601  84.1382504  45.2012682  14.2331123
  85.3219509  44.5509195  14.9163997  67.4904251  26.3574266  61.1646271
  68.0679512  25.7994509  60.6437063  67.3002911  25.8405852  61.9475412
  18.7171054  41.8239021   4.9824619  19.6511877  41.7539978   4.7853965
  18.5572112  42.7649260   5.0541335  66.9794655  30.0848699  54.7618532
  66.7011929  30.9051514  54.3544960  66.8294477  30.2191973  55.6976318
  81.2301445  61.5043402  12.6798129  81.1743546  61.6059208  11.7296541
  80.9545994  62.3523474  13.0279374  28.0186248  60.6505728   3.2667881
  28.8265181  60.2892494   3.6314574  28.1430721  61.5989923   3.3021283
   1.2928002  12.6569378  62.2455883   2.0395723  12.1880591  61.8731451
   1.2711188  13.4880960  61.7713118  84.7871208  68.3537531   7.3660022
  84.9745178  67.4235010   7.4914879  85.1306915  68.5519028   6.4948410
  83.5412407  78.3464098  11.4045691  84.2461014  78.9684963  11.2245393
  83.9551735  77.4867344  11.3280630   2.5690758  47.6600266  18.7106121
   2.9566893  46.8559885  18.3649051   3.1941819  47.9634571  19.3689454
  42.7774000  67.0313787  64.4354200  43.4243011  67.5355530  64.9289322
  42.0730400  67.6546240  64.2574406  37.8933167  75.6486416  62.6508379
  38.5997677  75.3161669  62.0971060  37.7940845  76.5638924  62.3887205
  17.7467597  25.7430816  19.8165870  18.6733592  25.5760550  19.6441114
  17.3675811  24.8743725  19.9500024  75.9749365  35.9482408  10.6334639
  76.5709496  36.5142846  10.1429605  75.8783722  36.3803029  11.4821267
   7.6682431  40.3898001  16.7828763   7.4047637  41.3087034  16.7335880
   8.2486594  40.2664423  16.0317886  49.5846844  73.9532900  64.3150806
  49.0714216  73.9343119  63.5073471  50.4872036  74.0800047  64.0224457
  83.0221462  82.1539211   4.0562728  82.2004890  82.5701046   4.3168685
  83.1736755  81.4844704   4.7234312  83.0127430  51.3589668  22.7270031
  82.3926640  51.0491323  23.3871078  83.8668060  51.0653734  23.0441737
   5.5202860  24.3514872  62.4847269   6.1506456  25.0711584  62.4538851
   4.9466574  24.5668769  63.2201099  26.3863444   1.6272852  29.1433096
  26.1288309   2.4633661  28.7548661  25.5642748   1.1480221  29.2469358
  11.0944641  52.8491783  14.4417167  11.2281692  51.9202375  14.6299469
  11.9142413  53.2673264  14.7050500  19.2452013  39.1407180  61.6325426
  19.5032787  40.0385952  61.8409824  18.3832324  39.0394187  62.0362520
  25.5998659  62.0302153  46.9339895  25.9265113  61.4105749  46.2816238
  25.6868505  61.5682220  47.7677917  83.3858109  38.4551096   9.0066499
  83.9041424  38.3359742   8.2108057  83.6966896  39.2828560   9.3732870
  45.8986998  59.2538357  14.2563879  46.4962912  59.6796322  14.8710513
  46.2877655  58.3931208  14.1013825  17.5424325  46.4760876  12.0254755
  18.3490872  46.5366745  11.5137446  17.8381991  46.4358139  12.9349434
  48.9586878  71.3673592  65.2466345  49.6878052  71.3272095  65.8655071
  48.8990688  72.2920084  65.0064135   6.7924780  51.3722944  23.7677431
   7.3488957  50.6277323  23.5391402   6.7120713  51.8699503  22.9540443
  72.5711346  69.9441671   5.9925091  73.4104395  69.8578644   5.5404550
  72.7889109  70.3667212   6.8233234   0.8370437   4.8309743  55.6644249
   0.0611227   5.3441668  55.8898401   1.1121149   4.4365898  56.4920855
  82.9837990  40.6125450  53.8345671  83.2965851  41.4447498  53.4798336
  82.0299339  40.6737423  53.7833595  76.9181490  85.1489544  17.4406207
  77.0753002  85.5068207  18.3143866  77.6519823  84.5530224  17.2903275
  85.0616264  47.6644135   6.3469523  84.7385693  47.5129890   5.4587317
  85.6199932  46.9089842   6.5307695  73.7558794  35.1561213   8.8612229
  74.5164776  35.3531623   9.4079375  73.5951281  34.2230487   9.0018070
  59.7302341  54.7589874  73.2830048  60.1398849  55.5983353  73.0734444
  60.4587269  54.1952991  73.5433578   7.1154791  31.0332012  19.6140420
   6.9794941  31.1222482  20.5573392   7.7608871  31.7070341  19.4004321
  28.3718538  37.0051050   8.6862630  28.7184978  37.7721834   9.1419649
  27.8627133  36.5413713   9.3510616  18.6879671  61.1000204  16.8504834
  18.4138048  60.4519892  17.4994230  18.0966079  60.9628725  16.1104047
  28.7296915  67.0109272   1.7723426  27.8964305  66.7142725   1.4064136
  29.3692827  66.3699102   1.4620985  17.2462666  42.8007126  20.1797080
  18.1151927  43.1691647  20.0201988  16.7556620  43.5130167  20.5897856
  24.2920327  31.7531705  37.9331207  24.1280198  31.0090303  38.5124207
  25.2455449  31.7939925  37.8597689  85.3657627  19.8984671  36.4200711
  85.4963589  20.8407331  36.5264177  84.4183636  19.7967601  36.3288927
  24.7248483  52.1408319   3.6958367  24.4175267  51.4142275   4.2378974
  25.1673198  52.7271080   4.3096235  58.0600786  39.5599747  40.8484554
  59.0135956  39.5185781  40.7755089  57.8791428  39.3262529  41.7588806
   8.5757113  19.7305071  44.1924334   8.6161816  19.0641940  44.8784494
   7.6979834  20.1038575  44.2726469  57.1164942  67.7398586  68.1691265
  57.3386383  67.8346252  69.0953588  57.8472042  68.1479263  67.7046061
  66.0136604  25.0317574  28.2824445  66.8109703  25.1778007  27.7733326
  65.9816217  25.7676816  28.8936901  14.5570099  26.6302323  73.0640984
  14.8714638  27.2826409  72.4382257  13.6072731  26.6223955  72.9450607
   6.5507060  53.6759758  18.9793885   6.5247411  54.0861273  18.1149054
   7.4835962  53.5890007  19.1753042  80.0129604  24.8000193  64.6103621
  80.4335403  25.2142596  65.3638554  79.5173502  24.0710640  64.9834824
  88.9097214  16.1365616  64.3131304  89.8227692  15.8529377  64.3593073
  88.5148144  15.5662203  63.6535883  52.1901655   2.8543222  21.3032103
  52.4748468   2.4975500  20.4618406  52.3944092   2.1662864  21.9365525
   7.9832429  40.1065445  11.3406956   8.2619232  40.2673197  10.4391861
   7.7978158  39.1679430  11.3702905   6.0894388  22.0369101  18.1034434
   6.7689949  22.7040625  18.0067921   5.5222136  22.1607900  17.3424304
   7.8758299  73.4104347  12.5133526   8.2373345  72.8926468  13.2326889
   8.5726154  73.4282589  11.8573010  20.8662605  56.2264919  62.7143574
  20.6815410  55.3460789  62.3872757  21.7938781  56.2049103  62.9495001
  13.3918202  51.9045162   8.5114139  13.9564252  51.8485260   9.2823350
  12.6638067  52.4612236   8.7876427  68.5067225  10.1470542  38.1043863
  68.1736469  11.0443616  38.0928779  68.4425020   9.8560518  37.1947551
   8.4802020  72.4001789   8.3880007   9.1514552  72.0112896   8.9487278
   7.6575470  72.0281935   8.7059605  12.4856496  66.6098976  14.3187273
  12.5979817  65.8697939  14.9152660  13.0844355  66.4269686  13.5946953
  39.5672703  32.0492625  26.8863750  38.7985039  32.4593878  26.4901114
  39.6817231  32.5086164  27.7183151   3.9330345  75.6924391   4.1457561
   3.5812077  76.3756371   4.7164473   3.1709489  75.3614283   3.6704773
  54.8819637  35.3342962  73.2145882  55.0865364  35.5123162  74.1325712
  55.3323507  34.5114470  73.0240488  64.9984884  85.4641724  60.4913902
  65.4949236  84.6485233  60.4243803  64.1366386  85.2500439  60.1341772
  69.1433716  31.5659809  61.7900419  68.3046961  31.8324137  61.4133835
  69.2142677  30.6343842  61.5818834  46.8865585  39.2473245   8.0866355
  46.5972519  39.5523930   7.2267145  47.8271532  39.1016817   7.9851222
  60.6074238  82.0737267   9.2428929  60.6885719  82.5948143  10.0417113
  61.5087223  81.8519115   9.0090287  24.2756033  33.8715291  23.5288191
  24.3705106  33.9657092  24.4766355  23.8106871  34.6621442  23.2549310
  51.9569111  80.1327610  23.9877081  52.3031235  79.8120594  24.8204875
  52.4327040  80.9479427  23.8285351   8.6220461  20.4915833  67.5324821
   8.7513196  19.7448695  66.9477272   7.6810342  20.4985332  67.7076387
  75.5678654   9.1660202  62.1386623  76.0342264   9.5409101  61.3915348
  75.9609413   8.3013105  62.2569895  30.0741673  43.1065226  22.2051001
  30.9840822  42.8095484  22.1952820  29.8232532  43.0791950  23.1284237
  82.7727413  68.4750366  11.6536558  81.9431496  68.4971237  12.1306479
  83.4158039  68.8153076  12.2756863   3.6684892  61.9681501  23.7000442
   4.3262693  62.5182676  23.2746840   3.9722440  61.0727835  23.5507822
  15.3382647  66.5096474   5.9939599  14.8338866  65.9692192   5.3858703
  15.2810371  67.3940897   5.6324148   2.5994310   2.2035475  18.6979866
   3.3896866   2.7419710  18.7407362   2.0189108   2.5771439  19.3610501
  10.7528901  55.6803846   2.6971164  10.8064973  56.6339302   2.7611995
   9.9119115  55.5158949   2.2705838   3.6559215  20.2106857  44.6113205
   3.1875148  19.4611478  44.9787760   3.1237143  20.9682727  44.8543215
  31.1901569  35.6761694   0.5581853  31.9461823  36.0556889   1.0060948
  31.5664673  35.0389075  -0.0488735  30.4631686  25.4613853  16.4420855
  30.9638286  24.8281646  15.9276903  30.2167559  26.1395526  15.8131158
  91.5666580  49.5931482  12.8047788  91.3406658  50.0474024  11.9931042
  90.8053398  49.7209501  13.3707273  24.7801065  43.1884527  36.0627198
  23.9156294  43.1581116  36.4725852  25.2757168  43.8109636  36.5947723
  24.7749877  22.1570182  25.6637073  25.6647515  22.2737718  25.9967542
  24.4215536  23.0448532  25.6083226  30.6296229  55.9109211  15.5165660
  30.0857496  56.6625643  15.2810538  31.5072060  56.1466408  15.2157044
  83.5755730   1.7987594  11.0554934  84.5037365   1.6782537  10.8549416
  83.1177139   1.2964039  10.3815198  18.9462554  49.6557236  10.4539704
  18.2147133  50.2669430  10.5405152  19.2990291  49.5773554  11.3403344
   5.7214236  77.2496891   2.5095397   6.1095154  76.9300318   1.6950241
   5.1514262  76.5372658   2.7990106   3.1134105  25.3252578   9.1068149
   2.4776869  24.6980453   9.4513315   3.0416089  25.2412987   8.1560117
   4.9809685  31.3583112  40.7158327   4.4496840  31.9326162  41.2673235
   5.8219486  31.3015127  41.1694384  41.0536242  52.3933172  23.0012083
  41.9088268  52.8094101  23.1095004  40.6123352  52.9222870  22.3366141
  39.0266347   1.2269865  38.4009027  38.9815474   2.1406677  38.6826563
  38.1128764   0.9671534  38.2835817   5.1962316  65.2011061  25.5391169
   5.6708568  64.6873951  26.1926150   5.2898043  66.1073446  25.8327270
  90.5054283  40.3316021   5.4901809  90.8542156  40.5510473   6.3541365
  90.1124477  41.1461258   5.1765752  34.3210578  81.6247654  28.3203053
  33.5026908  82.1081352  28.4337020  34.9971104  82.3017883  28.2915878
  83.1332302  74.2244864  33.8521194  83.4478092  73.3395481  34.0369296
  82.4351597  74.3688154  34.4909525  49.0908861  85.0448799  68.3879375
  48.7539196  84.5083523  69.1054535  50.0425625  84.9931431  68.4766626
  75.9264469  52.6464367   3.4635180  76.1486864  53.0865812   4.2839527
  75.7148027  53.3582306   2.8595442  65.2760029  33.9110017  49.5998287
  64.8912716  33.4484243  50.3443003  64.6252871  33.8262844  48.9029598
  55.3661537  10.1170945  19.4472730  55.0404453   9.3419904  18.9897156
  56.1667824   9.8208499  19.8802459  44.8260450  75.7744026  63.5798788
  45.5834818  76.0555506  64.0931749  44.9175072  74.8235273  63.5190868
  20.2107334  68.1257725  14.7315061  20.5147123  67.5570536  14.0241265
  20.5474067  67.7170420  15.5288923  33.9063525  40.2839947  12.9442215
  33.7988591  41.1313534  13.3762610  34.3034601  40.4946852  12.0991492
  27.3589087  47.1865606   5.6441021  26.9480848  47.9246902   6.0942382
  27.6011753  47.5342226   4.7858071  58.3555937  33.2542992   4.8899955
  59.2156935  33.2821321   4.4708481  58.3677864  33.9831328   5.5103874
  35.2108432  86.6899870  61.6388273  34.5742752  86.0437084  61.3333178
  35.7727195  86.2054185  62.2435760  73.3219051  47.9920673  73.1470728
  73.4963179  47.1645451  73.5954189  72.4120855  48.1951046  73.3644056
  85.2256012   1.6268165  48.5416412  84.6554470   2.0898303  47.9278278
  84.9699116   0.7080548  48.4596109   0.1635724  35.7790875   2.5788435
   0.7754425  36.4443016   2.2636665  -0.2608191  35.4494905   1.7867014
  26.2365198  50.3734636  21.2211704  26.8772030  49.6631718  21.1859417
  26.7203450  51.1469984  20.9317088  13.6779618  24.4238758  34.6551347
  13.4183729  25.2030492  34.1634679  14.2023790  24.7622967  35.3808665
  62.4812269  85.5598259  74.0671349  61.8221617  86.1833382  74.3722582
  62.8570700  85.9704590  73.2884502  79.1165113  71.8719530  41.6674042
  78.9220953  72.7609968  41.9641256  79.7497034  71.5401030  42.3039389
  32.1243834  75.0908041  22.3576760  32.5395346  74.8201990  23.1766105
  32.4746370  75.9655476  22.1892166  29.2526865  79.7900963  34.2750120
  29.8651624  80.3803253  34.7140217  28.7872672  79.3538284  34.9886537
  33.8166404  47.4564362   6.4212954  33.5660577  48.2710934   6.8569285
  34.1473818  46.8997765   7.1262562  56.1894131  18.9548075  65.8918047
  55.9098530  19.5270896  65.1772642  55.6786442  19.2472196  66.6466856
  72.3352718   1.6492403  65.1482773  71.9301605   1.0660638  64.5063925
  72.5412369   2.4428953  64.6543932  20.4021692  58.3684254   5.5615956
  20.1790953  59.0114546   4.8885551  20.1273823  58.7761593   6.3828605
   2.8736261   7.3853683  72.0594263   2.6626638   8.3036047  71.8904018
   3.1597513   7.3695463  72.9727268  57.9110098  74.8620224  72.2047567
  57.0363665  75.0397015  72.5506735  57.7861023  74.8005724  71.2577343
   5.8463407  52.3668528  21.2958288   6.0807073  52.8227806  20.4874778
   5.4346132  51.5542984  21.0017705  51.5401030  71.2592745  72.9801178
  52.1708536  70.5901194  72.7143908  50.8369732  70.7696533  73.4068632
   3.6118457  61.9284487  41.5082932   4.2704937  61.6848612  40.8578491
   2.9279429  62.3684883  41.0034418  39.5909548  81.4785576  65.8686256
  39.3863606  82.1695137  65.2385950  38.8580966  80.8666992  65.7994699
   3.2597610  52.3265600  55.9498787   3.7257993  51.7365456  56.5422678
   3.2671991  53.1718588  56.3989258  66.9792604  58.3801126  58.8059855
  66.1583662  58.5786486  58.3554935  66.9733477  57.4281883  58.9061499
   5.2544677   7.0708048  64.1083336   4.9587619   7.5137383  64.9036932
   4.4473857   6.7981011  63.6718893  48.5208988  67.8172493   3.9685374
  48.0836821  68.1606197   3.1893235  48.6492777  66.8874264   3.7809891
   2.5755420  65.5029678  24.0535426   3.3276421  65.6405687  23.4776592
   2.9063877  65.6979752  24.9303246  78.6202955  45.7252264   7.7192205
  78.2785177  46.6190624   7.6975071  77.8428555  45.1700163   7.6595688
  89.2743111  48.7429476  18.7894511  90.0782871  49.0527916  18.3725083
  88.9199924  49.5153189  19.2300618  21.5887833  55.0186253  16.9526803
  21.6197443  54.6458817  16.0715818  21.0321212  55.7924700  16.8659484
  17.7184296  36.4196610  24.1340709  16.8755031  36.0355520  24.3752503
  17.7697170  37.2261214  24.6471262  72.9538679   0.2916369  13.5704780
  72.1266842   0.1560137  13.1083035  72.7244473   0.2231189  14.4972467
  16.5685606  43.7834024  11.9185078  16.9028115  44.6735477  12.0287335
  16.6062820  43.6285543  10.9746695  13.5718310  49.9233341  62.8730631
  13.2838893  49.0116549  62.9195976  13.1059468  50.3583956  63.5871363
  79.9078989  10.5542648  70.1567602  80.5027771  10.0379825  70.7006359
  80.4812527  11.0088396  69.5396185  35.2475238  25.7545090  33.0614305
  34.7568727  25.0042129  33.3969116  34.6851444  26.5080285  33.2407880
  17.0081365  62.6492023  36.9354868  17.6356399  62.6342010  36.2128186
  17.4699855  63.0967188  37.6444697  22.8664613  24.5183086  15.5608964
  22.1265364  24.9981117  15.9330952  22.9114676  24.8149920  14.6519494
  69.6598625  37.2748137   6.9134718  69.5372057  37.0334601   7.8315866
  70.5700445  37.0459962   6.7252088  62.8137255  13.5104871  59.5927334
  62.2972250  14.1575909  60.0730610  62.4213886  13.4909618  58.7198544
   1.7909461  59.8893309  39.6860647   2.6853967  59.8699617  39.3457484
   1.2420669  59.6859837  38.9286923  54.9893236  81.4183235  23.3264899
  54.3364668  81.7249966  23.9557433  55.8219194  81.7465591  23.6660075
  80.9096336   2.0349075  65.7426119  81.7077732   1.5423015  65.9337711
  80.2034473   1.4922535  66.0934114  62.8156757  76.9737720  59.9571800
  62.4784851  76.2943125  59.3733406  63.5346985  76.5509224  60.4266930
  45.0505257  46.5568256  21.0591197  45.0808716  46.9790459  21.9176316
  44.3281698  45.9322262  21.1247921  43.5211611  36.5269184  72.5354004
  43.0879641  36.6454625  71.6901112  43.9459467  37.3674011  72.7067947
  26.2983799  75.2691555  12.1355236  25.6181455  74.7987270  11.6536427
  26.2386990  76.1696386  11.8164515  47.7484798  65.3604889  40.7165384
  47.9785156  66.0170794  40.0591183  48.5902166  65.0220203  41.0217524
  24.0339684  73.0130529  33.3017063  24.1538501  73.4290600  32.4480081
  24.5057154  72.1830940  33.2320642  75.0655222  34.0983510  53.3044195
  74.6461582  34.7445297  52.7362442  75.9245872  34.4727015  53.4996033
  11.2046027  11.6739309   1.8280889  11.2516904  12.6263738   1.7452183
  11.8051255  11.3453209   1.1590447  70.9666204  64.9882936  70.2204514
  70.8420229  64.7591829  71.1414337  71.5842867  65.7193518  70.2369452
   7.7572608  31.8528342   6.3967687   7.2174257  32.0627332   7.1588391
   7.5430125  32.5319290   5.7571149  53.0978394  35.2530861  13.5622001
  53.4437656  35.5033493  14.4189000  52.1575975  35.4210496  13.6251843
  89.5493317  25.2014637  35.2818871  89.8644352  24.9534774  36.1510491
  88.9833355  24.4765878  35.0164914  63.3896112   0.4561834  54.3725395
  62.5826645   0.0119303  54.1123295  63.0969286   1.1779538  54.9289751
   8.1093758  49.1190386  22.8269362   8.1692427  48.3726740  23.4232473
   8.9965004  49.2222261  22.4825597  25.1329732  15.3213704  41.3186264
  25.7432008  14.6064699  41.1375952  24.3458557  15.0957239  40.8228827
  90.7561684  19.4952166  63.3006573  89.8329258  19.4128585  63.5395575
  91.2090302  18.8822567  63.8798189   0.9024156  58.2775116  11.3785100
   1.8517141  58.2128334  11.2741983   0.7816754  58.9149666  12.0822895
   4.0041813  26.6433668  39.1439009   4.2674482  25.9526277  38.5357881
   3.7574196  26.1777282  39.9429774  15.5884039  51.1267900   4.9573952
  16.0466301  51.0715771   4.1188174  14.6793592  51.3122225   4.7218472
  12.9255807  30.1462293  43.0315781  12.4742103  30.9616780  42.8135490
  13.6933088  30.4236865  43.5314226  90.2612686  23.8277388  48.6039495
  91.1479664  23.4679842  48.5800505  89.9195004  23.5658717  49.4588470
  12.2952831  33.4252334  29.2321634  12.1117389  33.0815482  28.3578491
  12.6465261  32.6769471  29.7147918  26.6701984  18.7759984  10.7945418
  25.9583306  18.8087988  11.4336038  27.4047399  19.2065501  11.2319255
  23.0629635  81.9197273  21.8845367  22.9776478  82.2655010  22.7730155
  23.0689049  80.9691715  21.9970012  22.4916197  58.8146178   0.4930602
  23.0311132  59.3370060   1.0865937  23.1149889  58.4369628  -0.1274337
  10.3517580  74.3104792   7.2583747   9.6744579  73.7527704   7.6410735
  10.7439435  73.7730455   6.5701973  17.8328431  65.6888294  14.8366714
  18.1679547  66.3261890  15.4673123  18.5967863  65.4442644  14.3143594
  22.0973468  71.6640711  46.7726994  22.6667690  71.1802721  47.3709726
  21.6581702  72.3080540  47.3282528  78.2887840   4.0014595  24.5306230
  79.1326618   4.2842415  24.8829556  78.4522915   3.8656437  23.5973215
  50.2590036   1.5907760  17.7489603  51.1929178   1.7548801  17.8797638
  49.8544931   1.8314600  18.5824311  41.4492846  16.1119962   4.4073805
  41.0019350  15.5043912   3.8183749  42.0876217  15.5699337   4.8709789
  85.4365444  50.3831911   4.0830180  84.5115566  50.5110741   4.2934045
  85.8768082  50.3767061   4.9329340  72.7791357  85.6619453  70.9436703
  73.3107090  86.4047337  70.6574297  73.2280207  85.3320026  71.7220449
  33.1924415  43.9072132  16.9800174  33.5869980  44.6983194  16.6129982
  33.8318563  43.5957003  17.6205957  50.0814342   6.3681084  13.2134962
  50.6840324   5.7594681  13.6408925  50.4966354   6.5664703  12.3741579
  22.2741914  70.3235483  12.7610004  22.1881962  71.2497520  12.5352108
  22.1441579  70.2950239  13.7088978  73.2230997  25.1941133  73.9813852
  72.3036480  25.4266453  74.1108894  73.2896423  24.2939186  74.2998981
  65.6522751  27.8265619  65.2636623  65.3160477  28.5044050  64.6773911
  66.6024017  27.8647518  65.1539660  14.4688869  56.9390631  40.9154320
  14.2692244  56.1711168  41.4508057  13.7060273  57.5079346  41.0186958
  34.9260640  63.9477634  20.7388639  33.9752913  63.8409996  20.7094574
  35.2656460  63.2109785  20.2308679  82.8537178  56.3210011  62.0827532
  82.1425533  56.2605762  61.4449358  82.6996613  55.5915403  62.6830769
   9.9184126  31.9215488  13.6910355  10.7389998  32.3680019  13.8997209
  10.1894975  31.0695338  13.3492529  49.5156288   7.2039044  16.1977541
  49.2947578   6.6727149  15.4327142  50.2274132   6.7261803  16.6236293
   9.9584860  10.5432868  55.5353355  10.3606653   9.8512828  56.0603285
   9.1772377  10.7943881  56.0281181  63.2702589   8.4998000  27.3158145
  64.1745710   8.7963521  27.4183464  62.8848457   9.1170120  26.6939330
  32.0599246  61.1425781   7.8178483  31.7055702  61.5433359   7.0240867
  31.7836189  60.2274799   7.7680063  43.0299425   1.6798550  35.7124662
  42.8793955   2.0450638  34.8405766  42.1524858   1.5440026  36.0700202
  76.9002819  80.0653076  23.4375501  77.3240757  79.3897295  22.9081964
  77.6219511  80.5055141  23.8866019   8.9565510  25.2532387  58.2350254
   8.1555730  25.7048845  58.5008860   9.4295067  25.8957338  57.7061176
  72.1746492  12.8935242  71.4857101  72.3816872  12.8868818  72.4202251
  72.7719259  13.5418499  71.1126614   4.4682443  42.8553391  59.1476440
   4.4211581  42.9845476  58.2003736   5.3824568  42.6247263  59.3127680
  57.3914671  64.1916323  31.5875888  57.7665615  64.1394758  30.7084894
  57.7652979  63.4429502  32.0523024  28.5876918  33.1470275  18.4418404
  27.9666781  32.4370575  18.2790053  28.4901142  33.7282801  17.6876152
  64.7397947  11.4920509   5.5811375  64.1369677  11.7819250   4.8964435
  64.5202780  10.5706418   5.7191545  24.6509838  56.5385771   2.8008521
  24.2719698  56.3029957   3.6476588  25.3093863  57.2013950   3.0091998
  51.4095449  62.1793318  25.7476568  50.5094051  62.4897051  25.6494474
  51.8799686  62.5723553  25.0124955  18.2844853  73.9310789  17.9637623
  17.9210150  74.7914839  17.7544248  17.7758121  73.6332273  18.7179291
   3.9636764  45.3839636  17.6798081   3.8552612  44.6337843  17.0952487
   4.8061699  45.7630205  17.4293005  10.7095897  34.7911572  52.9944420
  10.6629777  35.7410669  53.1027603  10.3645968  34.6330833  52.1156788
  91.2550354  37.3193574  65.4576635  90.9712410  37.9824162  64.8283434
  90.5506134  36.6712713  65.4568005  70.2711391  18.4011233  69.2266941
  70.5437565  19.2911887  69.4496155  70.1845217  18.4088206  68.2734537
  13.8382351  73.3386421  20.9728599  13.1033134  73.0222845  20.4474664
  13.6389029  73.0482531  21.8629003  21.7946410  57.4818563  24.9878216
  21.7657900  56.6887760  24.4526315  22.2114873  58.1350231  24.4258213
  78.8783264  36.3778162  47.1963644  78.0488300  36.8239617  47.0257092
  79.1144991  35.9821343  46.3573790  28.6154294   9.3689948  24.2312670
  29.0559363   9.0954161  25.0358438  29.0900135  10.1522338  23.9528108
   4.8567274  51.4410925  18.7909698   4.8321849  51.0646439  17.9112446
   5.4294932  52.2036505  18.7092841  52.4739552  44.7216129  26.8803525
  53.3082390  44.5774078  27.3268962  51.8322659  44.7885752  27.5874472
  51.6848993  84.8130417  20.7518792  51.6690397  85.4625797  20.0489688
  50.9325171  85.0352097  21.3003206  36.8562961  49.7156572  13.2497180
  36.4610052  49.6541119  12.3801267  37.7981687  49.7506428  13.0827343
   3.7531453  66.8063688  36.4167404   4.0045986  66.4073849  35.5837846
   3.1230339  67.4856472  36.1763883  10.1990700  72.5883865  11.0409784
  10.7912648  73.1290627  10.5182874  10.5353510  71.6979647  10.9395289
  52.1855974   4.9922988   7.5762379  52.4788332   4.7961858   8.4660608
  51.6186714   5.7573229   7.6740253  22.3859525  81.1713028   6.6409421
  23.2428122  80.7451153   6.6605890  22.0783639  81.0494137   5.7427406
  14.5177913  54.0081596   2.1796383  15.1336777  53.2817602   2.0834093
  14.1575372  53.9016962   3.0600441  41.8969393  50.0751257  14.8661232
  41.7522049  50.9079266  15.3152645  41.3544321  49.4478083  15.3440309
  23.0809617  72.1059704  17.2169650  22.7865386  72.6005268  17.9817915
  23.6715603  72.7034473  16.7582190  10.1462257  51.3632774  31.3960242
  10.4477429  50.7515621  32.0676827  10.9013379  51.4764214  30.8187580
  85.6518936  53.0589342  67.4805450  86.5127945  52.9929686  67.0673609
  85.5654049  53.9848375  67.7073860  42.2849512  69.8760271  16.5280652
  43.0395889  69.6504641  15.9841239  41.5402079  69.4696474  16.0848439
  66.5462780   2.2176757  42.6603699  65.9389639   2.2844440  43.3972168
  67.3996639   2.0656079  43.0663776  75.0343323  11.0606647  35.4117155
  75.0375223  11.6362000  36.1765552  74.8782206  11.6470051  34.6713996
   1.4968199  23.2452011  50.0836229   2.2767594  23.0688572  49.5574808
   1.7126437  24.0388513  50.5732870  89.0089893   2.6461726  64.2480373
  89.8837471   2.2805406  64.3797302  89.0804768   3.1528640  63.4390974
  30.9246564  61.8312597  11.7693043  30.0924158  62.0579290  12.1843076
  31.5907168  62.1671057  12.3691416  85.8918476   3.5138291  50.4498053
  86.6224384   3.1454635  50.9465742  85.7031441   2.8574774  49.7791147
  53.0721760   6.3102937  20.2036142  53.1821489   6.4882988  21.1376667
  52.1625280   6.0243976  20.1197505  33.8795924  64.6958160   3.1476319
  34.4676328  63.9614248   2.9712552  33.0234909  64.2898321   3.2836422
  84.7244740   2.6280817   2.8233159  85.2700424   2.2816029   3.5293892
  83.8415051   2.3221892   3.0307609  36.0076809  33.2107043  14.2117667
  36.1251235  33.6926126  15.0304258  36.7440605  32.5997233  14.1857409
  82.5585651  23.2820153  71.3707829  82.6877117  22.3337483  71.3522053
  82.3143768  23.4727859  72.2764349  14.9498379  81.0229588  26.1098361
  14.3583834  80.7445431  25.4106236  15.5369961  80.2778912  26.2377214
  77.4553823  81.5024471  36.1605930  76.6305685  81.9676399  36.0208917
  77.7114248  81.7318726  37.0539212  69.7374249  47.1336555  21.7610979
  69.1082668  47.8532600  21.8117118  69.5737839  46.7320108  20.9077907
  30.7889128  55.1904869  21.2624335  30.8371592  56.1458683  21.2963748
  30.3630161  55.0017357  20.4262424  40.4515123  68.3853245  15.0797272
  40.3609467  67.8852272  14.2685962  39.6045971  68.2902670  15.5155361
  56.4902544  41.8931293  31.4064932  56.7719698  42.8070116  31.4475751
  57.2905064  41.3889647  31.5536141  40.7480335  69.0836287  18.8729119
  41.2905693  68.6945486  18.1869781  41.3757944  69.4415569  19.5006382
  86.7334557  17.3950446  58.9616346  86.0510445  16.9212723  58.4861612
  86.4712429  17.3347425  59.8802376   9.8566097  58.6509228  13.0953014
   9.4742388  57.9535055  13.6278725   9.2177087  59.3624210  13.1378376
  43.1675196  61.0215569  22.5207663  43.0108738  60.0958014  22.3345542
  44.1175556  61.0892963  22.6160026  17.7906883  69.6683025   1.8509129
  17.1423709  70.2854872   2.1900280  17.8131211  68.9642811   2.4990514
  21.1840367  27.4202323  67.7386045  21.4105010  26.5210724  67.9762125
  21.7646766  27.6279902  67.0065355  39.1042519  16.0130036  16.9724166
  38.3203816  16.4764977  16.6775417  38.9516020  15.8526623  17.9036641
  29.5789409  57.9939508  10.0927305  29.2627931  58.8930225  10.0035417
  30.1600051  58.0186939  10.8529842  12.6288426  76.2882662  66.2119055
  12.8132904  75.3526831  66.1288643  11.7453802  76.3905573  65.8579826
  13.3085227  55.5096912  10.3203690  12.4097157  55.4479313   9.9970055
  13.4906662  56.4491129  10.3436518  43.2757521  85.0327396   5.0234282
  42.9705238  84.2382240   5.4614055  42.5918913  85.6796360   5.1968837
  78.4251451  14.2540848  55.3457308  77.5437117  13.8959944  55.2404833
  78.3312654  14.9273312  56.0196447  19.9537539  67.5573444  29.9137783
  19.2454767  66.9874620  29.6140957  19.6064520  68.4437227  29.8140502
  21.4676785  78.5512877  66.2404156  20.7803321  78.5846567  65.5750799
  21.8276310  79.4380665  66.2576056  25.1552606   6.7904323  66.1447239
  26.0839796   6.9781864  66.2805891  25.1431918   6.1311567  65.4508638
   1.6985102  37.7170110  29.1418672   1.7986493  38.3754396  28.4543538
   2.5012261  37.7863526  29.6586561  17.9492676  29.8098969  65.8326483
  16.9946337  29.8753548  65.8575773  18.1409919  28.9559698  66.2203169
   5.9564126  26.1369324  66.3052559   6.6842991  26.5133929  65.8105898
   6.2783897  25.2823877  66.5921640  83.6226559  74.5536947   7.6719433
  84.4020367  74.6467495   8.2197964  83.9553165  74.5848179   6.7749470
  43.6077213  57.4949503  69.2185068  42.9324055  57.8279543  68.6275053
  43.3741474  56.5769339  69.3560600  28.7755728  69.8429298  23.9037299
  29.3853903  70.3164005  23.3378863  27.9575300  69.8190212  23.4072757
  21.5418506  48.4120417  14.3549299  21.5857196  49.2362595  14.8396719
  22.2042513  47.8567648  14.7661757  18.3510602  55.9305811  25.7888198
  18.6696494  56.4458561  25.0477242  17.6526582  56.4637041  26.1686158
   9.1859072  59.2193222  44.7768164   9.7280347  58.9792776  44.0253448
   9.7672558  59.7335386  45.3370380  55.1307535  12.9616094  24.7513962
  54.5000601  12.5098169  24.1907334  54.5950079  13.3827817  25.4235768
  72.1484613  16.1657441  64.8498774  72.6319075  16.3607144  65.6526852
  72.0978594  17.0043206  64.3911171  23.8212204  63.9997578  32.2276545
  23.9628148  63.2758093  32.8376389  24.6614909  64.1047716  31.7813897
   9.8096609  39.9835300  71.4925575  10.4791307  40.6676626  71.4950037
   9.7413337  39.7120094  72.4078941  68.0333851   0.3198416  32.7266359
  68.3990906  -0.4823702  32.3538899  68.3104275   1.0112555  32.1254539
  71.0617399  27.1964240  66.9426727  72.0153809  27.1153879  66.9576979
  70.8961344  28.1155801  67.1523428  20.3863502  30.9322667  55.6187630
  20.1711392  30.0709295  55.2609777  19.5830715  31.4423299  55.5147934
  78.0431271  36.9606185  73.1956148  77.8073645  36.0579824  73.4098530
  78.9215040  36.8962121  72.8207397  41.1903238  63.9508629  65.6348515
  41.2854290  64.4882154  64.8484468  42.0563316  63.9672041  66.0422802
  76.5477133  24.5989299   9.6190935  76.2620831  24.5422626  10.5309248
  76.4733553  25.5282450   9.4021249  82.7665806  41.7639589  71.9614792
  82.2774792  41.7656898  72.7842855  82.1101570  41.9574833  71.2922382
  70.5245256  40.2028656   9.1302961  70.9635019  40.9366560   9.5605105
  71.1698675  39.4960666   9.1444498  39.4847369  17.7640200  67.8113747
  40.1340914  18.4265840  68.0471230  39.8224401  16.9523203  68.1899691
  32.3070121  85.6400394   3.3218142  31.5202641  85.4018211   2.8314006
  33.0225372  85.2176285   2.8466064  39.1123605  42.5919342  14.4977772
  39.4582009  41.7243481  14.7073388  38.3129692  42.4175358  14.0009975
   7.0564634  33.0450273  63.5633850   7.2885454  32.1218586  63.4627438
   6.2783474  33.1572795  63.0173397  36.3783145  44.7090054  24.3432975
  36.5176344  45.4690886  24.9081826  35.4963636  44.4072962  24.5609283
  28.2184553  70.2452421  12.8716123  28.2887268  71.1377859  13.2102287
  27.8075147  69.7515106  13.5812497  40.8798742  14.8680663  27.0176721
  40.0767183  14.3527198  27.0924544  41.5732193  14.2741132  27.3052979
  20.1086879  32.8385663  21.4069176  20.0069594  32.6542139  20.4731631
  19.9667013  31.9940972  21.8346357  74.1268253  50.5337095  73.0118752
  73.4334850  51.0886192  73.3690786  73.7136507  49.6778727  72.8975916
  21.0321951  77.3346472  30.5306911  20.9465480  77.9533291  31.2560391
  20.5133772  76.5766335  30.7999039  54.0431976  70.5101204  69.2846107
  53.2463217  71.0297108  69.1785526  54.1794252  70.1031733  68.4290028
  14.1658437  44.5604277  34.4359636  14.8910308  45.1822138  34.4969249
  13.8923693  44.6005154  33.5195374  12.5187087  63.8403893  21.6937089
  12.8075480  63.3593273  22.4691963  12.7115440  63.2537556  20.9623384
  32.2031498  67.4163198  22.0983553  32.3711038  68.1593180  21.5187192
  31.4568877  67.6917887  22.6307511  24.1405559  52.5373793  15.8407819
  24.7505403  51.8375778  15.6074822  24.1153479  52.5240469  16.7975569
  38.4111428  28.1816387  59.7012758  38.6054921  28.4884262  60.5869055
  38.6306381  27.2500753  59.7169399  76.9505501  40.5092812  57.0033407
  76.8874931  41.2005520  56.3442469  77.8907490  40.3637218  57.1085644
  83.4684372  10.0855660  39.0704894  83.4950638   9.1908896  39.4097185
  82.8974342  10.5553102  39.6783781  87.3772526  11.2144351  44.5881271
  88.1861019  11.1820114  45.0989485  87.2039890  10.3021753  44.3557549
  41.6263056  76.3839674  12.5362480  42.1098423  76.0834789  11.7667484
  41.6661930  77.3390293  12.4862969  24.6933198  20.3739095  57.8128529
  24.4295716  19.7476530  58.4869957  24.4399810  21.2267756  58.1659412
  53.6664772  75.5114651  71.7984629  54.2368650  75.6200314  72.5594473
  54.2664862  75.4647970  71.0541201  91.6784601  34.4645166  10.9238064
  91.6266269  33.6405945  10.4393506  91.0656783  35.0459933  10.4736769
  28.5012102  51.5989399  28.6846471  28.5608792  50.6437874  28.6657763
  27.6039934  51.7883396  28.4101224  40.6835270  85.6099606  64.7126865
  40.4106379  86.0463810  65.5197191  39.8785830  85.5266857  64.2014551
  49.5638180  43.9362717  10.3266013  49.6395111  43.1093121   9.8505354
  48.6753416  43.9272213  10.6826341  22.7699375  43.0033684  23.8955975
  22.5094604  43.7387896  24.4501591  21.9924307  42.8116512  23.3712292
  20.0114655  55.9615850  11.4789486  19.3458462  55.2967691  11.6556001
  20.8286619  55.5702782  11.7876601  88.7943554  32.1910667  48.7450552
  89.4196892  31.4906645  48.9311314  88.8580894  32.3240376  47.7992821
   2.5952154  42.5736713  47.9688454   1.6387650  42.5427532  47.9469585
   2.8143415  42.5507164  48.9003468   3.6790666  28.0408096  60.0084591
   2.8017050  28.0622673  59.6263504   3.9527839  27.1270585  59.9286556
  12.2152972  74.2070007  10.1633060  12.6393580  73.6754990   9.4895780
  12.9400229  74.5969534  10.6521225  55.3470325   1.6815948  28.6092067
  56.2965059   1.7000423  28.4892702  55.1448059   0.7614037  28.7782764
  74.2837048  47.1058273  49.9819326  73.3532286  47.3219156  50.0431728
  74.6240234  47.2605610  50.8631086   8.4534109  24.0048552   8.3950061
   9.3812907  23.9859581   8.6293435   8.1347114  23.1277251   8.6078525
  81.0688305  27.1692848  73.0203772  80.1924801  27.4733639  73.2565451
  80.9627819  26.7858720  72.1497583  77.6961756  25.0632238  15.8557093
  77.5348473  25.7552361  15.2143633  77.6176500  25.4997540  16.7039466
  36.0111070  56.3690138  14.8157012  35.8744121  55.6279898  15.4059803
  36.9548726  56.3771772  14.6561110  13.0879521  54.4172001   6.7575890
  12.1773005  54.1407681   6.6549855  13.5347068  53.6455822   7.1057963
  61.8438864   7.4381512  12.9572546  62.2728109   8.0954778  13.5051382
  61.9698763   7.7531844  12.0622063  85.0959969  29.2503166  25.6286597
  85.7667637  29.7810626  26.0583234  85.4721546  28.3707976  25.5942702
   2.5676677  52.0921087   0.3407411   3.2907435  51.8010426  -0.2148425
   2.8690162  51.9241095   1.2335998   4.3445960  36.2689853  73.7797594
   4.6919733  37.1607327  73.7611485   3.7252554  36.2379384  73.0505943
  27.3424959  28.2947302   3.8212729  28.0511761  28.0191875   3.2398281
  27.7629256  28.4098077   4.6734631  41.5470266   2.7994785   1.5562047
  40.9311342   3.5320252   1.5729542  41.0190678   2.0371951   1.7937168
  53.4946775   5.1186186  40.6989384  53.7418365   4.3844262  40.1367044
  52.5563622   5.2313608  40.5469990  40.4984903  75.1185369  17.8464067
  39.9189663  74.9102020  17.1136177  41.3593531  74.8069143  17.5670540
  38.6166358  55.4512215  11.6915023  38.4646297  56.3425541  12.0055819
  38.5393810  55.5162382  10.7396436  34.3072701  81.5988731  36.9632101
  33.8985920  82.2029686  36.3433003  33.9508247  80.7411003  36.7321372
  58.1523228  68.9335585   4.6532634  58.9966345  68.4969950   4.5401970
  57.8608608  68.6690474   5.5257982  74.8905897  63.0877447  25.1796341
  74.2206192  62.7958679  25.7978415  75.7080984  63.0479479  25.6759501
  91.3888741  53.5022736  64.9542093  91.3618183  54.2141485  64.3148851
  90.4744816  53.2391453  65.0585127  33.6018658  46.6291332  15.8909392
  33.9681077  46.7768621  15.0190020  34.3637466  46.6057396  16.4699221
  74.4653797   5.2217203  74.0755224  74.0383244   4.4187221  74.3739367
  73.7553310   5.7485473  73.7087584  50.8599567  84.9020100  37.6523376
  51.2187099  85.3910923  38.3928323  50.0172424  84.5748806  37.9670691
  21.7827821  47.4439859   8.3789599  22.6312065  47.1810627   8.7357199
  21.5678954  48.2528543   8.8434869   4.3893567  62.0486689   5.0162888
   4.3259549  61.2486887   4.4945210   4.3362364  62.7575493   4.3752733
  79.2018318  42.4469423  52.0312405  79.4562626  42.0120287  52.8450871
  78.6346674  43.1655312  52.3108625   2.8436849  36.3358927  64.1294765
   3.2658562  36.7343664  64.8905420   3.5320091  36.2998509  63.4652901
  10.3169203  56.0490465  56.6769695  10.2281117  56.8163490  57.2422981
  10.1693380  56.3846445  55.7927608  78.8617563   2.5520945  55.9903336
  78.5796785   3.3596936  56.4198065  78.4984875   1.8525457  56.5333796
  88.3015823  35.5656886   6.1287743  88.7070179  34.9764681   5.4926366
  88.6010456  36.4378738   5.8721739  20.0639272  65.2274418  34.8091125
  19.9931645  64.9358511  33.9001584  19.6750021  66.1020660  34.8110366
   6.0710698  81.0514259  10.0222099   5.7936162  81.8950462   9.6650606
   6.4033556  81.2587166  10.8956230  13.2602632  36.9893265  59.7021294
  12.9183936  36.8381667  58.8209343  14.1910338  36.7753887  59.6378994
  73.7338400  76.9199896   0.8505256  74.4326353  77.1212673   0.2281090
  73.7016487  77.6818657   1.4290959  19.2598045  32.5003314  64.4504356
  20.1377225  32.7681541  64.1788435  19.3495500  32.2935009  65.3807068
   0.8554301   1.3579196  59.6538353   1.2857763   0.6607062  59.1589355
   0.3490503   0.8986242  60.3238058  85.6419086  80.8182526  69.2322159
  85.9305668  80.6410503  70.1274824  86.0136127  80.1038170  68.7148762
  11.6314840  34.7531462  11.1291671  11.4388931  35.4635692  11.7410815
  12.4485600  34.3735099  11.4524221  19.6838367  67.8063440  20.0177264
  20.3208399  68.0453825  20.6910157  20.0415182  67.0121622  19.6207738
  69.3765163  81.7882156  44.9296427  68.7831545  81.0564041  45.0987768
  68.8592815  82.3997211  44.4054699   5.2059019  35.9777689  62.7204609
   6.0824466  36.3513947  62.6293278   4.7156239  36.3336062  61.9793510
  41.3903570  28.1860137  58.3451033  42.1491909  28.4112263  58.8833237
  41.5505219  28.6249161  57.5096750  78.5035944  25.4654622  61.9587469
  78.5014534  24.5090628  61.9978333  79.3523884  25.7181191  62.3219919
  13.3289313  64.0966368  26.7305470  14.1412747  63.7484169  27.0980668
  13.6120725  64.8039103  26.1510372  59.6322870  67.8097773  66.7383814
  60.3068733  67.5187826  67.3519707  59.6509886  67.1598053  66.0359430
  80.9217262  44.8992682  66.0584736  80.8701706  44.9129105  67.0141888
  80.4812431  45.7033348  65.7833576  72.7811337  22.1733665   7.0407325
  71.9313002  22.4720263   7.3644871  73.0593300  21.5113068   7.6735932
  42.2200155  58.6187410   1.5415694  42.9608822  58.8022661   2.1192102
  42.2160721  59.3456316   0.9187949  14.6127033  40.4188395   4.1701680
  15.5293667  40.2013254   4.0009117  14.4907665  41.2762356   3.7624508
  64.9325609  45.1341867  21.1963153  64.6285677  44.2326832  21.3017106
  65.5147839  45.2793550  21.9420862  41.5534163  74.8243570   1.1515024
  41.9463062  74.4004488   0.3884976  41.6224766  74.1729403   1.8494424
  60.9818029  49.3000507   6.0722601  60.1435375  49.4822454   6.4969379
  61.0241175  49.9245024   5.3480375  45.5183744   7.4856931   2.8607503
  46.1722326   6.8318546   3.1081295  44.6794796   7.0364010   2.9638082
  49.1486263  80.5751228  24.6813798  48.6854172  79.9871540  24.0847635
  50.0752783  80.4244232  24.4947219  30.6974101  20.1643181  72.7389717
  29.8829770  19.7096384  72.9538965  30.8729029  19.9241292  71.8291664
  89.5197678  22.8903413  23.2094479  89.1169357  23.3794284  22.4919820
  89.8666191  23.5644794  23.7937927  87.8481674   2.9418075  25.8939695
  88.3698654   3.1620851  26.6656804  86.9885063   3.3247989  26.0687208
  85.1936340  21.5119576   5.9586686  85.4117012  21.3850641   6.8820179
  85.9935284  21.8661165   5.5701309   9.9035615   1.6232438  26.5746927
  10.2787352   1.8590716  27.4231386  10.3057599   0.7814368  26.3606143
  25.1628399  70.1997375   5.6044656  24.7885895  70.7599640   4.9245268
  25.9372163  69.8124552   5.1963174  16.4381337  45.7571888  16.2791932
  16.8107855  44.8759031  16.3056409  16.5638733  46.0970879  17.1651328
  18.2454956  15.8695126  50.4864645  18.9225030  16.3871729  50.0506687
  17.9733205  15.2291811  49.8291016  42.7870417  26.3962197  55.8244610
  42.7975655  27.3178148  56.0828829  42.7201080  25.9166837  56.6501713
  32.3663878  48.9045906  13.1432962  32.5019503  49.8096037  13.4240294
  31.4746642  48.6979961  13.4232581  54.1856575   1.0404141  35.5500603
  53.8391161   1.9288379  35.6327915  53.5986328   0.5037891  36.0826683
  89.0172863  85.3814983   8.8883281  88.5663700  84.8358822   9.5326966
  88.4077740  85.4361725   8.1523037   6.7797905  41.0565042  73.2763052
   6.3068300  41.7356682  72.7953863   7.6973170  41.3253164  73.2302952
  54.4809198  33.4426546  70.3048277  54.9300432  33.3384061  71.1436701
  55.0030613  34.0911603  69.8325586  37.6344681  55.0851727   6.5162373
  37.2622943  55.6007814   5.8007872  38.5627770  55.0059605   6.2966931
  22.9130769  10.3300691   1.2857963  22.0131779  10.5044389   1.0101043
  22.8759241   9.4634455   1.6905363  70.6469679  80.1326752   4.5924845
  71.2924004  79.4273996   4.5452401  70.9511709  80.6880474   5.3102958
   8.5469377  50.2575493   0.4892350   8.0469519  50.7098007  -0.1902625
   8.3641374  50.7504129   1.2891731   2.7962530  64.5008326  17.1328962
   1.9444379  64.8729181  17.3613596   3.3949816  64.8499918  17.7930796
  69.7635317   9.6143049   5.7452369  69.4576693  10.0221837   4.9351043
  70.7092857   9.5262295   5.6268185  38.1493664  53.0262566  12.6069617
  38.4527946  53.8674259  12.2654927  37.2209811  53.1647205  12.7944767
  45.4470205  38.7616539  29.3522716  45.6293106  37.8460693  29.1408324
  44.8558664  39.0545177  28.6587286   1.6842207  16.8827915  59.9925566
   1.9820082  17.7659965  59.7746038   0.9641203  17.0180106  60.6085110
  29.5499468  77.1842813  11.1331320  28.7736034  77.5251484  11.5773547
  29.6534109  76.2975025  11.4783108  84.9665737  46.5381289  58.7942457
  84.9882030  45.6268406  59.0863466  85.8839798  46.7607784  58.6360502
  65.7736588  40.2442455  24.1303754  66.3693857  40.2084827  24.8787498
  66.1461878  40.9163094  23.5596013  30.6771994  40.6856060  69.1672325
  29.9849248  41.3434076  69.1017818  30.9541202  40.5385256  68.2628441
  55.7791519  69.1852856  14.5475757  55.9951496  69.4661236  13.6583591
  55.4600668  68.2887173  14.4447303  37.3653197  72.9193211  41.9765806
  36.5081382  72.6075649  42.2668886  37.9739594  72.6028919  42.6441574
  63.2524443  18.8652992   9.2805690  63.1030273  19.1792595  10.1723850
  64.1632748  19.0941691   9.0955251  39.3264103  76.5844631   5.3598243
  38.9537549  75.8936739   4.8119482  40.2099037  76.7133904   5.0147861
  25.7304120  62.5404358  17.4356782  25.7826090  62.7694893  16.5077543
  26.6423821  62.4467087  17.7109110  74.6071577  83.0527496  38.8777637
  74.8730707  82.1814823  39.1717339  75.4250813  83.5469246  38.8226533
  42.1594954  79.9237537  19.5605624  43.0021858  80.2161217  19.2132449
  42.1561623  80.2275276  20.4682755   4.0335011  57.1471262   7.9618329
   3.7411970  56.2399292   8.0500567   3.5029382  57.5013971   7.2482300
  57.2840071  23.0240655  18.6686933  57.9356289  23.5190296  18.1720757
  56.6971874  23.6910319  19.0251088  49.1009665  83.3382988  21.4780688
  49.0083933  83.5204506  20.5429316  48.2178545  83.1065083  21.7655063
  45.2915955  56.5415001  10.9805560  44.7638750  57.0280409  10.3472924
  44.6841288  56.3365364  11.6913342  20.8920074  78.7799788  22.2283483
  20.8072591  78.4124613  21.3485861  20.0688601  79.2464924  22.3733497
  76.3271999  72.6255560  22.7120090  75.3701353  72.6186323  22.6977038
  76.5713406  71.7100286  22.8477979  54.1282988  84.9312019  22.2549367
  54.0889597  85.4109287  21.4275599  55.0377369  84.6397495  22.3197937
  37.0960641  80.3804207  32.6894236  36.3625646  79.8489285  32.3800159
  36.7871380  80.7589340  33.5125422  16.1162198  45.6505537  72.2016859
  16.6682160  46.1970615  72.7610207  15.9544563  44.8629236  72.7210140
  14.4121349  35.9583235  10.7062066  14.5250094  35.0765371  11.0610890
  15.3039324  36.2882614  10.5963421  70.0707436  10.6610525  44.5690441
  70.0184631  10.6139600  43.6144352  70.9082174  10.2501667  44.7836113
  10.1425697  36.7244192  73.9010158   9.3212105  36.4516064  73.4921496
  10.2799036  36.0929914  74.6071796  44.1301203  79.4936323  11.8580925
  43.2723856  79.7927189  11.5563130  44.0633440  79.4990396  12.8129447
  79.2061567  28.7273145  18.7064004  80.0669098  28.7537980  19.1242921
  79.2105389  29.4693279  18.1017303  28.6159945  21.2967825  45.9210396
  28.4097767  20.8778214  46.7566109  28.6375690  20.5765963  45.2908850
  54.2077589  61.4282990  53.2598019  53.8058710  60.5636883  53.3444738
  54.7710943  61.3561535  52.4892950  26.6870451  10.3945887  74.8600531
  26.7660260  10.2645385  73.9150238  27.5098658  10.0606370  75.2173758
  14.5584774  59.6812344  72.6027250  13.7536120  59.7497702  72.0891809
  14.6850169  60.5570173  72.9677153  77.0781469   5.9185266  35.7824945
  77.4469852   5.7589048  36.6512346  77.4344826   5.2163225  35.2382803
  74.2895746  76.2238836  42.5941944  75.1760769  76.3039064  42.9462576
  74.0825129  75.2929306  42.6759911   2.6830408  28.4980273  26.5984821
   1.8555108  28.9292407  26.3852239   3.0283758  28.9956403  27.3396683
  18.9470553  54.0582657  13.5220575  18.4234667  54.6850538  14.0212810
  19.7703910  53.9947271  14.0061164  13.3912849   5.0757915   6.2218225
  13.7292945   4.5369181   5.5065620  12.8152788   4.4891980   6.7120844
  78.7332535  14.9330950  67.5796509  79.0045166  15.8400226  67.4377632
  79.5540667  14.4485521  67.6675224  12.0918036  53.7065268   1.1332135
  11.8079662  54.1167593   1.9501457  13.0444717  53.7994862   1.1368950
  85.3465843  26.3495970   5.9552586  86.0156631  26.0056329   5.3634411
  85.6390667  26.0846305   6.8273121  33.5667825  25.5239606  58.9840794
  34.3881607  25.0808167  59.1966677  33.2619929  25.8773017  59.8198366
  49.5543861  64.7401667  18.5668182  49.1247416  65.5645800  18.7948024
  50.3727674  64.7513199  19.0631592  17.8185737  69.4747448  69.4468784
  17.9774821  70.2961874  68.9818907  18.5962331  68.9452934  69.2703629
  36.4633536  71.8957853   2.6731107  36.9925094  71.8428802   1.8772301
  36.5782022  72.7959394   2.9776877  77.7942610  12.9635048  20.4422498
  76.9283724  13.2851672  20.6932545  78.3840370  13.3200145  21.1065507
  27.9561806  81.0653496  52.3640776  28.8151550  81.4516258  52.1932459
  27.7358460  81.3535404  53.2498693  51.5781403   8.8843507   5.8098537
  50.6900215   9.2294812   5.7184160  51.8689919   8.7303787   4.9110034
  19.3807566  34.2719126  37.9956794  20.1585054  33.8653612  38.3778501
  19.6022093  34.3913126  37.0721340  86.9069099  60.0930309  70.3577471
  87.5359440  59.5906353  69.8399210  87.1462059  59.9120903  71.2667179
  33.9632440  28.5254812  69.9052429  33.8199878  28.0113411  69.1106558
  34.6470833  28.0507183  70.3776789  18.2615077  39.7000360  44.0414000
  19.0004587  39.4010019  43.5115290  17.9879999  38.9240599  44.5305681
  56.0600758  73.7670469  17.4448943  56.3176107  72.9222822  17.0757318
  56.8752289  74.1405058  17.7799857  43.4898901  69.3421602  27.4496412
  43.4322262  69.1267061  28.3804941  43.7599897  70.2603054  27.4325943
  72.2440290  25.6731367   5.8574539  71.9562721  24.9270964   6.3836181
  72.4822044  26.3416195   6.4998221  55.0527477  50.5426741  32.8659606
  54.2311621  50.7165766  32.4066329  55.4728794  49.8527575  32.3524070
  44.9981928  80.7821846  69.6156073  44.3849039  80.9698105  70.3261757
  44.7991371  79.8817921  69.3589067  25.8472466  15.1278245   6.7698741
  26.4263368  15.7562804   6.3386798  25.4169798  15.6328762   7.4598199
  35.4998708  43.7153101   9.8613995  35.5744672  44.1438389  10.7140601
  36.3912320  43.7192535   9.5125592  33.9340997  43.6765766  24.7627020
  33.4444809  43.1218386  25.3699684  33.4336901  44.4917440  24.7263670
  59.4462063  86.5195752  67.3462772  58.7896587  86.2310773  67.9802752
  60.2824070  86.2573162  67.7312660   7.3415536   1.9796409  58.4596300
   7.8357500   1.1895134  58.6780357   6.4264613   1.7360328  58.5992479
  61.7875195  85.7042694  68.3931017  61.6606474  85.1804352  69.1841364
  62.3847008  85.1846409  67.8549576   3.4428063  10.0821054  55.1623535
   2.6473966   9.5661688  55.2941322   3.5297540  10.5972683  55.9644032
  87.2407627  55.2369165  69.6563387  86.4101315  55.5541277  69.3018389
  87.8539753  55.3017187  68.9242220  26.5982914  35.5603027   2.7738827
  27.4399686  35.1192546   2.6586163  26.7464280  36.4480066   2.4478889
  77.5767803  85.9367561  50.6938601  77.6518822  85.0336933  51.0021782
  77.7495050  85.8840656  49.7538471  82.8213024  84.0529442  58.0814266
  83.0385971  84.7395802  58.7119436  83.3525848  83.3036423  58.3507109
  72.4878740  83.0732250  29.1159964  73.3255005  83.5243797  29.0107775
  72.5518560  82.6454067  29.9698782  35.7580996  35.9375191   5.8584481
  35.0082016  35.5800819   5.3829235  35.3895473  36.2558246   6.6825140
  87.9896164  15.1396501  11.5467262  88.6873817  15.5303919  11.0207236
  87.6823044  15.8536375  12.1053100  10.8479166  28.2568121  43.8587570
  10.8419335  28.0688405  44.7972965  11.3725650  29.0532732  43.7773418
  80.8250618  55.8324718  53.2521343  81.0651493  54.9058867  53.2465935
  80.1366234  55.9054661  52.5910997  57.5766754  82.7738285  62.4338102
  58.1376791  82.7140236  63.2070684  57.6524067  83.6857414  62.1529150
  77.6753186   0.2948267  10.7430303  76.7587755   0.0697309  10.5833137
  77.9337452   0.8054716   9.9757707  46.2171745   2.9359227  53.9660120
  46.4267302   2.4509859  54.7642279  46.9149303   3.5868841  53.8910866
  66.3769674  84.0146828  67.7133608  66.0275936  83.6762810  68.5377693
  66.4654875  83.2418633  67.1555519  32.6073742  69.2300367   1.7354028
  32.8866792  69.7306871   0.9688707  32.2623396  68.4130764   1.3751838
  44.1156816  25.2742982   2.6822686  43.6764717  25.4209161   3.5200220
  45.0084352  25.5903411   2.8213382  61.4473295  41.7208910   1.2940443
  61.5859938  42.0796919   0.4175356  61.1876917  42.4750566   1.8232483
  71.7704725  52.0997715   3.6540499  70.9935617  51.6249323   3.3588019
  71.5045547  52.5041962   4.4798613  21.0767794  57.5648355   9.6986514
  20.6769991  56.9783163  10.3408337  21.8839979  57.1209145   9.4387221
  28.7381697  43.9355469  27.5466371  28.0541873  44.3812466  28.0463862
  28.6508036  43.0139875  27.7902031  25.4791713   6.5749329   7.1030462
  25.3831029   7.5139421   7.2619927  24.7253180   6.3456482   6.5595734
  55.0549936  69.9960041  71.9660759  55.1894522  69.0548038  72.0769548
  54.8485041  70.1006746  71.0372925  43.1008577  81.4530373  72.9245520
  42.5340509  82.0044899  73.4638643  42.5129461  80.7939529  72.5554991
  75.3203201  86.4591694  69.9463940  76.2708187  86.5716934  69.9573612
  75.1723051  85.7308292  69.3431997  44.1986942  26.8415213  32.0702839
  43.4478569  26.2872601  31.8575191  43.8394260  27.7280068  32.1063232
  40.9390593  62.1923590  21.2567902  40.5288792  61.3861847  20.9436250
  41.7890406  61.9123363  21.5964198  24.1996622  62.6323032   0.4451761
  24.0180755  62.4271154  -0.4719701  23.4329796  63.1258011   0.7365371
  19.0748513  22.4771118  65.5623817  18.4530687  22.8277087  64.9246502
  19.8836029  22.3536587  65.0654793  64.2397213  72.4998617  69.7364140
  64.8390722  71.9273710  70.2152252  64.3623734  73.3616734  70.1345015
  31.7855787  45.1437521   7.7403998  31.0384870  45.7365274   7.6585197
  32.0713615  45.2426195   8.6485767  53.2191610  52.2055960  31.4155602
  53.2744312  53.1399775  31.2152910  53.1338263  51.7821980  30.5613446
  79.7884417   7.7399093  60.4910326  79.4233227   8.5087860  60.9289265
  79.8239756   7.0698375  61.1736536  65.8019876  16.1432433  48.3948278
  65.1570749  16.5309632  48.9864302  65.9217405  16.7991197  47.7080107
  45.6666994  70.1533031  60.4495382  46.1054659  70.6262589  61.1566639
  44.9696732  70.7434893  60.1630735  62.1121788  71.1864376  66.9366646
  62.6461983  70.4292536  66.6964054  61.2094498  70.8814192  66.8456745
  15.5634713  45.6268263   3.9074296  15.8335471  46.4971161   4.2004964
  15.0923133  45.7850838   3.0893856  48.6525202  63.0212736  25.0327873
  48.5650587  62.5570107  24.2002940  47.7837372  62.9652882  25.4306722
  32.0402360  14.1272545  67.9256201  31.4707303  13.6255598  67.3423576
  31.8422532  13.7922478  68.8001537  11.3268340   3.3677188  57.4414635
  10.6024611   3.9087579  57.7557802  12.0425344   3.9865321  57.2962952
  78.1716967  66.8340111  64.6479988  77.8189754  66.0511398  64.2249966
  77.6100492  66.9673491  65.4115486  83.0631638  39.1541266  61.8739128
  83.4649658  39.7436309  62.5120926  82.2580051  39.5995331  61.6101742
  83.1251907  28.6752081  68.9269066  83.8526058  28.3723879  69.4704151
  82.4088097  28.8206124  69.5448780  86.8551636  13.4844589  52.7018070
  86.9569111  13.9854705  53.5110426  85.9825611  13.7168646  52.3843336
  14.7538316  63.5819101  64.0111446  15.6366801  63.3837271  64.3234491
  14.3645620  64.1068125  64.7105551  48.3021975  59.9922466  62.6153612
  48.0447578  59.6204615  61.7717171  48.7123871  60.8281755  62.3935556
  36.9947290  15.9670079   0.4501608  37.3843336  15.3512442  -0.1705444
  37.4836802  15.8306634   1.2616822  62.0272732  81.7874241  51.3123703
  61.7628241  80.8900833  51.1097050  62.6707792  81.6946030  52.0148802
  61.6097116  13.0474341  17.4768341  61.0830259  13.0001521  16.6789651
  61.0790205  12.6069617  18.1405973  61.2801361  77.7263832  36.7690539
  60.7555294  76.9984818  36.4356208  62.1846819  77.4747992  36.5826917
  48.0632830  68.2476807  27.4519563  48.5180426  68.9327192  26.9619012
  48.7325764  67.8828716  28.0309129  84.0854263  17.4384296  51.7293596
  84.8563194  17.8082716  51.2990475  83.7992287  18.1211317  52.3361874
  12.0169699  19.4287467  69.2971992  12.3135042  18.9370525  70.0630569
  12.2388113  18.8693607  68.5528183   6.1127394  75.3025007  65.2302361
   5.9971344  74.8438120  66.0623837   7.0387495  75.5444860  65.2167606
  39.7586298  49.1271782  18.9231086  39.6902943  49.8844004  18.3415794
  39.3496490  49.4144487  19.7394669  70.5000257  79.7767973  62.4583197
  70.8853865  79.7528124  61.5824461  69.5707035  79.5968914  62.3161221
  53.5878801  31.2923765  28.6483884  54.4699621  31.2907743  29.0200877
  53.0087090  31.3713861  29.4063783  59.5012188  70.6186342  66.5694809
  58.5692596  70.7208967  66.7624235  59.6079159  69.6841145  66.3919306
  25.2387428  36.8929935  19.6472752  25.7973170  37.6673317  19.7153056
  25.8252192  36.1580944  19.8267221  38.1632638  22.6743436  70.6611156
  37.3450923  23.1354713  70.4762173  38.7655497  23.3607984  70.9479237
  64.2920542  15.8075035  45.4720354  65.1625490  15.7683504  45.0758886
  64.4134903  15.4526103  46.3526821  50.6253529  68.3652782  47.1959400
  50.9603071  68.6073780  48.0593204  49.6784401  68.4879494  47.2633648
  36.9803047  40.7480145   2.8769618  36.1038327  41.0900784   2.7008286
  36.8305588  39.9725819   3.4178072   3.1711107  77.3910236   9.3632638
   3.9464137  77.9461765   9.2799401   3.2233816  76.7931366   8.6175901
  17.8918493  39.6922827   1.3384518  17.7076542  39.3894434   2.2276044
  18.1981766  40.5921841   1.4505687  80.7769585  16.0173666  42.8204823
  80.5519581  16.9304514  42.9990292  81.2115002  16.0400808  41.9679070
  87.2470474  53.7673569   0.1360760  86.5756416  54.4086838  -0.0965994
  87.6737785  54.1370535   0.9090297  10.4303658  35.1141429  18.5684299
   9.8019361  35.0476670  19.2873800  10.0255871  35.7245660  17.9521739
  21.8410516   3.6264151  74.8454762  21.4729285   4.3947378  74.4091272
  22.7735233   3.8242564  74.9325705  69.7780991   1.8782927  31.2228751
  70.5329561   1.4573611  30.8114886  69.3589687   2.3649533  30.5131435
  31.6820097  79.3500614  67.4590540  32.0422602  78.5517168  67.0729256
  31.6999388  79.1890383  68.4024429   3.9243603  71.9226170   0.9036683
   4.1579458  72.7603483   0.5038224   3.7146571  71.3538504   0.1628864
  11.2384224  30.1168275  62.9938030  11.6920090  29.2865396  62.8485012
  11.9191980  30.7822943  62.8941536  83.6590958   9.8307323  68.6104155
  84.4356251   9.6517438  69.1406965  83.8623524   9.4552869  67.7537012
  15.6032276  82.9039478   4.1830587  16.0116601  82.1557236   4.6184587
  14.8825002  83.1534863   4.7614291  75.7017708  25.7839966  58.0363703
  76.4286995  26.0204124  58.6124945  75.3847837  24.9491358  58.3809853
  27.1420813   6.0016972  20.2272058  27.4185777   6.8746573  20.5059910
  27.1133518   6.0532802  19.2718279   2.2435971  80.3006554  59.1630316
   1.6420142  80.6268883  59.8322916   1.8969561  79.4398022  58.9285088
  70.0417995  45.4475927  70.5516815  69.5456171  44.9348307  69.9136257
  69.5768023  45.3164291  71.3780022   4.1343045  45.0443649  62.8828096
   3.6071575  45.6898165  63.3537006   3.8709971  45.1417446  61.9677019
  91.3243103  22.1734500  61.5373039  91.4470291  21.2288976  61.6321278
  91.0496712  22.4676704  62.4057722   3.8442862   4.3507063  73.0976295
   4.2082092   4.8146132  72.3435879   4.3254888   3.5237119  73.1251240
  80.8216476  26.5817857  70.3623438  80.0079250  26.5723729  69.8583555
  81.5092850  26.4509964  69.7094488  83.0520725  45.6733513  68.0005693
  82.3410606  46.2944126  68.1586361  83.4398556  45.9587097  67.1732664
  17.0568264   5.7175106  72.1099424  16.7089260   4.9132979  72.4952173
  16.6628730   6.4204884  72.6265192  85.9857178  84.0719032  21.3322639
  85.3438282  83.7970161  21.9869733  85.5142021  84.6978188  20.7826066
  36.9899178  58.4299803   6.0049468  37.8238916  57.9920721   5.8347887
  36.5043974  58.3478212   5.1841229  62.7140236  85.2739620  58.5282135
  62.3081398  84.4881630  58.8942957  62.8438187  85.0674534  57.6026058
  43.8575172  40.4448938  23.3001351  43.7832642  41.3978338  23.2489514
  43.6398554  40.1400375  22.4192715  68.0086708   8.1909871  13.9615464
  68.8605642   8.6257160  14.0005243  68.0964899   7.4390173  14.5472610
  66.5728045  62.6495266  12.4252748  67.4589396  62.9071951  12.1711051
  66.4954281  61.7404079  12.1358883  40.6723928  57.3244524  56.4264536
  39.8992705  57.7205563  56.8284702  41.4121914  57.7611399  56.8486309
   9.1177815  46.3951159  20.5760098   8.2722497  46.4239597  21.0237551
   9.7354043  46.1084795  21.2487745  24.1306210  34.9918842  56.0109615
  23.7107182  35.3996849  55.2535868  23.5542250  34.2630696  56.2408066
  37.4982357  72.4803734   8.0280232  37.4485970  72.0988369   7.1515554
  37.7320504  73.3963156   7.8776330   7.6576698   6.0731030  36.0487676
   7.3381847   6.2961030  35.1744485   7.9684645   5.1714247  35.9674382
  13.4735787  14.1798592  39.1521549  13.0349290  13.4360862  39.5652175
  14.3958163  14.0738034  39.3855262   6.5206259  50.2896786  61.0335493
   5.6432819  49.9306726  60.9008312   6.9480473  49.6665192  61.6211033
  90.0326920   6.6293323  37.0150089  90.2804852   7.3728740  36.4654827
  89.5692062   7.0221257  37.7546883  30.7172775  60.0241184   4.8737583
  30.0537086  59.3353796   4.8343846  31.4918566  59.5902586   5.2315670
  60.9599829  80.3281403  60.8118057  61.8400288  79.9516439  60.8112097
  61.0395575  81.1239243  60.2858496  52.5388479  71.2348509  10.2078199
  52.4584627  71.4393425  11.1394596  53.3289289  71.6973639   9.9283856
  60.8341599  28.3782887  12.8770876  60.4723835  27.6387453  13.3653772
  60.0737143  28.7879753  12.4646461  66.2088776  17.4322557  40.8742476
  66.6174364  17.6050377  40.0260353  66.2836456  18.2599676  41.3491535
  24.4588280  22.4819970  52.7320385  24.2965865  23.4187603  52.8433228
  25.1657581  22.2866273  53.3471107  43.1807423  18.1400657  21.8926644
  43.4352303  19.0000677  22.2271252  42.4147177  17.8978038  22.4129987
  65.3745794  50.6793404  27.4481320  64.4291306  50.6345797  27.3054576
  65.4843712  50.5035210  28.3826160  10.5162454  21.7183805  71.9870472
  10.3512192  20.8330250  71.6627932  10.5372894  21.6246128  72.9394102
  88.6630535  29.6438265  73.0228281  89.3387127  28.9973617  72.8183508
  88.5018921  29.5336294  73.9599037  90.4696369  44.5924473  10.0991213
  91.0087299  45.0064802   9.4251835  90.9408569  44.7552347  10.9162426
   1.7275698  44.2846775  43.7023258   2.3892149  44.9747419  43.6547279
   2.2316143  43.4741259  43.7742949  69.9928379  30.1936913   0.2319710
  70.3334999  29.4331813   0.7029329  70.3368282  30.9467459   0.7123950
  37.8216124  43.6297989  21.5697050  37.2980142  44.0278912  20.8742929
  38.1350946  44.3711519  22.0877409  46.5562057  77.2595644  70.2471733
  46.0029507  76.4852524  70.3500462  46.9976282  77.3524094  71.0914230
  58.5680914  54.4436455  20.8134675  57.9154968  53.8720417  20.4089713
  58.0725574  54.9615479  21.4478636  27.5453997  38.4656858  20.4795170
  28.3944035  38.1078672  20.7391143  27.3364449  39.1048336  21.1607337
   2.3052979  19.0026593  57.5451326   1.4191723  19.3585038  57.4788904
   2.4646387  18.5965657  56.6931152  12.2831059  33.5970402  45.6622553
  12.2858512  34.5327878  45.8637524  11.4394426  33.2842064  45.9887505
  58.8586569  71.6300201  60.5475283  59.1079950  71.3893318  61.4397860
  59.6907997  71.7730141  60.0966167  40.0019407  18.1373632  72.4239588
  39.5622611  18.9144361  72.7690220  39.4791698  17.4032855  72.7465582
  19.4509149  28.0609298  56.5626240  20.3155851  27.6518583  56.5977907
  19.2576468  28.2909822  57.4714470  83.9442444  80.0629711  46.8158960
  84.8932648  80.1540947  46.9011879  83.8000965  79.9243784  45.8798170
  47.7024841  86.2882996  39.6644473  46.8218756  86.6627312  39.6406841
  47.5979519  85.4073334  39.3049884  88.6069107  34.6977282  73.0370331
  88.1885052  35.2000833  72.3378897  87.8968525  34.1821671  73.4194517
   9.1223216  12.6926565  69.8271036   9.0247124  13.4377217  69.2341614
   9.5172405  12.0075047  69.2878103  14.5321512  49.9357271  17.6610136
  13.6476743  50.2940416  17.7354515  14.3991494  49.0063095  17.4746573
   9.6078932  33.9274240  55.5558968   9.9493498  33.1530356  56.0030699
  10.0291467  33.9129639  54.6964979  50.3717279  54.1351700  19.5377791
  49.8155880  54.2101622  18.7623334  50.0242710  54.7877741  20.1457357
  21.1423850  23.9790797  63.9676046  20.7541370  23.3729291  63.3366680
  21.9865894  24.2161393  63.5837364  83.0022526  61.3194752  52.6583290
  83.8538837  61.5103292  52.2652102  82.3663330  61.6019297  52.0010233
  37.4888420   7.6752692  67.3903131  36.6622901   7.6745594  66.9075680
  37.2430849   7.9080528  68.2856607  52.9030132  75.0349617  56.3241959
  52.4386454  74.2193890  56.5124273  53.2102013  74.9332476  55.4233551
  13.1641710  18.0003154  71.2476730  12.7992296  17.3403740  70.6581593
  13.3649397  17.5194478  72.0506001  87.8153133  32.1246719  74.3285084
  87.8236771  31.3837671  74.9345016  87.5695419  31.7423248  73.4861088
   6.6714144  47.1144915  18.6455309   7.1121228  47.9543066  18.7748182
   5.8798832  47.1745253  19.1804206  24.6024418  19.1217017   1.3154180
  24.2336249  19.0927219   2.1982345  24.5039678  18.2286525   0.9852695
  73.5253668  48.9463472  42.8640366  73.7329435  48.8238573  43.7903976
  74.3763876  48.9464331  42.4258661  50.2720213  80.6592178   1.3457711
  50.6015110  81.4844227   1.7017379  50.4340696  80.0181389   2.0378643
   7.8990990  63.2348967  72.2091341   8.5550088  62.5929499  71.9372606
   8.3337063  64.0810966  72.1028614  61.4374447  68.3296108  12.2170842
  61.8832445  68.4626579  13.0536199  61.7820644  69.0192080  11.6496968
  27.3418903  37.0008087  67.5185728  27.9945946  37.6499009  67.2561026
  27.3944879  36.3224649  66.8452835  75.0485897  79.0394926   4.9101657
  75.7790279  79.5465136   5.2645957  75.3748178  78.1401920   4.8774865
  79.5176411  39.6343827  57.9541492  80.0150967  38.9887500  57.4522209
  79.9580383  39.6686339  58.8033295  38.0909181  84.7375202   7.4787098
  38.3283734  85.5066681   7.9966509  37.1357083  84.7009182   7.5283486
  80.3796291  66.2084961   5.0161731  80.9578705  66.9616461   4.8952255
  80.9699440  65.4842520   5.2240908   1.1188731  44.2142773  60.8349228
   1.4408593  43.5406590  61.4339209   0.2525039  44.4410276  61.1728907
  63.6579180  43.4385395  14.5734954  63.5550928  42.5869608  14.1486704
  64.5874310  43.4837627  14.7975302  81.1851025  54.4434309   2.4184729
  81.3674736  55.2532768   1.9418976  81.2056541  53.7609434   1.7476392
  91.6731188  91.6731188  91.6731188 109.4712190 109.4712190 109.4712190
